2
 energy: -3.702776166715 gnorm: 0.009579908434 xtb: 6.7.1 (edcfbbe)
S           -4.93587000000000       -3.62988000000000        0.85731400000000
H           -6.02815000000000       -4.30852200000000        1.13330800000000
2
 energy: -3.702852069256 gnorm: 0.004315704537 xtb: 6.7.1 (edcfbbe)
S           -4.93246397349764       -3.62776380942834        0.85645337554611
H           -6.03155602650236       -4.31063819057166        1.13416862445389
2
 energy: -3.702872214978 gnorm: 0.000197956972 xtb: 6.7.1 (edcfbbe)
S           -4.92967186716954       -3.62602905220243        0.85574787458123
H           -6.03434813283046       -4.31237294779757        1.13487412541877
2
 energy: -3.702872248916 gnorm: 0.000092605979 xtb: 6.7.1 (edcfbbe)
S           -4.92947052524758       -3.62590395691130        0.85569700011461
H           -6.03454947475242       -4.31249804308870        1.13492499988539
