 Entering Gaussian System
 *********************************************
 Gaussian 98:
 frequency output generated by the xtb code
 *********************************************
                         Standard orientation:
 --------------------------------------------------------------------
  Center     Atomic     Atomic              Coordinates (Angstroms)
  Number     Number      Type              X           Y           Z
 --------------------------------------------------------------------
    1          6             0       -3.387145   -4.231564   -2.982811
    2          6             0       -4.161575   -2.948622   -2.575971
    3          8             0       -3.452560   -2.047712   -1.901909
    4          1             0       -5.081583   -3.293153   -1.990910
    5          1             0       -4.602575   -2.513357   -3.536971
    6          6             0       -4.240384   -5.222710   -3.758265
    7          1             0       -2.526056   -3.911803   -3.574971
    8          1             0       -3.006256   -4.681850   -2.062745
    9          1             0       -4.608460   -4.759234   -4.671244
   10          1             0       -3.659390   -6.104870   -4.016474
   11          1             0       -5.096162   -5.523473   -3.157336
 --------------------------------------------------------------------
     1 basis functions        1 primitive gaussians
     1 alpha electrons        1 beta electrons
 
 Harmonic frequencies (cm**-1), IR intensities (km*mol⁻¹),
 Raman scattering activities (A**4/amu), Raman depolarization ratios,
 reduced masses (AMU), force constants (mDyne/A) and normal coordinates:
                      1                      2                      3
                        a                      a                      a 
 Frequencies --   118.7450               208.4351               277.9910
 Red. masses --     8.8048                 2.0133                 9.4588
 Frc consts  --     0.0000                 0.0000                 0.0000
 IR Inten    --     6.1859                 0.9869                 8.6560
 Raman Activ --     0.0000                 0.0000                 0.0000
 Depolar     --     0.0000                 0.0000                 0.0000
 Atom AN      X      Y      Z        X      Y      Z        X      Y      Z
   1   6     0.08   0.15  -0.29     0.07   0.11  -0.22    -0.42   0.21  -0.02
   2   6     0.11   0.19  -0.37    -0.02  -0.04   0.07    -0.27   0.26   0.06
   3   8    -0.12  -0.21   0.41    -0.03  -0.04   0.08     0.39  -0.16   0.03
   4   1    -0.09   0.06  -0.29     0.05  -0.08   0.06    -0.07   0.15   0.06
   5   1     0.22   0.17  -0.14    -0.09   0.01   0.07    -0.08   0.15   0.06
   6   6    -0.08  -0.15   0.27    -0.02  -0.03   0.05     0.24  -0.31  -0.09
   7   1    -0.03   0.01  -0.18    -0.03   0.06  -0.13    -0.11   0.11   0.03
   8   1     0.11   0.13  -0.07     0.10   0.05  -0.09    -0.11   0.11   0.02
   9   1    -0.18  -0.11   0.11     0.37  -0.23  -0.25     0.08  -0.21  -0.09
  10   1    -0.01  -0.02   0.04    -0.16  -0.25   0.49     0.25  -0.00   0.08
  11   1     0.08  -0.06   0.21    -0.25   0.42  -0.12     0.07  -0.21  -0.09
                      4                      5                      6
                        a                      a                      a 
 Frequencies --   469.5389               766.7680               884.4785
 Red. masses --    11.9988                 1.9930                 7.5332
 Frc consts  --     0.0000                 0.0000                 0.0000
 IR Inten    --    24.5833                 0.1352                35.4277
 Raman Activ --     0.0000                 0.0000                 0.0000
 Depolar     --     0.0000                 0.0000                 0.0000
 Atom AN      X      Y      Z        X      Y      Z        X      Y      Z
   1   6    -0.09  -0.24  -0.15    -0.07  -0.11   0.21     0.34  -0.25  -0.02
   2   6     0.29   0.14   0.16    -0.04  -0.06   0.12    -0.45   0.33   0.03
   3   8    -0.12   0.58   0.26     0.02   0.03  -0.06     0.11   0.04   0.05
   4   1     0.09   0.03   0.04    -0.19   0.24  -0.13    -0.08   0.12   0.03
   5   1     0.09   0.03   0.04     0.28  -0.09  -0.15    -0.08   0.11   0.03
   6   6    -0.10  -0.39  -0.23    -0.01  -0.01   0.02     0.09  -0.25  -0.10
   7   1    -0.02  -0.14  -0.08    -0.36   0.23  -0.31     0.09   0.04   0.05
   8   1    -0.02  -0.14  -0.08     0.50   0.01  -0.15     0.09   0.04   0.04
   9   1    -0.03  -0.16  -0.09     0.19   0.18   0.02    -0.01   0.17   0.11
  10   1     0.04  -0.08  -0.03     0.02   0.04  -0.07    -0.37  -0.26  -0.25
  11   1    -0.03  -0.16  -0.09    -0.13  -0.08  -0.21     0.01   0.19   0.08
                      7                      8                      9
                        a                      a                      a 
 Frequencies --   898.5023              1063.0717              1097.5538
 Red. masses --     2.4516                 7.0965                 8.9651
 Frc consts  --     0.0000                 0.0000                 0.0000
 IR Inten    --    20.7237                11.7492                53.1156
 Raman Activ --     0.0000                 0.0000                 0.0000
 Depolar     --     0.0000                 0.0000                 0.0000
 Atom AN      X      Y      Z        X      Y      Z        X      Y      Z
   1   6    -0.01  -0.03   0.04    -0.06   0.43   0.20     0.50   0.19   0.25
   2   6     0.07   0.13  -0.25     0.26  -0.28  -0.06    -0.06   0.26   0.11
   3   8    -0.02  -0.04   0.08    -0.00   0.05   0.02    -0.06  -0.19  -0.11
   4   1     0.21  -0.22   0.13     0.06  -0.05  -0.01    -0.04  -0.02  -0.01
   5   1    -0.29   0.09   0.13     0.05  -0.06  -0.01    -0.03  -0.01  -0.03
   6   6    -0.05  -0.08   0.16    -0.11  -0.35  -0.21    -0.43  -0.09  -0.18
   7   1    -0.04  -0.31  -0.21    -0.02   0.34   0.17     0.13  -0.01   0.04
   8   1     0.07   0.34   0.15    -0.02   0.34   0.16     0.13  -0.01   0.04
   9   1     0.27   0.30   0.09    -0.07   0.06   0.03    -0.08  -0.25  -0.17
  10   1     0.04   0.07  -0.15    -0.25  -0.20  -0.18     0.16   0.10   0.10
  11   1    -0.20  -0.18  -0.31    -0.05   0.08  -0.00    -0.09  -0.27  -0.15
                     10                     11                     12
                        a                      a                      a 
 Frequencies --  1108.8576              1158.6756              1239.0442
 Red. masses --    12.6311                 6.3779                 3.0832
 Frc consts  --     0.0000                 0.0000                 0.0000
 IR Inten    --   466.1887                44.9143                12.8789
 Raman Activ --     0.0000                 0.0000                 0.0000
 Depolar     --     0.0000                 0.0000                 0.0000
 Atom AN      X      Y      Z        X      Y      Z        X      Y      Z
   1   6     0.14  -0.00   0.04     0.11   0.18  -0.36    -0.05  -0.08   0.17
   2   6    -0.46  -0.44  -0.37    -0.13  -0.21   0.42    -0.05  -0.08   0.16
   3   8     0.34   0.38   0.30     0.04   0.07  -0.13     0.02   0.03  -0.06
   4   1     0.05  -0.06  -0.04    -0.22   0.01  -0.25    -0.09  -0.06  -0.11
   5   1     0.04  -0.08   0.00     0.31   0.13  -0.03     0.11   0.10   0.03
   6   6    -0.14   0.07  -0.01    -0.06  -0.10   0.19     0.09   0.14  -0.28
   7   1     0.03   0.01   0.02     0.21  -0.20   0.05    -0.09  -0.44  -0.30
   8   1     0.03   0.01   0.02    -0.25   0.14   0.08     0.11   0.47   0.23
   9   1    -0.01  -0.09  -0.06     0.16   0.16   0.06    -0.21  -0.19  -0.08
  10   1     0.11   0.09   0.08     0.03   0.04  -0.09    -0.03  -0.05   0.10
  11   1    -0.02  -0.10  -0.04    -0.13  -0.11  -0.17     0.17   0.13   0.20
                     13                     14                     15
                        a                      a                      a 
 Frequencies --  1297.1005              1309.0649              1385.5068
 Red. masses --     4.6403                 1.6605                 3.0532
 Frc consts  --     0.0000                 0.0000                 0.0000
 IR Inten    --    25.4542                 0.1059               136.2041
 Raman Activ --     0.0000                 0.0000                 0.0000
 Depolar     --     0.0000                 0.0000                 0.0000
 Atom AN      X      Y      Z        X      Y      Z        X      Y      Z
   1   6     0.08  -0.47  -0.21    -0.05  -0.06   0.16    -0.09  -0.16  -0.11
   2   6     0.10  -0.04   0.01    -0.00   0.00  -0.01    -0.07   0.31   0.13
   3   8    -0.08   0.01  -0.02     0.04   0.06  -0.12     0.12   0.02   0.05
   4   1    -0.02   0.20   0.08    -0.04  -0.56  -0.32     0.05  -0.56  -0.23
   5   1    -0.02   0.22   0.12     0.06   0.58   0.28     0.07  -0.52  -0.28
   6   6    -0.14   0.11   0.01     0.01  -0.00   0.00    -0.02   0.02  -0.00
   7   1    -0.03   0.46   0.20    -0.08   0.19   0.05    -0.03   0.18   0.08
   8   1    -0.03   0.43   0.23     0.09  -0.20  -0.09    -0.03   0.18   0.08
   9   1     0.05  -0.02  -0.05    -0.01   0.00   0.01     0.03   0.03   0.00
  10   1     0.17   0.13   0.12    -0.02  -0.02   0.02     0.05   0.03   0.03
  11   1     0.03  -0.06   0.03     0.00  -0.01  -0.00     0.02   0.01   0.04
                     16                     17                     18
                        a                      a                      a 
 Frequencies --  1390.5731              1491.1168              1497.6511
 Red. masses --     3.2072                 1.5452                 2.0111
 Frc consts  --     0.0000                 0.0000                 0.0000
 IR Inten    --     0.1969                 0.8851                55.2573
 Raman Activ --     0.0000                 0.0000                 0.0000
 Depolar     --     0.0000                 0.0000                 0.0000
 Atom AN      X      Y      Z        X      Y      Z        X      Y      Z
   1   6     0.00  -0.07  -0.03    -0.02  -0.02   0.04     0.26  -0.00   0.08
   2   6     0.02   0.01   0.01    -0.00   0.00  -0.00     0.09  -0.03   0.01
   3   8    -0.00   0.00   0.00    -0.00   0.00  -0.01     0.05   0.04   0.04
   4   1     0.01  -0.02   0.00     0.01  -0.03   0.00    -0.22   0.05  -0.23
   5   1     0.01  -0.02  -0.01     0.02   0.02   0.01    -0.31  -0.08   0.05
   6   6     0.23   0.30   0.23    -0.06  -0.09   0.18    -0.00  -0.04  -0.01
   7   1    -0.05   0.09  -0.01    -0.01  -0.02  -0.00    -0.36   0.17  -0.44
   8   1    -0.07   0.06   0.05     0.03   0.02   0.01    -0.55  -0.14   0.17
   9   1    -0.21  -0.45  -0.13     0.15  -0.37  -0.24     0.00   0.02   0.01
  10   1    -0.41  -0.19  -0.23     0.20   0.31  -0.61     0.04   0.02  -0.00
  11   1    -0.13  -0.32  -0.37    -0.10   0.45   0.09    -0.00   0.05   0.02
                     19                     20                     21
                        a                      a                      a 
 Frequencies --  1504.1486              1508.3662              2141.0897
 Red. masses --     1.5542                 1.7612                 1.6978
 Frc consts  --     0.0000                 0.0000                 0.0000
 IR Inten    --     3.6790                83.7849               961.2071
 Raman Activ --     0.0000                 0.0000                 0.0000
 Depolar     --     0.0000                 0.0000                 0.0000
 Atom AN      X      Y      Z        X      Y      Z        X      Y      Z
   1   6     0.00   0.05   0.03     0.11   0.01   0.04    -0.01  -0.02   0.03
   2   6    -0.03   0.00  -0.01    -0.16   0.06  -0.02    -0.06  -0.11   0.21
   3   8    -0.02  -0.02  -0.02    -0.08  -0.07  -0.06    -0.00  -0.00   0.01
   4   1     0.09  -0.03   0.09     0.40  -0.12   0.42     0.57   0.16  -0.33
   5   1     0.13   0.03  -0.02     0.56   0.14  -0.11    -0.31   0.28  -0.55
   6   6    -0.18   0.11   0.00     0.04  -0.05  -0.02     0.00   0.00  -0.01
   7   1    -0.06   0.01  -0.08    -0.19   0.10  -0.22    -0.02   0.02   0.00
   8   1    -0.09  -0.04   0.01    -0.29  -0.05   0.09     0.02  -0.02  -0.00
   9   1     0.58  -0.03  -0.25    -0.13   0.04   0.07    -0.00  -0.01  -0.00
  10   1    -0.25  -0.11  -0.14     0.08   0.03   0.05     0.00   0.00  -0.00
  11   1     0.38  -0.34   0.38    -0.08   0.10  -0.07     0.00   0.00   0.00
                     22                     23                     24
                        a                      a                      a 
 Frequencies --  2366.5253              2943.3606              2965.6406
 Red. masses --     1.3537                 1.9671                 1.4694
 Frc consts  --     0.0000                 0.0000                 0.0000
 IR Inten    --   609.6634               142.1965               102.6398
 Raman Activ --     0.0000                 0.0000                 0.0000
 Depolar     --     0.0000                 0.0000                 0.0000
 Atom AN      X      Y      Z        X      Y      Z        X      Y      Z
   1   6     0.02  -0.01  -0.00     0.08   0.13  -0.25     0.20  -0.02   0.05
   2   6     0.10  -0.08  -0.01     0.00   0.00  -0.01     0.01  -0.00   0.00
   3   8     0.06   0.07   0.05    -0.00  -0.00   0.00    -0.00  -0.00  -0.00
   4   1    -0.49  -0.24   0.44     0.00  -0.00   0.00     0.01  -0.00  -0.00
   5   1    -0.16   0.29  -0.61    -0.00   0.00   0.00     0.00  -0.00   0.00
   6   6    -0.00   0.00  -0.00    -0.00  -0.01   0.01    -0.01   0.01   0.00
   7   1     0.01  -0.01   0.00    -0.54  -0.19   0.35    -0.52  -0.22   0.40
   8   1     0.01  -0.00  -0.01     0.25  -0.27   0.57    -0.20   0.29  -0.59
   9   1     0.00  -0.00   0.00    -0.02   0.02  -0.04     0.00  -0.00   0.01
  10   1    -0.00   0.00  -0.00    -0.00  -0.00   0.00     0.04  -0.05  -0.02
  11   1     0.00  -0.00  -0.00     0.04   0.01  -0.02     0.01   0.01  -0.01
                     25                     26                     27
                        a                      a                      a 
 Frequencies --  3015.2450              3016.3156              3025.1505
 Red. masses --     1.9466                 1.9384                 1.2403
 Frc consts  --     0.0000                 0.0000                 0.0000
 IR Inten    --   101.1795                91.5514                42.7360
 Raman Activ --     0.0000                 0.0000                 0.0000
 Depolar     --     0.0000                 0.0000                 0.0000
 Atom AN      X      Y      Z        X      Y      Z        X      Y      Z
   1   6    -0.01  -0.01   0.02     0.02  -0.01   0.00     0.00   0.00   0.00
   2   6    -0.00  -0.00   0.00    -0.00   0.00   0.00     0.00  -0.00  -0.00
   3   8     0.00   0.00  -0.00    -0.00  -0.00  -0.00     0.00   0.00   0.00
   4   1     0.00  -0.00  -0.00     0.00   0.00   0.00    -0.00  -0.00   0.00
   5   1    -0.00   0.00  -0.00     0.00   0.00   0.00    -0.00   0.00  -0.00
   6   6    -0.08  -0.13   0.25     0.21  -0.20  -0.03     0.11   0.06   0.07
   7   1     0.03   0.01  -0.03    -0.04  -0.01   0.03     0.01   0.00  -0.00
   8   1    -0.01   0.02  -0.04    -0.01   0.02  -0.04     0.00  -0.00   0.01
   9   1    -0.25   0.30  -0.56    -0.07   0.11  -0.27    -0.19   0.29  -0.52
  10   1    -0.01  -0.02   0.04    -0.46   0.69   0.20     0.26  -0.35  -0.09
  11   1     0.54   0.17  -0.36    -0.21  -0.11   0.17    -0.48  -0.16   0.37
