11
 energy: -14.318534533144 gnorm: 0.036675017077 xtb: 6.7.1 (edcfbbe)
C           -3.39347400000000       -4.21499700000000       -2.97152000000000
C           -4.16115600000000       -2.93008600000000       -2.56401800000000
O           -3.42741600000000       -1.99952200000000       -1.89720400000000
H           -5.06901100000000       -3.30675600000000       -1.99009300000000
H           -4.62001100000000       -2.55127100000000       -3.53453500000000
C           -4.23795400000000       -5.21644400000000       -3.75860200000000
H           -2.51274300000000       -3.90748300000000       -3.56447600000000
H           -3.00058200000000       -4.68482200000000       -2.05138200000000
H           -4.60973600000000       -4.76921300000000       -4.69480800000000
H           -3.67216700000000       -6.12154700000000       -4.02669600000000
H           -5.11753700000000       -5.53637300000000       -3.17650300000000
11
 energy: -14.320576307142 gnorm: 0.011543231607 xtb: 6.7.1 (edcfbbe)
C           -3.38538586225319       -4.23156153868205       -2.97876576231119
C           -4.16997220992414       -2.95443163904801       -2.57959807398829
O           -3.44941516473110       -2.03860702166954       -1.91810937672535
H           -5.07497001851960       -3.28671254260214       -1.97472776725071
H           -4.61955331437107       -2.52047843398892       -3.53123246031043
C           -4.23795953204451       -5.21663733126948       -3.75834697579123
H           -2.51653691186757       -3.91730678247592       -3.56992753501866
H           -3.00340803716658       -4.69154884269533       -2.05924466171358
H           -4.60082330705747       -4.75610224502116       -4.67993053065387
H           -3.65959704958240       -6.10557310364587       -4.01424707925666
H           -5.10416559248236       -5.51955451890158       -3.16570677698003
11
 energy: -14.320714161868 gnorm: 0.004680288733 xtb: 6.7.1 (edcfbbe)
C           -3.39148863170105       -4.23216858454865       -2.98205611009144
C           -4.16464427221673       -2.95151914295320       -2.57677709107718
O           -3.44856024446392       -2.04008032505902       -1.91370539664460
H           -5.07015896360516       -3.28976851201955       -1.97511897682776
H           -4.60904564939894       -2.51919489960670       -3.53210784797856
C           -4.23878399745530       -5.22273139447962       -3.76098447273134
H           -2.52756391033805       -3.91084932144417       -3.56988950454462
H           -3.01270299612891       -4.68304278366226       -2.06101882138797
H           -4.60074820724243       -4.76036286702402       -4.67722077717940
H           -3.65834771157941       -6.10707797341187       -4.01488283579125
H           -5.09974241587011       -5.52171819579093       -3.16607516574587
11
 energy: -14.320737896870 gnorm: 0.002651295459 xtb: 6.7.1 (edcfbbe)
C           -3.38954952913102       -4.23211399282578       -2.98207740601547
C           -4.16353941886232       -2.95074010808247       -2.57649433814069
O           -3.44785918603523       -2.04365380691495       -1.91083963423267
H           -5.07432134135834       -3.29075544671082       -1.98129842192760
H           -4.60923530090891       -2.51881318282402       -3.53291581024775
C           -4.23970885510377       -5.22244823391036       -3.76032243486958
H           -2.52693163581263       -3.91071766694557       -3.57078125784838
H           -3.01063688345746       -4.68235103107390       -2.06141584772756
H           -4.60263797964551       -4.75985110837810       -4.67537392202650
H           -3.65876084500003       -6.10541650550680       -4.01469909791827
H           -5.09860602468477       -5.52165291682722       -3.16361882904551
11
 energy: -14.320748289250 gnorm: 0.001147574655 xtb: 6.7.1 (edcfbbe)
C           -3.38798780115653       -4.23165019365054       -2.98232481742268
C           -4.16277982781277       -2.94932100334427       -2.57607805158772
O           -3.44951711257986       -2.04657875972770       -1.90637804385477
H           -5.07868867501028       -3.29251040864697       -1.98641662677829
H           -4.60613750432163       -2.51632475815354       -3.53555405556479
C           -4.24023927391336       -5.22254764923603       -3.75932849402791
H           -2.52642581634471       -3.91117069905171       -3.57294663219693
H           -3.00826784447243       -4.68205323564481       -2.06215477367540
H           -4.60546914761957       -4.75928387964575       -4.67318291997942
H           -3.65902655165184       -6.10482573216148       -4.01534826358405
H           -5.09724744511701       -5.52224768073718       -3.16012432132804
11
 energy: -14.320750536563 gnorm: 0.000593776480 xtb: 6.7.1 (edcfbbe)
C           -3.38711200857621       -4.23157597617606       -2.98283015228663
C           -4.16155002160428       -2.94863886999177       -2.57599052545218
O           -3.45254196000306       -2.04772699971212       -1.90192446334000
H           -5.08155842800791       -3.29317616415673       -1.99093369878582
H           -4.60254955669783       -2.51337516901396       -3.53699141349270
C           -4.24034352587002       -5.22272512495747       -3.75828891362251
H           -2.52602233322375       -3.91180945719888       -3.57498659062483
H           -3.00622433290131       -4.68186134437119       -2.06276339654174
H           -4.60841877834484       -4.75924980195564       -4.67126783605995
H           -3.65934403585156       -6.10488162813797       -4.01649670492952
H           -5.09612201891921       -5.52349346432821       -3.15736330486411
