11
 energy: -14.320750536579 gnorm: 0.000592854169 xtb: 6.7.1 (edcfbbe)
C           -3.38714457703206       -4.23156344720080       -2.98281094351924
C           -4.16157445246772       -2.94862157602643       -2.57597085253692
O           -3.45255932078190       -2.04771224166314       -1.90190883772273
H           -5.08158262060515       -3.29315303192729       -1.99091021310883
H           -4.60257506305448       -2.51335724323248       -3.53697096086981
C           -4.24038399081655       -5.22270948187403       -3.75826499662777
H           -2.52605529442634       -3.91180247038062       -3.57497094572080
H           -3.00625604740338       -4.68184920390968       -2.06274473143394
H           -4.60846000344178       -4.75923382507388       -4.67124344315028
H           -3.65939002108245       -6.10486947780020       -4.01647327635007
H           -5.09616196103473       -5.52347229159242       -3.15733587570368
