
                                 *****************
                                 * O   R   C   A *
                                 *****************

                                            #,                                       
                                            ###                                      
                                            ####                                     
                                            #####                                    
                                            ######                                   
                                           ########,                                 
                                     ,,################,,,,,                         
                               ,,#################################,,                 
                          ,,##########################################,,             
                       ,#########################################, ''#####,          
                    ,#############################################,,   '####,        
                  ,##################################################,,,,####,       
                ,###########''''           ''''###############################       
              ,#####''   ,,,,##########,,,,          '''####'''          '####       
            ,##' ,,,,###########################,,,                        '##       
           ' ,,###''''                  '''############,,,                           
         ,,##''                                '''############,,,,        ,,,,,,###''
      ,#''                                            '''#######################'''  
     '                                                          ''''####''''         
             ,#######,   #######,   ,#######,      ##                                
            ,#'     '#,  ##    ##  ,#'     '#,    #''#        ######   ,####,        
            ##       ##  ##   ,#'  ##            #'  '#       #        #'  '#        
            ##       ##  #######   ##           ,######,      #####,   #    #        
            '#,     ,#'  ##    ##  '#,     ,#' ,#      #,         ##   #,  ,#        
             '#######'   ##     ##  '#######'  #'      '#     #####' # '####'        



                  #######################################################
                  #                        -***-                        #
                  #          Department of theory and spectroscopy      #
                  #    Directorship and core code : Frank Neese         #
                  #        Max Planck Institute fuer Kohlenforschung    #
                  #                Kaiser Wilhelm Platz 1               #
                  #                 D-45470 Muelheim/Ruhr               #
                  #                      Germany                        #
                  #                                                     #
                  #                  All rights reserved                #
                  #                        -***-                        #
                  #######################################################


                         Program Version 5.0.4 -  RELEASE  -


 With contributions from (in alphabetic order):
   Daniel Aravena         : Magnetic Suceptibility
   Michael Atanasov       : Ab Initio Ligand Field Theory (pilot matlab implementation)
   Alexander A. Auer      : GIAO ZORA, VPT2 properties, NMR spectrum
   Ute Becker             : Parallelization
   Giovanni Bistoni       : ED, misc. LED, open-shell LED, HFLD
   Martin Brehm           : Molecular dynamics
   Dmytro Bykov           : SCF Hessian
   Vijay G. Chilkuri      : MRCI spin determinant printing, contributions to CSF-ICE
   Dipayan Datta          : RHF DLPNO-CCSD density
   Achintya Kumar Dutta   : EOM-CC, STEOM-CC
   Dmitry Ganyushin       : Spin-Orbit,Spin-Spin,Magnetic field MRCI
   Miquel Garcia          : C-PCM and meta-GGA Hessian, CC/C-PCM, Gaussian charge scheme
   Yang Guo               : DLPNO-NEVPT2, F12-NEVPT2, CIM, IAO-localization
   Andreas Hansen         : Spin unrestricted coupled pair/coupled cluster methods
   Benjamin Helmich-Paris : MC-RPA, TRAH-SCF, COSX integrals
   Lee Huntington         : MR-EOM, pCC
   Robert Izsak           : Overlap fitted RIJCOSX, COSX-SCS-MP3, EOM
   Marcus Kettner         : VPT2
   Christian Kollmar      : KDIIS, OOCD, Brueckner-CCSD(T), CCSD density, CASPT2, CASPT2-K
   Simone Kossmann        : Meta GGA functionals, TD-DFT gradient, OOMP2, MP2 Hessian
   Martin Krupicka        : Initial AUTO-CI
   Lucas Lang             : DCDCAS
   Marvin Lechner         : AUTO-CI (C++ implementation), FIC-MRCC
   Dagmar Lenk            : GEPOL surface, SMD
   Dimitrios Liakos       : Extrapolation schemes; Compound Job, initial MDCI parallelization
   Dimitrios Manganas     : Further ROCIS development; embedding schemes
   Dimitrios Pantazis     : SARC Basis sets
   Anastasios Papadopoulos: AUTO-CI, single reference methods and gradients
   Taras Petrenko         : DFT Hessian,TD-DFT gradient, ASA, ECA, R-Raman, ABS, FL, XAS/XES, NRVS
   Peter Pinski           : DLPNO-MP2, DLPNO-MP2 Gradient
   Christoph Reimann      : Effective Core Potentials
   Marius Retegan         : Local ZFS, SOC
   Christoph Riplinger    : Optimizer, TS searches, QM/MM, DLPNO-CCSD(T), (RO)-DLPNO pert. Triples
   Tobias Risthaus        : Range-separated hybrids, TD-DFT gradient, RPA, STAB
   Michael Roemelt        : Original ROCIS implementation
   Masaaki Saitow         : Open-shell DLPNO-CCSD energy and density
   Barbara Sandhoefer     : DKH picture change effects
   Avijit Sen             : IP-ROCIS
   Kantharuban Sivalingam : CASSCF convergence, NEVPT2, FIC-MRCI
   Bernardo de Souza      : ESD, SOC TD-DFT
   Georgi Stoychev        : AutoAux, RI-MP2 NMR, DLPNO-MP2 response
   Willem Van den Heuvel  : Paramagnetic NMR
   Boris Wezisla          : Elementary symmetry handling
   Frank Wennmohs         : Technical directorship


 We gratefully acknowledge several colleagues who have allowed us to
 interface, adapt or use parts of their codes:
   Stefan Grimme, W. Hujo, H. Kruse, P. Pracht,  : VdW corrections, initial TS optimization,
                  C. Bannwarth, S. Ehlert          DFT functionals, gCP, sTDA/sTD-DF
   Ed Valeev, F. Pavosevic, A. Kumar             : LibInt (2-el integral package), F12 methods
   Garnet Chan, S. Sharma, J. Yang, R. Olivares  : DMRG
   Ulf Ekstrom                                   : XCFun DFT Library
   Mihaly Kallay                                 : mrcc  (arbitrary order and MRCC methods)
   Jiri Pittner, Ondrej Demel                    : Mk-CCSD
   Frank Weinhold                                : gennbo (NPA and NBO analysis)
   Christopher J. Cramer and Donald G. Truhlar   : smd solvation model
   Lars Goerigk                                  : TD-DFT with DH, B97 family of functionals
   V. Asgeirsson, H. Jonsson                     : NEB implementation
   FAccTs GmbH                                   : IRC, NEB, NEB-TS, DLPNO-Multilevel, CI-OPT
                                                   MM, QMMM, 2- and 3-layer-ONIOM, Crystal-QMMM,
                                                   LR-CPCM, SF, NACMEs, symmetry and pop. for TD-DFT,
                                                   nearIR, NL-DFT gradient (VV10), updates on ESD,
                                                   ML-optimized integration grids
   S Lehtola, MJT Oliveira, MAL Marques          : LibXC Library
   Liviu Ungur et al                             : ANISO software


 Your calculation uses the libint2 library for the computation of 2-el integrals
 For citations please refer to: http://libint.valeyev.net

 Your ORCA version has been built with support for libXC version: 5.1.0
 For citations please refer to: https://tddft.org/programs/libxc/

 This ORCA versions uses:
   CBLAS   interface :  Fast vector & matrix operations
   LAPACKE interface :  Fast linear algebra routines
   SCALAPACK package :  Parallel linear algebra routines
   Shared memory     :  Shared parallel matrices
   BLAS/LAPACK       :  OpenBLAS 0.3.15  USE64BITINT DYNAMIC_ARCH NO_AFFINITY Haswell SINGLE_THREADED
        Core in use  :  Haswell
   Copyright (c) 2011-2014, The OpenBLAS Project


Your calculation utilizes the atom-pairwise dispersion correction
with the Becke-Johnson damping scheme (D3BJ)
Cite in your paper:
S.Grimme, S.Ehrlich, L.Goerigk, J Comput Chem, (2011), 32, 1456–1465 
S.Grimme, J.Antony, S.Ehrlich and H.Krieg, J.Chem.Phys., 132, (2010), 154104 
   

================================================================================

----- Orbital basis set information -----
Your calculation utilizes the basis: def2-TZVP
   F. Weigend and R. Ahlrichs, Phys. Chem. Chem. Phys. 7, 3297 (2005).

----- AuxJ basis set information -----
Your calculation utilizes the auxiliary basis: def2/J
   F. Weigend, Phys. Chem. Chem. Phys. 8, 1057 (2006).

================================================================================
                                        WARNINGS
                       Please study these warnings very carefully!
================================================================================


WARNING: Geometry Optimization
  ===> : Switching off AutoStart
         For restart on a previous wavefunction, please use MOREAD

INFO   : the flag for use of the SHARK integral package has been found!

================================================================================
                                       INPUT FILE
================================================================================
NAME = inp.inp
|  1> !OPT PBE D3BJ def2-TZVP CPCM(water)
|  2> 
|  3> * xyz -1 1
|  4> C     -3.563687    0.822179   -0.000011
|  5> C     -3.651546   -0.576137   -0.000016
|  6> H     -0.216566    1.180052   -0.000051
|  7> O     -2.271272    2.787792   -0.000021
|  8> C     -2.488953   -1.332381   -0.000032
|  9> H     -4.627224   -1.047261   -0.000006
| 10> C     -1.253145   -0.702851   -0.000044
| 11> Cl    -2.579848   -3.052811   -0.000038
| 12> C     -1.193172    0.696937   -0.000041
| 13> H     -0.332542   -1.274161   -0.000057
| 14> C     -2.338466    1.515969   -0.000024
| 15> H     -4.483950    1.405510    0.000002
| 16> *
| 17> 
| 18>                          ****END OF INPUT****
================================================================================

                       *****************************
                       * Geometry Optimization Run *
                       *****************************

Geometry optimization settings:
Update method            Update   .... BFGS
Choice of coordinates    CoordSys .... Z-matrix Internals
Initial Hessian          InHess   .... Almoef's Model

Convergence Tolerances:
Energy Change            TolE     ....  5.0000e-06 Eh
Max. Gradient            TolMAXG  ....  3.0000e-04 Eh/bohr
RMS Gradient             TolRMSG  ....  1.0000e-04 Eh/bohr
Max. Displacement        TolMAXD  ....  4.0000e-03 bohr
RMS Displacement         TolRMSD  ....  2.0000e-03 bohr
Strict Convergence                ....  False
------------------------------------------------------------------------------
                        ORCA OPTIMIZATION COORDINATE SETUP
------------------------------------------------------------------------------

The optimization will be done in new redundant internal coordinates
Making redundant internal coordinates   ...  (new redundants) done
Evaluating the initial hessian          ...  (Almloef) done
Evaluating the coordinates              ...  done
Calculating the B-matrix                .... done
Calculating the G-matrix                .... done
Diagonalizing the G-matrix              .... done
The first mode is                       ....   24
The number of degrees of freedom        ....   30

    -----------------------------------------------------------------
                    Redundant Internal Coordinates


    -----------------------------------------------------------------
         Definition                    Initial Value    Approx d2E/dq
    -----------------------------------------------------------------
      1. B(C   1,C   0)                  1.4011         0.599890   
      2. B(C   4,C   1)                  1.3869         0.631922   
      3. B(H   5,C   1)                  1.0835         0.368844   
      4. B(C   6,C   4)                  1.3869         0.631921   
      5. B(Cl  7,C   4)                  1.7228         0.412787   
      6. B(C   8,C   6)                  1.4011         0.599893   
      7. B(C   8,H   2)                  1.0896         0.360671   
      8. B(H   9,C   6)                  1.0835         0.368844   
      9. B(C  10,C   8)                  1.4080         0.584782   
     10. B(C  10,O   3)                  1.2736         0.858202   
     11. B(C  10,C   0)                  1.4080         0.584782   
     12. B(H  11,C   0)                  1.0896         0.360672   
     13. A(C   1,C   0,C  10)          123.1163         0.426997   
     14. A(C   1,C   0,H  11)          118.7743         0.351041   
     15. A(C  10,C   0,H  11)          118.1094         0.349532   
     16. A(C   4,C   1,H   5)          121.1824         0.355492   
     17. A(C   0,C   1,H   5)          119.3697         0.352373   
     18. A(C   0,C   1,C   4)          119.4479         0.432980   
     19. A(C   6,C   4,Cl  7)          120.0189         0.423307   
     20. A(C   1,C   4,Cl  7)          120.0189         0.423307   
     21. A(C   1,C   4,C   6)          119.9621         0.437054   
     22. A(C   4,C   6,C   8)          119.4479         0.432980   
     23. A(C   8,C   6,H   9)          119.3697         0.352373   
     24. A(C   4,C   6,H   9)          121.1824         0.355492   
     25. A(C   6,C   8,C  10)          123.1163         0.426997   
     26. A(H   2,C   8,C  10)          118.1093         0.349532   
     27. A(H   2,C   8,C   6)          118.7743         0.351041   
     28. A(C   0,C  10,C   8)          114.9094         0.425051   
     29. A(C   0,C  10,O   3)          122.5453         0.452516   
     30. A(O   3,C  10,C   8)          122.5453         0.452516   
     31. D(H   5,C   1,C   0,C  10)   -180.0000         0.024808   
     32. D(H   5,C   1,C   0,H  11)     -0.0001         0.024808   
     33. D(C   4,C   1,C   0,H  11)   -180.0000         0.024808   
     34. D(C   4,C   1,C   0,C  10)      0.0001         0.024808   
     35. D(Cl  7,C   4,C   1,C   0)    180.0000         0.027698   
     36. D(C   6,C   4,C   1,C   0)     -0.0001         0.027698   
     37. D(C   6,C   4,C   1,H   5)   -180.0000         0.027698   
     38. D(Cl  7,C   4,C   1,H   5)      0.0001         0.027698   
     39. D(H   9,C   6,C   4,Cl  7)     -0.0000         0.027698   
     40. D(H   9,C   6,C   4,C   1)   -180.0000         0.027698   
     41. D(C   8,C   6,C   4,Cl  7)    179.9999         0.027698   
     42. D(C   8,C   6,C   4,C   1)     -0.0001         0.027698   
     43. D(C  10,C   8,C   6,C   4)      0.0001         0.024808   
     44. D(H   2,C   8,C   6,H   9)     -0.0001         0.024808   
     45. D(H   2,C   8,C   6,C   4)   -180.0000         0.024808   
     46. D(C  10,C   8,C   6,H   9)   -180.0000         0.024808   
     47. D(O   3,C  10,C   8,C   6)    180.0000         0.023513   
     48. D(C   0,C  10,C   8,C   6)     -0.0000         0.023513   
     49. D(C   0,C  10,C   8,H   2)   -180.0000         0.023513   
     50. D(C   8,C  10,C   0,H  11)   -180.0000         0.023513   
     51. D(C   8,C  10,C   0,C   1)     -0.0001         0.023513   
     52. D(O   3,C  10,C   8,H   2)      0.0001         0.023513   
     53. D(O   3,C  10,C   0,H  11)      0.0000         0.023513   
     54. D(O   3,C  10,C   0,C   1)    179.9999         0.023513   
    -----------------------------------------------------------------

Number of atoms                         .... 12
Number of degrees of freedom            .... 54

         *************************************************************
         *                GEOMETRY OPTIMIZATION CYCLE   1            *
         *************************************************************
---------------------------------
CARTESIAN COORDINATES (ANGSTROEM)
---------------------------------
  C     -3.563687    0.822179   -0.000011
  C     -3.651546   -0.576137   -0.000016
  H     -0.216566    1.180052   -0.000051
  O     -2.271272    2.787792   -0.000021
  C     -2.488953   -1.332381   -0.000032
  H     -4.627224   -1.047261   -0.000006
  C     -1.253145   -0.702851   -0.000044
  Cl    -2.579848   -3.052811   -0.000038
  C     -1.193172    0.696937   -0.000041
  H     -0.332542   -1.274161   -0.000057
  C     -2.338466    1.515969   -0.000024
  H     -4.483950    1.405510    0.000002

----------------------------
CARTESIAN COORDINATES (A.U.)
----------------------------
  NO LB      ZA    FRAG     MASS         X           Y           Z
   0 C     6.0000    0    12.011   -6.734392    1.553693   -0.000021
   1 C     6.0000    0    12.011   -6.900422   -1.088741   -0.000030
   2 H     1.0000    0     1.008   -0.409250    2.229975   -0.000096
   3 O     8.0000    0    15.999   -4.292082    5.268163   -0.000040
   4 C     6.0000    0    12.011   -4.703440   -2.517835   -0.000060
   5 H     1.0000    0     1.008   -8.744186   -1.979036   -0.000011
   6 C     6.0000    0    12.011   -2.368101   -1.328196   -0.000083
   7 Cl   17.0000    0    35.453   -4.875206   -5.768977   -0.000072
   8 C     6.0000    0    12.011   -2.254768    1.317020   -0.000077
   9 H     1.0000    0     1.008   -0.628413   -2.407815   -0.000108
  10 C     6.0000    0    12.011   -4.419060    2.864766   -0.000045
  11 H     1.0000    0     1.008   -8.473437    2.656029    0.000004

--------------------------------
INTERNAL COORDINATES (ANGSTROEM)
--------------------------------
 C      0   0   0     0.000000000000     0.00000000     0.00000000
 C      1   0   0     1.401073459802     0.00000000     0.00000000
 H      1   2   0     3.366198460336    99.69814202     0.00000000
 O      1   2   3     2.352439371821   150.26986514     0.00000000
 C      2   1   3     1.386912928572   119.44793183     0.00000000
 H      2   1   3     1.083469142689   119.36970744   180.00000362
 C      5   2   1     1.386913636067   119.96214601     0.00000000
 Cl     5   2   1     1.722829441924   120.01893417   179.99998691
 C      3   1   2     1.089568438677    20.21817789     0.00000000
 H      7   5   2     1.083468965812   121.18235107   180.00002637
 C      4   1   2     1.273596787439    30.30113141     0.00000000
 H      1   2   3     1.089568283725   118.77427448   179.99994198

---------------------------
INTERNAL COORDINATES (A.U.)
---------------------------
 C      0   0   0     0.000000000000     0.00000000     0.00000000
 C      1   0   0     2.647645132532     0.00000000     0.00000000
 H      1   2   0     6.361193202463    99.69814202     0.00000000
 O      1   2   3     4.445466159396   150.26986514     0.00000000
 C      2   1   3     2.620885606596   119.44793183     0.00000000
 H      2   1   3     2.047459954237   119.36970744   180.00000362
 C      5   2   1     2.620886943567   119.96214601     0.00000000
 Cl     5   2   1     3.255675820693   120.01893417   179.99998691
 C      3   1   2     2.058985953264    20.21817789     0.00000000
 H      7   5   2     2.047459619988   121.18235107   180.00002637
 C      4   1   2     2.406749133301    30.30113141     0.00000000
 H      1   2   3     2.058985660446   118.77427448   179.99994198

---------------------
BASIS SET INFORMATION
---------------------
There are 4 groups of distinct atoms

 Group   1 Type C   : 11s6p2d1f contracted to 5s3p2d1f pattern {62111/411/11/1}
 Group   2 Type H   : 5s1p contracted to 3s1p pattern {311/1}
 Group   3 Type O   : 11s6p2d1f contracted to 5s3p2d1f pattern {62111/411/11/1}
 Group   4 Type Cl  : 14s9p3d1f contracted to 5s5p2d1f pattern {73211/51111/21/1}

Atom   0C    basis set group =>   1
Atom   1C    basis set group =>   1
Atom   2H    basis set group =>   2
Atom   3O    basis set group =>   3
Atom   4C    basis set group =>   1
Atom   5H    basis set group =>   2
Atom   6C    basis set group =>   1
Atom   7Cl   basis set group =>   4
Atom   8C    basis set group =>   1
Atom   9H    basis set group =>   2
Atom  10C    basis set group =>   1
Atom  11H    basis set group =>   2
---------------------------------
AUXILIARY/J BASIS SET INFORMATION
---------------------------------
There are 4 groups of distinct atoms

 Group   1 Type C   : 12s5p4d2f1g contracted to 6s4p3d1f1g pattern {711111/2111/211/2/1}
 Group   2 Type H   : 5s2p1d contracted to 3s1p1d pattern {311/2/1}
 Group   3 Type O   : 12s5p4d2f1g contracted to 6s4p3d1f1g pattern {711111/2111/211/2/1}
 Group   4 Type Cl  : 14s5p5d2f1g contracted to 8s4p3d1f1g pattern {71111111/2111/311/2/1}

Atom   0C    basis set group =>   1
Atom   1C    basis set group =>   1
Atom   2H    basis set group =>   2
Atom   3O    basis set group =>   3
Atom   4C    basis set group =>   1
Atom   5H    basis set group =>   2
Atom   6C    basis set group =>   1
Atom   7Cl   basis set group =>   4
Atom   8C    basis set group =>   1
Atom   9H    basis set group =>   2
Atom  10C    basis set group =>   1
Atom  11H    basis set group =>   2
------------------------------------------------------------------------------
                           ORCA GTO INTEGRAL CALCULATION
                           -- RI-GTO INTEGRALS CHOSEN --
------------------------------------------------------------------------------
------------------------------------------------------------------------------
                   ___                                                        
                  /   \      - P O W E R E D   B Y -                         
                 /     \                                                     
                 |  |  |   _    _      __       _____    __    __             
                 |  |  |  | |  | |    /  \     |  _  \  |  |  /  |          
                  \  \/   | |  | |   /    \    | | | |  |  | /  /          
                 / \  \   | |__| |  /  /\  \   | |_| |  |  |/  /          
                |  |  |   |  __  | /  /__\  \  |    /   |      \           
                |  |  |   | |  | | |   __   |  |    \   |  |\   \          
                \     /   | |  | | |  |  |  |  | |\  \  |  | \   \       
                 \___/    |_|  |_| |__|  |__|  |_| \__\ |__|  \__/        
                                                                              
                      - O R C A' S   B I G   F R I E N D -                    
                                      &                                       
                       - I N T E G R A L  F E E D E R -                       
                                                                              
 v1 FN, 2020, v2 2021                                                         
------------------------------------------------------------------------------


Reading SHARK input file inp.SHARKINP.tmp ... ok
----------------------
SHARK INTEGRAL PACKAGE
----------------------

Number of atoms                             ...     12
Number of basis functions                   ...    278
Number of shells                            ...    106
Maximum angular momentum                    ...      3
Integral batch strategy                     ... SHARK/LIBINT Hybrid
RI-J (if used) integral strategy            ... SPLIT-RIJ (Revised 2003 algorithm where possible)
Printlevel                                  ...      1
Contraction scheme used                     ... SEGMENTED contraction
Coulomb Range Separation                    ... NOT USED
Exchange Range Separation                   ... NOT USED
Finite Nucleus Model                        ... NOT USED
Auxiliary Coulomb fitting basis             ... AVAILABLE
   # of basis functions in Aux-J            ...    438
   # of shells in Aux-J                     ...    142
   Maximum angular momentum in Aux-J        ...      4
Auxiliary J/K fitting basis                 ... NOT available
Auxiliary Correlation fitting basis         ... NOT available
Auxiliary 'external' fitting basis          ... NOT available
Integral threshold                          ...     2.500000e-11
Primitive cut-off                           ...     2.500000e-12
Primitive pair pre-selection threshold      ...     2.500000e-12

Calculating pre-screening integrals         ... done (  0.2 sec) Dimension = 106
Organizing shell pair data                  ... done (  0.2 sec)
Shell pair information
Total number of shell pairs                 ...      5671
Shell pairs after pre-screening             ...      5189
Total number of primitive shell pairs       ...     18538
Primitive shell pairs kept                  ...     12621
          la=0 lb=0:   1192 shell pairs
          la=1 lb=0:   1434 shell pairs
          la=1 lb=1:    440 shell pairs
          la=2 lb=0:    777 shell pairs
          la=2 lb=1:    456 shell pairs
          la=2 lb=2:    129 shell pairs
          la=3 lb=0:    377 shell pairs
          la=3 lb=1:    226 shell pairs
          la=3 lb=2:    123 shell pairs
          la=3 lb=3:     35 shell pairs

Calculating one electron integrals          ... done (  0.0 sec)
Calculating RI/J V-Matrix + Cholesky decomp.... done (  0.3 sec)
Calculating Nuclear repulsion               ... done (  0.0 sec) ENN=    383.756056066887 Eh

SHARK setup successfully completed in   1.3 seconds

Maximum memory used throughout the entire GTOINT-calculation: 92.4 MB
-------------------------------------------------------------------------------
                                 ORCA SCF
-------------------------------------------------------------------------------

------------
SCF SETTINGS
------------
Hamiltonian:
 Density Functional     Method          .... DFT(GTOs)
 Exchange Functional    Exchange        .... PBE
   PBE kappa parameter   XKappa         ....  0.804000
   PBE mue parameter    XMuePBE         ....  0.219520
 Correlation Functional Correlation     .... PBE
   PBE beta parameter  CBetaPBE         ....  0.066725
 LDA part of GGA corr.  LDAOpt          .... PW91-LDA
 Gradients option       PostSCFGGA      .... off
   Density functional embedding theory  .... OFF
   NL short-range parameter             ....  6.400000
 RI-approximation to the Coulomb term is turned on
   Number of AuxJ basis functions       .... 438


General Settings:
 Integral files         IntName         .... inp
 Hartree-Fock type      HFTyp           .... RHF
 Total Charge           Charge          ....   -1
 Multiplicity           Mult            ....    1
 Number of Electrons    NEL             ....   66
 Basis Dimension        Dim             ....  278
 Nuclear Repulsion      ENuc            ....    383.7560560669 Eh

Convergence Acceleration:
 DIIS                   CNVDIIS         .... on
   Start iteration      DIISMaxIt       ....    12
   Startup error        DIISStart       ....  0.200000
   # of expansion vecs  DIISMaxEq       ....     5
   Bias factor          DIISBfac        ....   1.050
   Max. coefficient     DIISMaxC        ....  10.000
 Trust-Rad. Augm. Hess. CNVTRAH         .... auto
   Auto Start mean grad. ratio tolernc. ....  1.125000
   Auto Start start iteration           ....    20
   Auto Start num. interpolation iter.  ....    10
   Max. Number of Micro iterations      ....    16
   Max. Number of Macro iterations      .... Maxiter - #DIIS iter
   Number of Davidson start vectors     ....     2
   Converg. threshold I  (grad. norm)   ....   1.000e-05
   Converg. threshold II (energy diff.) ....   1.000e-08
   Grad. Scal. Fac. for Micro threshold ....   0.100
   Minimum threshold for Micro iter.    ....   0.010
   NR start threshold (gradient norm)   ....   0.001
   Initial trust radius                 ....   0.400
   Minimum AH scaling param. (alpha)    ....   1.000
   Maximum AH scaling param. (alpha)    .... 1000.000
   Orbital update algorithm             .... Taylor
   White noise on init. David. guess    .... on
   Maximum white noise                  ....   0.010
   Quad. conv. algorithm                .... NR
 SOSCF                  CNVSOSCF        .... on
   Start iteration      SOSCFMaxIt      ....   150
   Startup grad/error   SOSCFStart      ....  0.003300
 Level Shifting         CNVShift        .... on
   Level shift para.    LevelShift      ....    0.2500
   Turn off err/grad.   ShiftErr        ....    0.0010
 Zerner damping         CNVZerner       .... off
 Static damping         CNVDamp         .... on
   Fraction old density DampFac         ....    0.7000
   Max. Damping (<1)    DampMax         ....    0.9800
   Min. Damping (>=0)   DampMin         ....    0.0000
   Turn off err/grad.   DampErr         ....    0.1000
 Fernandez-Rico         CNVRico         .... off

SCF Procedure:
 Maximum # iterations   MaxIter         ....   125
 SCF integral mode      SCFMode         .... Direct
   Integral package                     .... SHARK and LIBINT hybrid scheme
 Reset frequency        DirectResetFreq ....    20
 Integral Threshold     Thresh          ....  2.500e-11 Eh
 Primitive CutOff       TCut            ....  2.500e-12 Eh

Convergence Tolerance:
 Convergence Check Mode ConvCheckMode   .... Total+1el-Energy
 Convergence forced     ConvForced      .... 0
 Energy Change          TolE            ....  1.000e-08 Eh
 1-El. energy change                    ....  1.000e-05 Eh
 Orbital Gradient       TolG            ....  1.000e-05
 Orbital Rotation angle TolX            ....  1.000e-05
 DIIS Error             TolErr          ....  5.000e-07


Diagonalization of the overlap matrix:
Smallest eigenvalue                        ... 1.277e-05
Time for diagonalization                   ...    0.013 sec
Threshold for overlap eigenvalues          ... 1.000e-08
Number of eigenvalues below threshold      ... 0
Time for construction of square roots      ...    0.021 sec
Total time needed                          ...    0.034 sec

Time for model grid setup =    0.376 sec

------------------------------
INITIAL GUESS: MODEL POTENTIAL
------------------------------
Loading Hartree-Fock densities                     ... done
Calculating cut-offs                               ... done
Initializing the effective Hamiltonian             ... done
Setting up the integral package (SHARK)            ... done
Starting the Coulomb interaction                   ... done (   0.3 sec)
Reading the grid                                   ... done
Mapping shells                                     ... done
Starting the XC term evaluation                    ... done (   0.4 sec)
  promolecular density results
     # of electrons  =     64.997712732
     EX              =    -67.377079643
     EC              =     -2.268156409
     EX+EC           =    -69.645236052
Transforming the Hamiltonian                       ... done (   0.0 sec)
Diagonalizing the Hamiltonian                      ... done (   0.0 sec)
Back transforming the eigenvectors                 ... done (   0.0 sec)
Now organizing SCF variables                       ... done
                      ------------------
                      INITIAL GUESS DONE (   1.1 sec)
                      ------------------
-------------------
DFT GRID GENERATION
-------------------

General Integration Accuracy     IntAcc      ... 4.388
Radial Grid Type                 RadialGrid  ... OptM3 with GC (2021)
Angular Grid (max. ang.)         AngularGrid ... 4 (Lebedev-302)
Angular grid pruning method      GridPruning ... 4 (adaptive)
Weight generation scheme         WeightScheme... Becke
Basis function cutoff            BFCut       ... 1.0000e-11
Integration weight cutoff        WCut        ... 1.0000e-14
Angular grids for H and He will be reduced by one unit
Partially contracted basis set               ... off
Rotationally invariant grid construction     ... off

Total number of grid points                  ...    62388
Total number of batches                      ...      982
Average number of points per batch           ...       63
Average number of grid points per atom       ...     5199
Time for grid setup =    1.008 sec


--------------------
CPCM SOLVATION MODEL
--------------------
CPCM parameters:
  Epsilon                                         ...      80.4000
  Refrac                                          ...       1.3300
  Rsolv                                           ...       1.3000
  Surface type                                    ... GAUSSIAN VDW
  Epsilon function type                           ...         CPCM
Radii:
 Radius for C  used is    3.8550 Bohr (=   2.0400 Ang.)
 Radius for H  used is    2.4944 Bohr (=   1.3200 Ang.)
 Radius for O  used is    3.4469 Bohr (=   1.8240 Ang.)
 Radius for Cl used is    3.9684 Bohr (=   2.1000 Ang.)
Calculating surface                               ...        done! (  0.0s)
GEPOL surface points                              ...          721
GEPOL Volume                                      ...     974.0252
GEPOL Surface-area                                ...     551.9774
Calculating surface distance matrix               ...        done! (  0.0s)
Performing Cholesky decomposition & store         ...        done! (  0.1s)
Overall time for CPCM initialization              ...                 0.1s
--------------
SCF ITERATIONS
--------------
ITER       Energy         Delta-E        Max-DP      RMS-DP      [F,P]     Damp
               ***  Starting incremental Fock matrix formation  ***
  0   -765.9078356072   0.000000000000 0.92357874  0.01140482  0.3461554 0.7000
  1   -766.0402290196  -0.132393412397 0.68524501  0.00851027  0.1082530 0.7000
                               ***Turning on DIIS***
  2   -766.0819395126  -0.041710493009 0.19571062  0.00437394  0.0263130 0.0000
  3   -766.1508182984  -0.068878785784 0.67754146  0.00812288  0.0608498 0.0000
  4   -766.1692421470  -0.018423848584 0.09901541  0.00124698  0.0286510 0.0000
  5   -766.1712487020  -0.002006554989 0.05236709  0.00069427  0.0093826 0.0000
                      *** Initiating the SOSCF procedure ***
                           *** Shutting down DIIS ***
                      *** Re-Reading the Fockian *** 
                      *** Removing any level shift *** 
ITER      Energy       Delta-E        Grad      Rot      Max-DP    RMS-DP
  6   -766.17142739  -0.0001786838  0.000850  0.000850  0.022017  0.000334
               *** Restarting incremental Fock matrix formation ***
  7   -766.17142785  -0.0000004664  0.001129  0.007539  0.033090  0.000406
  8   -766.17135351   0.0000743388  0.002956  0.005284  0.023222  0.000283
  9   -766.17143980  -0.0000862835  0.000151  0.000535  0.000806  0.000017
 10   -766.17143804   0.0000017550  0.000266  0.000366  0.000578  0.000013
 11   -766.17144049  -0.0000024460  0.000049  0.000232  0.001546  0.000021
 12   -766.17144031   0.0000001819  0.000104  0.000163  0.000904  0.000012
 13   -766.17144054  -0.0000002321  0.000005  0.000008  0.000274  0.000005
 14   -766.17144053   0.0000000043  0.000006  0.000005  0.000254  0.000005
                  ***Gradient check signals convergence***
              ***Rediagonalizing the Fockian in SOSCF/NRSCF***

               *****************************************************
               *                     SUCCESS                       *
               *           SCF CONVERGED AFTER  15 CYCLES          *
               *****************************************************


----------------
TOTAL SCF ENERGY
----------------

Total Energy       :         -766.17144054 Eh          -20848.58482 eV

Components:
Nuclear Repulsion  :          383.75605607 Eh           10442.53317 eV
Electronic Energy  :        -1149.92749660 Eh          -31291.11799 eV
One Electron Energy:        -1824.31327545 Eh          -49642.08798 eV
Two Electron Energy:          674.38577884 Eh           18350.96999 eV
CPCM Dielectric    :           -0.09323393 Eh              -2.53702 eV

Virial components:
Potential Energy   :        -1530.68298304 Eh          -41652.00152 eV
Kinetic Energy     :          764.51154250 Eh           20803.41670 eV
Virial Ratio       :            2.00217119


DFT components:
N(Alpha)           :       33.000030641340 electrons
N(Beta)            :       33.000030641340 electrons
N(Total)           :       66.000061282680 electrons
E(X)               :      -68.347874433403 Eh       
E(C)               :       -2.306768118364 Eh       
E(XC)              :      -70.654642551767 Eh       
DFET-embed. en.    :        0.000000000000 Eh       
CPCM Solvation Model Properties:
Surface-charge          :            0.97022967
Charge-correction       :           -0.00427699 Eh              -0.11638 eV
Free-energy (cav+disp)  :  This term is not implemented in the current solvation scheme

---------------
SCF CONVERGENCE
---------------

  Last Energy change         ...   -3.6383e-09  Tolerance :   1.0000e-08
  Last MAX-Density change    ...    3.5983e-04  Tolerance :   1.0000e-07
  Last RMS-Density change    ...    6.7043e-06  Tolerance :   5.0000e-09
  Last Orbital Gradient      ...    7.8572e-07  Tolerance :   1.0000e-05
  Last Orbital Rotation      ...    1.3353e-06  Tolerance :   1.0000e-05

             **** THE GBW FILE WAS UPDATED (inp.gbw) ****
             **** DENSITY inp.scfp WAS UPDATED ****
             **** ENERGY FILE WAS UPDATED (inp.en.tmp) ****
             **** THE GBW FILE WAS UPDATED (inp.gbw) ****
             **** DENSITY inp.scfp WAS UPDATED ****
----------------
ORBITAL ENERGIES
----------------

  NO   OCC          E(Eh)            E(eV) 
   0   2.0000    -100.649839     -2738.8213 
   1   2.0000     -18.656991      -507.6825 
   2   2.0000      -9.908084      -269.6127 
   3   2.0000      -9.895559      -269.2719 
   4   2.0000      -9.872183      -268.6358 
   5   2.0000      -9.872163      -268.6352 
   6   2.0000      -9.852167      -268.0911 
   7   2.0000      -9.852144      -268.0905 
   8   2.0000      -9.164079      -249.3673 
   9   2.0000      -6.986864      -190.1222 
  10   2.0000      -6.977444      -189.8659 
  11   2.0000      -6.977342      -189.8631 
  12   2.0000      -0.867194       -23.5975 
  13   2.0000      -0.796817       -21.6825 
  14   2.0000      -0.727148       -19.7867 
  15   2.0000      -0.656147       -17.8547 
  16   2.0000      -0.613481       -16.6937 
  17   2.0000      -0.533805       -14.5256 
  18   2.0000      -0.500984       -13.6325 
  19   2.0000      -0.433447       -11.7947 
  20   2.0000      -0.401868       -10.9354 
  21   2.0000      -0.384358       -10.4589 
  22   2.0000      -0.353408        -9.6167 
  23   2.0000      -0.345815        -9.4101 
  24   2.0000      -0.344331        -9.3697 
  25   2.0000      -0.305592        -8.3156 
  26   2.0000      -0.300305        -8.1717 
  27   2.0000      -0.297238        -8.0883 
  28   2.0000      -0.260868        -7.0986 
  29   2.0000      -0.242908        -6.6099 
  30   2.0000      -0.213814        -5.8182 
  31   2.0000      -0.161642        -4.3985 
  32   2.0000      -0.144423        -3.9299 
  33   0.0000      -0.028342        -0.7712 
  34   0.0000       0.005157         0.1403 
  35   0.0000       0.013829         0.3763 
  36   0.0000       0.069518         1.8917 
  37   0.0000       0.074133         2.0173 
  38   0.0000       0.083386         2.2690 
  39   0.0000       0.101444         2.7604 
  40   0.0000       0.118328         3.2199 
  41   0.0000       0.127210         3.4616 
  42   0.0000       0.145492         3.9590 
  43   0.0000       0.153313         4.1719 
  44   0.0000       0.187509         5.1024 
  45   0.0000       0.200977         5.4689 
  46   0.0000       0.203608         5.5405 
  47   0.0000       0.210833         5.7370 
  48   0.0000       0.224305         6.1036 
  49   0.0000       0.227354         6.1866 
  50   0.0000       0.239721         6.5231 
  51   0.0000       0.248338         6.7576 
  52   0.0000       0.270844         7.3700 
  53   0.0000       0.290965         7.9176 
  54   0.0000       0.297699         8.1008 
  55   0.0000       0.306441         8.3387 
  56   0.0000       0.311764         8.4835 
  57   0.0000       0.330906         9.0044 
  58   0.0000       0.333623         9.0783 
  59   0.0000       0.334288         9.0964 
  60   0.0000       0.342126         9.3097 
  61   0.0000       0.365285         9.9399 
  62   0.0000       0.381571        10.3831 
  63   0.0000       0.385302        10.4846 
  64   0.0000       0.399249        10.8641 
  65   0.0000       0.405177        11.0254 
  66   0.0000       0.407405        11.0860 
  67   0.0000       0.410991        11.1836 
  68   0.0000       0.428981        11.6732 
  69   0.0000       0.447220        12.1695 
  70   0.0000       0.447632        12.1807 
  71   0.0000       0.451565        12.2877 
  72   0.0000       0.477262        12.9870 
  73   0.0000       0.494134        13.4461 
  74   0.0000       0.534216        14.5367 
  75   0.0000       0.535935        14.5835 
  76   0.0000       0.550096        14.9689 
  77   0.0000       0.559283        15.2189 
  78   0.0000       0.588745        16.0206 
  79   0.0000       0.600790        16.3483 
  80   0.0000       0.621472        16.9111 
  81   0.0000       0.629448        17.1281 
  82   0.0000       0.647278        17.6133 
  83   0.0000       0.656887        17.8748 
  84   0.0000       0.709844        19.3158 
  85   0.0000       0.712192        19.3797 
  86   0.0000       0.715266        19.4634 
  87   0.0000       0.715909        19.4809 
  88   0.0000       0.785623        21.3779 
  89   0.0000       0.800828        21.7916 
  90   0.0000       0.807389        21.9702 
  91   0.0000       0.819218        22.2921 
  92   0.0000       0.822180        22.3727 
  93   0.0000       0.835174        22.7262 
  94   0.0000       0.852296        23.1922 
  95   0.0000       0.862747        23.4765 
  96   0.0000       0.877732        23.8843 
  97   0.0000       0.957905        26.0659 
  98   0.0000       0.987104        26.8605 
  99   0.0000       1.000229        27.2176 
 100   0.0000       1.011068        27.5126 
 101   0.0000       1.022945        27.8358 
 102   0.0000       1.036596        28.2072 
 103   0.0000       1.106323        30.1046 
 104   0.0000       1.140792        31.0425 
 105   0.0000       1.158846        31.5338 
 106   0.0000       1.166480        31.7415 
 107   0.0000       1.174579        31.9619 
 108   0.0000       1.179607        32.0987 
 109   0.0000       1.205053        32.7912 
 110   0.0000       1.216390        33.0997 
 111   0.0000       1.247173        33.9373 
 112   0.0000       1.280531        34.8450 
 113   0.0000       1.290967        35.1290 
 114   0.0000       1.348786        36.7023 
 115   0.0000       1.376180        37.4478 
 116   0.0000       1.402152        38.1545 
 117   0.0000       1.404227        38.2110 
 118   0.0000       1.446215        39.3535 
 119   0.0000       1.454245        39.5720 
 120   0.0000       1.458537        39.6888 
 121   0.0000       1.461133        39.7594 
 122   0.0000       1.506313        40.9889 
 123   0.0000       1.524915        41.4950 
 124   0.0000       1.590823        43.2885 
 125   0.0000       1.594013        43.3753 
 126   0.0000       1.608499        43.7695 
 127   0.0000       1.611618        43.8544 
 128   0.0000       1.623728        44.1839 
 129   0.0000       1.659265        45.1509 
 130   0.0000       1.686776        45.8995 
 131   0.0000       1.695868        46.1469 
 132   0.0000       1.725818        46.9619 
 133   0.0000       1.738055        47.2949 
 134   0.0000       1.740627        47.3649 
 135   0.0000       1.763616        47.9904 
 136   0.0000       1.785224        48.5784 
 137   0.0000       1.802921        49.0600 
 138   0.0000       1.822153        49.5833 
 139   0.0000       1.844159        50.1821 
 140   0.0000       1.871648        50.9301 
 141   0.0000       1.894294        51.5464 
 142   0.0000       1.925759        52.4026 
 143   0.0000       1.948967        53.0341 
 144   0.0000       1.959044        53.3083 
 145   0.0000       1.970165        53.6109 
 146   0.0000       2.013374        54.7867 
 147   0.0000       2.022168        55.0260 
 148   0.0000       2.040314        55.5198 
 149   0.0000       2.100841        57.1668 
 150   0.0000       2.112470        57.4832 
 151   0.0000       2.116208        57.5849 
 152   0.0000       2.127806        57.9005 
 153   0.0000       2.133296        58.0499 
 154   0.0000       2.172053        59.1046 
 155   0.0000       2.184135        59.4333 
 156   0.0000       2.185244        59.4635 
 157   0.0000       2.188652        59.5562 
 158   0.0000       2.206361        60.0381 
 159   0.0000       2.238824        60.9215 
 160   0.0000       2.258995        61.4704 
 161   0.0000       2.332962        63.4831 
 162   0.0000       2.367007        64.4095 
 163   0.0000       2.377955        64.7074 
 164   0.0000       2.406238        65.4771 
 165   0.0000       2.452985        66.7491 
 166   0.0000       2.528877        68.8142 
 167   0.0000       2.533780        68.9477 
 168   0.0000       2.540178        69.1218 
 169   0.0000       2.542729        69.1912 
 170   0.0000       2.558487        69.6200 
 171   0.0000       2.607671        70.9583 
 172   0.0000       2.610170        71.0263 
 173   0.0000       2.621801        71.3428 
 174   0.0000       2.646826        72.0238 
 175   0.0000       2.660667        72.4004 
 176   0.0000       2.703993        73.5794 
 177   0.0000       2.715811        73.9010 
 178   0.0000       2.716030        73.9069 
 179   0.0000       2.754197        74.9455 
 180   0.0000       2.761294        75.1386 
 181   0.0000       2.779436        75.6323 
 182   0.0000       2.820062        76.7378 
 183   0.0000       2.846070        77.4455 
 184   0.0000       2.847038        77.4719 
 185   0.0000       2.868819        78.0645 
 186   0.0000       2.869011        78.0698 
 187   0.0000       2.894633        78.7670 
 188   0.0000       2.903239        79.0011 
 189   0.0000       2.971372        80.8552 
 190   0.0000       2.981485        81.1303 
 191   0.0000       2.999049        81.6083 
 192   0.0000       3.044025        82.8321 
 193   0.0000       3.044599        82.8478 
 194   0.0000       3.071417        83.5775 
 195   0.0000       3.088235        84.0351 
 196   0.0000       3.091388        84.1209 
 197   0.0000       3.117608        84.8344 
 198   0.0000       3.131985        85.2256 
 199   0.0000       3.134584        85.2964 
 200   0.0000       3.169514        86.2468 
 201   0.0000       3.183813        86.6360 
 202   0.0000       3.188259        86.7569 
 203   0.0000       3.189382        86.7875 
 204   0.0000       3.277725        89.1914 
 205   0.0000       3.288669        89.4892 
 206   0.0000       3.291529        89.5670 
 207   0.0000       3.293804        89.6290 
 208   0.0000       3.324587        90.4666 
 209   0.0000       3.346743        91.0695 
 210   0.0000       3.364505        91.5528 
 211   0.0000       3.387690        92.1837 
 212   0.0000       3.407514        92.7232 
 213   0.0000       3.424007        93.1720 
 214   0.0000       3.433193        93.4219 
 215   0.0000       3.461120        94.1819 
 216   0.0000       3.461676        94.1970 
 217   0.0000       3.478508        94.6550 
 218   0.0000       3.542490        96.3960 
 219   0.0000       3.609588        98.2219 
 220   0.0000       3.640720        99.0690 
 221   0.0000       3.719006       101.1993 
 222   0.0000       3.734235       101.6137 
 223   0.0000       3.764870       102.4473 
 224   0.0000       3.808574       103.6366 
 225   0.0000       3.852051       104.8196 
 226   0.0000       3.936939       107.1296 
 227   0.0000       3.947537       107.4180 
 228   0.0000       3.965818       107.9154 
 229   0.0000       3.993426       108.6667 
 230   0.0000       4.032471       109.7291 
 231   0.0000       4.075942       110.9120 
 232   0.0000       4.081272       111.0571 
 233   0.0000       4.131800       112.4320 
 234   0.0000       4.138290       112.6086 
 235   0.0000       4.140834       112.6778 
 236   0.0000       4.174332       113.5893 
 237   0.0000       4.186563       113.9222 
 238   0.0000       4.235720       115.2598 
 239   0.0000       4.252977       115.7294 
 240   0.0000       4.435156       120.6867 
 241   0.0000       4.483541       122.0034 
 242   0.0000       4.525538       123.1461 
 243   0.0000       4.533777       123.3703 
 244   0.0000       4.596723       125.0832 
 245   0.0000       4.659250       126.7846 
 246   0.0000       4.779168       130.0478 
 247   0.0000       4.790609       130.3591 
 248   0.0000       4.800821       130.6370 
 249   0.0000       4.873040       132.6022 
 250   0.0000       5.009734       136.3218 
 251   0.0000       5.088517       138.4656 
 252   0.0000       5.150474       140.1515 
 253   0.0000       5.200676       141.5176 
 254   0.0000       5.226421       142.2181 
 255   0.0000       5.310203       144.4980 
 256   0.0000       5.466651       148.7551 
 257   0.0000       5.484754       149.2477 
 258   0.0000       5.674531       154.4118 
 259   0.0000       5.961272       162.2144 
 260   0.0000       6.264650       170.4698 
 261   0.0000       6.309140       171.6804 
 262   0.0000       6.521089       177.4479 
 263   0.0000       6.530510       177.7042 
 264   0.0000       6.730195       183.1379 
 265   0.0000       6.968995       189.6360 
 266   0.0000       6.983353       190.0267 
 267   0.0000      10.557955       287.2966 
 268   0.0000      10.635850       289.4162 
 269   0.0000      11.176287       304.1222 
 270   0.0000      21.744683       591.7029 
 271   0.0000      22.353487       608.2693 
 272   0.0000      22.416415       609.9817 
 273   0.0000      22.429577       610.3398 
 274   0.0000      22.577216       614.3573 
 275   0.0000      23.162525       630.2844 
 276   0.0000      25.780202       701.5150 
 277   0.0000      43.589680      1186.1355 

                    ********************************
                    * MULLIKEN POPULATION ANALYSIS *
                    ********************************

-----------------------
MULLIKEN ATOMIC CHARGES
-----------------------
   0 C :   -0.256661
   1 C :   -0.232016
   2 H :    0.077943
   3 O :   -0.602692
   4 C :    0.176901
   5 H :    0.119039
   6 C :   -0.232269
   7 Cl:   -0.191035
   8 C :   -0.256290
   9 H :    0.119183
  10 C :    0.199977
  11 H :    0.077922
Sum of atomic charges:   -1.0000000

--------------------------------
MULLIKEN REDUCED ORBITAL CHARGES
--------------------------------
  0 C s       :     3.266086  s :     3.266086
      pz      :     1.075214  p :     2.909066
      px      :     0.937914
      py      :     0.895938
      dz2     :     0.003304  d :     0.074745
      dxz     :     0.007652
      dyz     :     0.016784
      dx2y2   :     0.019086
      dxy     :     0.027920
      f0      :     0.001373  f :     0.006763
      f+1     :     0.000554
      f-1     :     0.000543
      f+2     :     0.000836
      f-2     :     0.000391
      f+3     :     0.002136
      f-3     :     0.000931
  1 C s       :     3.242275  s :     3.242275
      pz      :     1.002953  p :     2.890345
      px      :     0.923720
      py      :     0.963671
      dz2     :     0.004885  d :     0.092388
      dxz     :     0.009678
      dyz     :     0.023780
      dx2y2   :     0.019449
      dxy     :     0.034596
      f0      :     0.001427  f :     0.007008
      f+1     :     0.000611
      f-1     :     0.000506
      f+2     :     0.000910
      f-2     :     0.000626
      f+3     :     0.002034
      f-3     :     0.000894
  2 H s       :     0.899940  s :     0.899940
      pz      :     0.005745  p :     0.022118
      px      :     0.010954
      py      :     0.005419
  3 O s       :     3.752138  s :     3.752138
      pz      :     1.606087  p :     4.822843
      px      :     1.839819
      py      :     1.376936
      dz2     :     0.002626  d :     0.026194
      dxz     :     0.000091
      dyz     :     0.008109
      dx2y2   :     0.008540
      dxy     :     0.006828
      f0      :     0.000159  f :     0.001518
      f+1     :     0.000022
      f-1     :     0.000182
      f+2     :     0.000318
      f-2     :     0.000009
      f+3     :     0.000418
      f-3     :     0.000409
  4 C s       :     3.069498  s :     3.069498
      pz      :     1.099444  p :     2.590685
      px      :     0.770059
      py      :     0.721181
      dz2     :     0.007681  d :     0.152763
      dxz     :     0.026378
      dyz     :     0.026081
      dx2y2   :     0.054171
      dxy     :     0.038452
      f0      :     0.001861  f :     0.010153
      f+1     :     0.000500
      f-1     :     0.000936
      f+2     :     0.000882
      f-2     :     0.001135
      f+3     :     0.003620
      f-3     :     0.001219
  5 H s       :     0.859043  s :     0.859043
      pz      :     0.005139  p :     0.021919
      px      :     0.011174
      py      :     0.005606
  6 C s       :     3.242184  s :     3.242184
      pz      :     1.002947  p :     2.890606
      px      :     0.922758
      py      :     0.964901
      dz2     :     0.004888  d :     0.092468
      dxz     :     0.011983
      dyz     :     0.021478
      dx2y2   :     0.016086
      dxy     :     0.038034
      f0      :     0.001427  f :     0.007010
      f+1     :     0.000598
      f-1     :     0.000520
      f+2     :     0.001143
      f-2     :     0.000393
      f+3     :     0.002091
      f-3     :     0.000838
  7 Cls       :     5.876438  s :     5.876438
      pz      :     3.934747  p :    11.234999
      px      :     3.982818
      py      :     3.317434
      dz2     :     0.007568  d :     0.073730
      dxz     :     0.000595
      dyz     :     0.029565
      dx2y2   :     0.022443
      dxy     :     0.013559
      f0      :     0.000674  f :     0.005869
      f+1     :     0.000090
      f-1     :     0.001060
      f+2     :     0.000984
      f-2     :     0.000045
      f+3     :     0.001196
      f-3     :     0.001820
  8 C s       :     3.265751  s :     3.265751
      pz      :     1.075182  p :     2.909032
      px      :     0.934877
      py      :     0.898973
      dz2     :     0.003298  d :     0.074744
      dxz     :     0.006423
      dyz     :     0.018018
      dx2y2   :     0.020267
      dxy     :     0.026739
      f0      :     0.001373  f :     0.006763
      f+1     :     0.000560
      f-1     :     0.000536
      f+2     :     0.000730
      f-2     :     0.000498
      f+3     :     0.002050
      f-3     :     0.001017
  9 H s       :     0.858901  s :     0.858901
      pz      :     0.005138  p :     0.021916
      px      :     0.010368
      py      :     0.006410
 10 C s       :     2.924896  s :     2.924896
      pz      :     0.882277  p :     2.708167
      px      :     0.919140
      py      :     0.906750
      dz2     :     0.007994  d :     0.150372
      dxz     :     0.017506
      dyz     :     0.052572
      dx2y2   :     0.041818
      dxy     :     0.030482
      f0      :     0.002089  f :     0.016587
      f+1     :     0.000595
      f-1     :     0.001174
      f+2     :     0.002364
      f-2     :     0.001046
      f+3     :     0.007028
      f-3     :     0.002292
 11 H s       :     0.899964  s :     0.899964
      pz      :     0.005744  p :     0.022115
      px      :     0.010147
      py      :     0.006224


                     *******************************
                     * LOEWDIN POPULATION ANALYSIS *
                     *******************************

----------------------
LOEWDIN ATOMIC CHARGES
----------------------
   0 C :   -0.177420
   1 C :   -0.194551
   2 H :    0.136178
   3 O :   -0.163506
   4 C :   -0.520785
   5 H :    0.143944
   6 C :   -0.194502
   7 Cl:    0.342462
   8 C :   -0.177371
   9 H :    0.143956
  10 C :   -0.474589
  11 H :    0.136183

-------------------------------
LOEWDIN REDUCED ORBITAL CHARGES
-------------------------------
  0 C s       :     2.777551  s :     2.777551
      pz      :     0.958716  p :     2.992408
      px      :     0.997936
      py      :     1.035756
      dz2     :     0.028723  d :     0.367215
      dxz     :     0.026636
      dyz     :     0.056808
      dx2y2   :     0.109926
      dxy     :     0.145121
      f0      :     0.003022  f :     0.040246
      f+1     :     0.003419
      f-1     :     0.004033
      f+2     :     0.005713
      f-2     :     0.002433
      f+3     :     0.013870
      f-3     :     0.007755
  1 C s       :     2.772998  s :     2.772998
      pz      :     0.916436  p :     2.977373
      px      :     0.999489
      py      :     1.061448
      dz2     :     0.026326  d :     0.400882
      dxz     :     0.031557
      dyz     :     0.084019
      dx2y2   :     0.118541
      dxy     :     0.140438
      f0      :     0.002900  f :     0.043298
      f+1     :     0.003556
      f-1     :     0.004097
      f+2     :     0.006362
      f-2     :     0.004720
      f+3     :     0.013673
      f-3     :     0.007991
  2 H s       :     0.803869  s :     0.803869
      pz      :     0.015613  p :     0.059952
      px      :     0.029208
      py      :     0.015131
  3 O s       :     3.424407  s :     3.424407
      pz      :     1.512494  p :     4.672209
      px      :     1.694086
      py      :     1.465629
      dz2     :     0.006516  d :     0.061793
      dxz     :     0.000106
      dyz     :     0.015168
      dx2y2   :     0.020206
      dxy     :     0.019797
      f0      :     0.000460  f :     0.005098
      f+1     :     0.000111
      f-1     :     0.000748
      f+2     :     0.000750
      f-2     :     0.000021
      f+3     :     0.001603
      f-3     :     0.001404
  4 C s       :     2.776072  s :     2.776072
      pz      :     1.006573  p :     3.047812
      px      :     1.106630
      py      :     0.934608
      dz2     :     0.043245  d :     0.631554
      dxz     :     0.086693
      dyz     :     0.092424
      dx2y2   :     0.229688
      dxy     :     0.179504
      f0      :     0.004606  f :     0.065347
      f+1     :     0.004627
      f-1     :     0.005578
      f+2     :     0.006744
      f-2     :     0.007856
      f+3     :     0.024664
      f-3     :     0.011271
  5 H s       :     0.795605  s :     0.795605
      pz      :     0.014405  p :     0.060451
      px      :     0.030408
      py      :     0.015638
  6 C s       :     2.772998  s :     2.772998
      pz      :     0.916416  p :     2.977342
      px      :     1.005324
      py      :     1.055602
      dz2     :     0.026324  d :     0.400864
      dxz     :     0.040211
      dyz     :     0.075357
      dx2y2   :     0.109031
      dxy     :     0.149941
      f0      :     0.002900  f :     0.043298
      f+1     :     0.003678
      f-1     :     0.003975
      f+2     :     0.008020
      f-2     :     0.003061
      f+3     :     0.013692
      f-3     :     0.007972
  7 Cls       :     5.534479  s :     5.534479
      pz      :     3.855160  p :    10.991229
      px      :     3.847958
      py      :     3.288111
      dz2     :     0.011947  d :     0.119200
      dxz     :     0.000592
      dyz     :     0.046104
      dx2y2   :     0.034466
      dxy     :     0.026091
      f0      :     0.001584  f :     0.012629
      f+1     :     0.000212
      f-1     :     0.001874
      f+2     :     0.002485
      f-2     :     0.000053
      f+3     :     0.003157
      f-3     :     0.003263
  8 C s       :     2.777543  s :     2.777543
      pz      :     0.958705  p :     2.992372
      px      :     0.991668
      py      :     1.041998
      dz2     :     0.028721  d :     0.367210
      dxz     :     0.021302
      dyz     :     0.062138
      dx2y2   :     0.120056
      dxy     :     0.134993
      f0      :     0.003022  f :     0.040246
      f+1     :     0.003293
      f-1     :     0.004158
      f+2     :     0.004876
      f-2     :     0.003270
      f+3     :     0.013674
      f-3     :     0.007953
  9 H s       :     0.795594  s :     0.795594
      pz      :     0.014405  p :     0.060450
      px      :     0.028303
      py      :     0.017742
 10 C s       :     2.724114  s :     2.724114
      pz      :     0.822975  p :     2.832681
      px      :     1.058432
      py      :     0.951274
      dz2     :     0.048731  d :     0.808520
      dxz     :     0.064669
      dyz     :     0.180827
      dx2y2   :     0.223272
      dxy     :     0.291023
      f0      :     0.006013  f :     0.109275
      f+1     :     0.004313
      f-1     :     0.009535
      f+2     :     0.019944
      f-2     :     0.007060
      f+3     :     0.044553
      f-3     :     0.017857
 11 H s       :     0.803861  s :     0.803861
      pz      :     0.015613  p :     0.059956
      px      :     0.027182
      py      :     0.017160


                      *****************************
                      * MAYER POPULATION ANALYSIS *
                      *****************************

  NA   - Mulliken gross atomic population
  ZA   - Total nuclear charge
  QA   - Mulliken gross atomic charge
  VA   - Mayer's total valence
  BVA  - Mayer's bonded valence
  FA   - Mayer's free valence

  ATOM       NA         ZA         QA         VA         BVA        FA
  0 C      6.2567     6.0000    -0.2567     3.6827     3.6827     0.0000
  1 C      6.2320     6.0000    -0.2320     3.9124     3.9124     0.0000
  2 H      0.9221     1.0000     0.0779     1.0010     1.0010    -0.0000
  3 O      8.6027     8.0000    -0.6027     1.9190     1.9190    -0.0000
  4 C      5.8231     6.0000     0.1769     3.5764     3.5764     0.0000
  5 H      0.8810     1.0000     0.1190     0.9780     0.9780    -0.0000
  6 C      6.2323     6.0000    -0.2323     3.9129     3.9129    -0.0000
  7 Cl    17.1910    17.0000    -0.1910     1.1574     1.1574    -0.0000
  8 C      6.2563     6.0000    -0.2563     3.6818     3.6818    -0.0000
  9 H      0.8808     1.0000     0.1192     0.9779     0.9779     0.0000
 10 C      5.8000     6.0000     0.2000     4.2085     4.2085    -0.0000
 11 H      0.9221     1.0000     0.0779     1.0011     1.0011     0.0000

  Mayer bond orders larger than 0.100000
B(  0-C ,  1-C ) :   1.3722 B(  0-C , 10-C ) :   1.1916 B(  0-C , 11-H ) :   0.9839 
B(  1-C ,  4-C ) :   1.3075 B(  1-C ,  5-H ) :   0.9688 B(  1-C ,  7-Cl) :   0.1083 
B(  2-H ,  8-C ) :   0.9839 B(  3-O , 10-C ) :   1.7441 B(  4-C ,  6-C ) :   1.3078 
B(  4-C ,  7-Cl) :   0.8433 B(  6-C ,  7-Cl) :   0.1083 B(  6-C ,  8-C ) :   1.3722 
B(  6-C ,  9-H ) :   0.9687 B(  8-C , 10-C ) :   1.1912 

-------
TIMINGS
-------

Total SCF time: 0 days 0 hours 0 min 59 sec 

Total time                  ....      59.338 sec
Sum of individual times     ....      54.676 sec  ( 92.1%)

Fock matrix formation       ....      50.730 sec  ( 85.5%)
  Split-RI-J                ....       8.383 sec  ( 16.5% of F)
  XC integration            ....      25.627 sec  ( 50.5% of F)
    Basis function eval.    ....       6.345 sec  ( 24.8% of XC)
    Density eval.           ....       5.371 sec  ( 21.0% of XC)
    XC-Functional eval.     ....       0.854 sec  (  3.3% of XC)
    XC-Potential eval.      ....       7.030 sec  ( 27.4% of XC)
Diagonalization             ....       0.104 sec  (  0.2%)
Density matrix formation    ....       0.013 sec  (  0.0%)
Population analysis         ....       0.164 sec  (  0.3%)
Initial guess               ....       0.716 sec  (  1.2%)
Orbital Transformation      ....       0.000 sec  (  0.0%)
Orbital Orthonormalization  ....       0.000 sec  (  0.0%)
DIIS solution               ....       0.375 sec  (  0.6%)
SOSCF solution              ....       1.190 sec  (  2.0%)
Grid generation             ....       1.384 sec  (  2.3%)

Maximum memory used throughout the entire SCF-calculation: 113.3 MB


-------------------------------------------------------------------------------
                          DFT DISPERSION CORRECTION                            
                                                                               
                              DFTD3 V3.1  Rev 1                                
                          USING Becke-Johnson damping                          
-------------------------------------------------------------------------------
The PBE functional is recognized
Active option DFTDOPT                   ...         4   

molecular C6(AA) [au] = 2512.122480 


            DFT-D V3
 parameters
 s6 scaling factor         :     1.0000 
 a1 scaling factor         :     0.4289 
 s8 scaling factor         :     0.7875 
 a2 scaling factor         :     4.4407 
 ad hoc parameters k1-k3   :    16.0000     1.3333    -4.0000 

 Edisp/kcal,au: -8.468688342371  -0.013495712478 
 E6   /kcal   :  -5.768128488 
 E8   /kcal   :  -2.700559855 
 % E8         :  31.888761821 

-------------------------   ----------------
Dispersion correction           -0.013495712
-------------------------   ----------------


-------------------------   --------------------
FINAL SINGLE POINT ENERGY      -766.184936249870
-------------------------   --------------------

------------------------------------------------------------------------------
                         ORCA SCF GRADIENT CALCULATION
------------------------------------------------------------------------------

Gradient of the Kohn-Sham DFT energy:
Kohn-Sham wavefunction type      ... RKS
Hartree-Fock exchange scaling    ...    0.000
Number of operators              ...    1
Number of atoms                  ...   12
Basis set dimensions             ...  278
Integral neglect threshold       ... 2.5e-11
Integral primitive cutoff        ... 2.5e-12
SHARK Integral package           ... ON

Nuc. rep. gradient       (SHARK) ... done (  0.0 sec)
HCore & Overlap gradient (SHARK) ... done (  0.3 sec)
RI-J gradient            (SHARK) ... done (  3.5 sec)
Exchange-correlation gradient    ... done
Dispersion correction            ... done

------------------
CARTESIAN GRADIENT
------------------

   1   C   :    0.020287271    0.019518714   -0.000000061
   2   C   :    0.003038112   -0.016496823   -0.000000209
   3   H   :   -0.002777188   -0.001426705    0.000000044
   4   O   :   -0.001353954   -0.024230035   -0.000000087
   5   C   :   -0.000255629   -0.003441113    0.000000003
   6   H   :    0.004333587    0.004073131   -0.000000020
   7   C   :   -0.004717131   -0.016087590    0.000000113
   8   Cl  :    0.001021193    0.019110316    0.000000049
   9   C   :   -0.018084533    0.021353152    0.000000134
  10   H   :   -0.003870085    0.004524816    0.000000055
  11   C   :   -0.000208558   -0.005110526    0.000000031
  12   H   :    0.002586915   -0.001787338   -0.000000052

Difference to translation invariance:
           :    0.0000000000   -0.0000000001   -0.0000000000

Difference to rotation invariance:
           :   -0.0000000341    0.0000001022    0.0001053269

Norm of the cartesian gradient     ...    0.0567599986
RMS gradient                       ...    0.0094599998
MAX gradient                       ...    0.0242300351

-------
TIMINGS
-------

Total SCF gradient time            ...       14.072 sec

One electron gradient       ....       0.327 sec  (  2.3%)
RI-J Coulomb gradient       ....       3.511 sec  ( 25.0%)
XC gradient                 ....       8.379 sec  ( 59.5%)
CPCM gradient               ....       0.562 sec  (  4.0%)
   A-Matrix (El+Nuc)        ....       0.030 sec  (  0.2%)
   Potential                ....       0.531 sec  (  3.8%)

Maximum memory used throughout the entire SCFGRAD-calculation: 115.4 MB
------------------------------------------------------------------------------
                         ORCA GEOMETRY RELAXATION STEP
------------------------------------------------------------------------------

Reading the OPT-File                    .... done
Getting information on internals        .... done
Copying old internal coords+grads       .... done
Making the new internal coordinates     .... (new redundants).... done
Validating the new internal coordinates .... (new redundants).... done
Calculating the B-matrix                .... done
Calculating the G,G- and P matrices     .... done
Transforming gradient to internals      .... done
Projecting the internal gradient        .... done
Number of atoms                         ....  12
Number of internal coordinates          ....  54
Current Energy                          ....  -766.184936250 Eh
Current gradient norm                   ....     0.056759999 Eh/bohr
Maximum allowed component of the step   ....  0.300
Current trust radius                    ....  0.300
Evaluating the initial hessian          ....  (Almloef) done
Projecting the Hessian                  .... done
Forming the augmented Hessian           .... done
Diagonalizing the augmented Hessian     .... done
Last element of RFO vector              ....  0.995883509
Lowest eigenvalues of augmented Hessian:
 -0.004582730  0.023512840  0.023870725  0.024140604  0.024253484
Length of the computed step             ....  0.091017029
The final length of the internal step   ....  0.091017029
Converting the step to cartesian space:
 Initial RMS(Int)=    0.0123858488
Transforming coordinates:
 Iter   0:  RMS(Cart)=    0.0200467963 RMS(Int)=    1.7101111629
 Iter   1:  RMS(Cart)=    0.0000474838 RMS(Int)=    0.0000341885
 Iter   2:  RMS(Cart)=    0.0000006288 RMS(Int)=    0.0000003810
 Iter   3:  RMS(Cart)=    0.0000000074 RMS(Int)=    0.0000000044
done
Storing new coordinates                 .... done

                                .--------------------.
          ----------------------|Geometry convergence|-------------------------
          Item                value                   Tolerance       Converged
          ---------------------------------------------------------------------
          RMS gradient        0.0070521904            0.0001000000      NO
          MAX gradient        0.0250928748            0.0003000000      NO
          RMS step            0.0123858488            0.0020000000      NO
          MAX step            0.0458527780            0.0040000000      NO
          ........................................................
          Max(Bonds)      0.0243      Max(Angles)    0.46
          Max(Dihed)        0.00      Max(Improp)    0.00
          ---------------------------------------------------------------------

The optimization has not yet converged - more geometry cycles are needed


    ---------------------------------------------------------------------------
                         Redundant Internal Coordinates
                            (Angstroem and degrees)

        Definition                    Value    dE/dq     Step     New-Value
    ----------------------------------------------------------------------------
     1. B(C   1,C   0)                1.4011  0.004184 -0.0037    1.3974   
     2. B(C   4,C   1)                1.3869 -0.012210  0.0099    1.3969   
     3. B(H   5,C   1)                1.0835 -0.005674  0.0080    1.0915   
     4. B(C   6,C   4)                1.3869 -0.012151  0.0099    1.3968   
     5. B(Cl  7,C   4)                1.7228 -0.019138  0.0243    1.7471   
     6. B(C   8,C   6)                1.4011  0.004176 -0.0037    1.3974   
     7. B(C   8,H   2)                1.0896 -0.003122  0.0045    1.0941   
     8. B(H   9,C   6)                1.0835 -0.005674  0.0080    1.0915   
     9. B(C  10,C   8)                1.4080 -0.025025  0.0227    1.4307   
    10. B(C  10,O   3)                1.2736 -0.024268  0.0149    1.2885   
    11. B(C  10,C   0)                1.4080 -0.025093  0.0228    1.4308   
    12. B(H  11,C   0)                1.0896 -0.003142  0.0046    1.0941   
    13. A(C   1,C   0,C  10)          123.12  0.001109   -0.12    122.99   
    14. A(C   1,C   0,H  11)          118.77 -0.000680    0.08    118.86   
    15. A(C  10,C   0,H  11)          118.11 -0.000429    0.04    118.15   
    16. A(C   4,C   1,H   5)          121.18  0.003176   -0.46    120.72   
    17. A(C   0,C   1,H   5)          119.37 -0.000481    0.12    119.49   
    18. A(C   0,C   1,C   4)          119.45 -0.002695    0.33    119.78   
    19. A(C   6,C   4,Cl  7)          120.02  0.000187    0.01    120.03   
    20. A(C   1,C   4,Cl  7)          120.02  0.000214    0.01    120.03   
    21. A(C   1,C   4,C   6)          119.96 -0.000400   -0.02    119.94   
    22. A(C   4,C   6,C   8)          119.45 -0.002721    0.34    119.79   
    23. A(C   8,C   6,H   9)          119.37 -0.000484    0.13    119.49   
    24. A(C   4,C   6,H   9)          121.18  0.003205   -0.46    120.72   
    25. A(C   6,C   8,C  10)          123.12  0.001110   -0.12    122.99   
    26. A(H   2,C   8,C  10)          118.11 -0.000503    0.05    118.16   
    27. A(H   2,C   8,C   6)          118.77 -0.000606    0.07    118.84   
    28. A(C   0,C  10,C   8)          114.91  0.003597   -0.40    114.51   
    29. A(C   0,C  10,O   3)          122.55 -0.001884    0.21    122.76   
    30. A(O   3,C  10,C   8)          122.55 -0.001713    0.19    122.74   
    31. D(H   5,C   1,C   0,C  10)   -180.00  0.000000   -0.00   -180.00   
    32. D(H   5,C   1,C   0,H  11)     -0.00 -0.000000    0.00     -0.00   
    33. D(C   4,C   1,C   0,H  11)   -180.00  0.000000   -0.00   -180.00   
    34. D(C   4,C   1,C   0,C  10)      0.00  0.000000   -0.00      0.00   
    35. D(Cl  7,C   4,C   1,C   0)    180.00 -0.000000    0.00    180.00   
    36. D(C   6,C   4,C   1,C   0)     -0.00 -0.000000    0.00     -0.00   
    37. D(C   6,C   4,C   1,H   5)   -180.00  0.000000   -0.00   -180.00   
    38. D(Cl  7,C   4,C   1,H   5)      0.00  0.000000   -0.00      0.00   
    39. D(H   9,C   6,C   4,Cl  7)     -0.00  0.000000    0.00     -0.00   
    40. D(H   9,C   6,C   4,C   1)   -180.00  0.000000   -0.00   -180.00   
    41. D(C   8,C   6,C   4,Cl  7)    180.00 -0.000000    0.00    180.00   
    42. D(C   8,C   6,C   4,C   1)     -0.00 -0.000000    0.00     -0.00   
    43. D(C  10,C   8,C   6,C   4)      0.00  0.000000   -0.00      0.00   
    44. D(H   2,C   8,C   6,H   9)     -0.00 -0.000000    0.00     -0.00   
    45. D(H   2,C   8,C   6,C   4)   -180.00  0.000000   -0.00   -180.00   
    46. D(C  10,C   8,C   6,H   9)   -180.00  0.000000   -0.00   -180.00   
    47. D(O   3,C  10,C   8,C   6)    180.00 -0.000000    0.00    180.00   
    48. D(C   0,C  10,C   8,C   6)     -0.00 -0.000000    0.00      0.00   
    49. D(C   0,C  10,C   8,H   2)   -180.00  0.000000   -0.00   -180.00   
    50. D(C   8,C  10,C   0,H  11)   -180.00  0.000000   -0.00   -180.00   
    51. D(C   8,C  10,C   0,C   1)     -0.00 -0.000000    0.00     -0.00   
    52. D(O   3,C  10,C   8,H   2)      0.00  0.000000   -0.00     -0.00   
    53. D(O   3,C  10,C   0,H  11)      0.00  0.000000    0.00      0.00   
    54. D(O   3,C  10,C   0,C   1)    180.00 -0.000000    0.00    180.00   
    ----------------------------------------------------------------------------

         *************************************************************
         *                GEOMETRY OPTIMIZATION CYCLE   2            *
         *************************************************************
---------------------------------
CARTESIAN COORDINATES (ANGSTROEM)
---------------------------------
  C     -3.580192    0.822326   -0.000011
  C     -3.659868   -0.572815   -0.000016
  H     -0.194030    1.176197   -0.000051
  O     -2.269480    2.818404   -0.000020
  C     -2.489044   -1.334630   -0.000032
  H     -4.639019   -1.055159   -0.000005
  C     -1.244564   -0.700341   -0.000045
  Cl    -2.581198   -3.079292   -0.000038
  C     -1.176834    0.695434   -0.000041
  H     -0.321679   -1.283160   -0.000058
  C     -2.337671    1.531729   -0.000024
  H     -4.506791    1.404144    0.000002

----------------------------
CARTESIAN COORDINATES (A.U.)
----------------------------
  NO LB      ZA    FRAG     MASS         X           Y           Z
   0 C     6.0000    0    12.011   -6.765582    1.553971   -0.000022
   1 C     6.0000    0    12.011   -6.916149   -1.082464   -0.000030
   2 H     1.0000    0     1.008   -0.366664    2.222690   -0.000096
   3 O     8.0000    0    15.999   -4.288696    5.326012   -0.000039
   4 C     6.0000    0    12.011   -4.703611   -2.522086   -0.000061
   5 H     1.0000    0     1.008   -8.766475   -1.993962   -0.000010
   6 C     6.0000    0    12.011   -2.351885   -1.323454   -0.000084
   7 Cl   17.0000    0    35.453   -4.877757   -5.819018   -0.000071
   8 C     6.0000    0    12.011   -2.223894    1.314180   -0.000077
   9 H     1.0000    0     1.008   -0.607885   -2.424821   -0.000109
  10 C     6.0000    0    12.011   -4.417559    2.894548   -0.000046
  11 H     1.0000    0     1.008   -8.516601    2.653448    0.000003

--------------------------------
INTERNAL COORDINATES (ANGSTROEM)
--------------------------------
 C      0   0   0     0.000000000000     0.00000000     0.00000000
 C      1   0   0     1.397414258529     0.00000000     0.00000000
 H      1   2   0     3.404601867816    99.23464496     0.00000000
 O      1   2   3     2.387947663171   149.97795619     0.00000000
 C      2   1   3     1.396850546392   119.78206864     0.00000000
 H      2   1   3     1.091509046928   119.49413058   179.99998242
 C      5   2   1     1.396801042767   119.94222503     0.00000000
 Cl     5   2   1     1.747093686962   120.02708658   180.00000382
 C      3   1   2     1.094091289539    20.10065938     0.00000000
 H      7   5   2     1.091509887154   120.71974270   180.00000782
 C      4   1   2     1.288481068425    30.25690970     0.00000000
 H      1   2   3     1.094120234020   118.85641591   180.00000085

---------------------------
INTERNAL COORDINATES (A.U.)
---------------------------
 C      0   0   0     0.000000000000     0.00000000     0.00000000
 C      1   0   0     2.640730244256     0.00000000     0.00000000
 H      1   2   0     6.433765125209    99.23464496     0.00000000
 O      1   2   3     4.512567105530   149.97795619     0.00000000
 C      2   1   3     2.639664982699   119.78206864     0.00000000
 H      2   1   3     2.062653171392   119.49413058   179.99998242
 C      5   2   1     2.639571434406   119.94222503     0.00000000
 Cl     5   2   1     3.301528598661   120.02708658   180.00000382
 C      3   1   2     2.067532902737    20.10065938     0.00000000
 H      7   5   2     2.062654759187   120.71974270   180.00000782
 C      4   1   2     2.434876348066    30.25690970     0.00000000
 H      1   2   3     2.067587599880   118.85641591   180.00000085

------------------------------------------------------------------------------
                   ___                                                        
                  /   \      - P O W E R E D   B Y -                         
                 /     \                                                     
                 |  |  |   _    _      __       _____    __    __             
                 |  |  |  | |  | |    /  \     |  _  \  |  |  /  |          
                  \  \/   | |  | |   /    \    | | | |  |  | /  /          
                 / \  \   | |__| |  /  /\  \   | |_| |  |  |/  /          
                |  |  |   |  __  | /  /__\  \  |    /   |      \           
                |  |  |   | |  | | |   __   |  |    \   |  |\   \          
                \     /   | |  | | |  |  |  |  | |\  \  |  | \   \       
                 \___/    |_|  |_| |__|  |__|  |_| \__\ |__|  \__/        
[...]
 227   0.0000       3.917265       106.5942 
 228   0.0000       3.951994       107.5392 
 229   0.0000       3.961598       107.8006 
 230   0.0000       4.002382       108.9103 
 231   0.0000       4.034593       109.7869 
 232   0.0000       4.040028       109.9348 
 233   0.0000       4.087563       111.2283 
 234   0.0000       4.116638       112.0194 
 235   0.0000       4.124497       112.2333 
 236   0.0000       4.158232       113.1512 
 237   0.0000       4.176350       113.6443 
 238   0.0000       4.220125       114.8354 
 239   0.0000       4.231108       115.1343 
 240   0.0000       4.380190       119.1910 
 241   0.0000       4.459278       121.3431 
 242   0.0000       4.513444       122.8171 
 243   0.0000       4.523562       123.0924 
 244   0.0000       4.587574       124.8342 
 245   0.0000       4.645555       126.4120 
 246   0.0000       4.743022       129.0642 
 247   0.0000       4.769283       129.7788 
 248   0.0000       4.797413       130.5442 
 249   0.0000       4.849820       131.9703 
 250   0.0000       4.966434       135.1435 
 251   0.0000       5.053126       137.5025 
 252   0.0000       5.139850       139.8624 
 253   0.0000       5.172541       140.7520 
 254   0.0000       5.192500       141.2951 
 255   0.0000       5.286605       143.8558 
 256   0.0000       5.446659       148.2111 
 257   0.0000       5.468030       148.7927 
 258   0.0000       5.622780       153.0036 
 259   0.0000       5.913115       160.9040 
 260   0.0000       6.214711       169.1109 
 261   0.0000       6.294519       171.2826 
 262   0.0000       6.445064       175.3791 
 263   0.0000       6.495257       176.7449 
 264   0.0000       6.717645       182.7964 
 265   0.0000       6.944002       188.9559 
 266   0.0000       6.956420       189.2938 
 267   0.0000      10.552863       287.1580 
 268   0.0000      10.625008       289.1212 
 269   0.0000      11.145330       303.2798 
 270   0.0000      21.719171       591.0087 
 271   0.0000      22.324013       607.4673 
 272   0.0000      22.339384       607.8855 
 273   0.0000      22.395767       609.4198 
 274   0.0000      22.523252       612.8888 
 275   0.0000      23.004659       625.9886 
 276   0.0000      25.574996       695.9310 
 277   0.0000      43.570185      1185.6050 

                    ********************************
                    * MULLIKEN POPULATION ANALYSIS *
                    ********************************

-----------------------
MULLIKEN ATOMIC CHARGES
-----------------------
   0 C :   -0.266989
   1 C :   -0.220871
   2 H :    0.084338
   3 O :   -0.604711
   4 C :    0.161395
   5 H :    0.120597
   6 C :   -0.221115
   7 Cl:   -0.200963
   8 C :   -0.266400
   9 H :    0.120742
  10 C :    0.209791
  11 H :    0.084186
Sum of atomic charges:   -1.0000000

--------------------------------
MULLIKEN REDUCED ORBITAL CHARGES
--------------------------------
  0 C s       :     3.272861  s :     3.272861
      pz      :     1.078132  p :     2.914257
      px      :     0.935022
      py      :     0.901104
      dz2     :     0.003279  d :     0.073291
      dxz     :     0.006989
      dyz     :     0.016629
      dx2y2   :     0.018398
      dxy     :     0.027996
      f0      :     0.001344  f :     0.006579
      f+1     :     0.000576
      f-1     :     0.000534
      f+2     :     0.000811
      f-2     :     0.000356
      f+3     :     0.002008
      f-3     :     0.000951
  1 C s       :     3.234739  s :     3.234739
      pz      :     1.000854  p :     2.885689
      px      :     0.921593
      py      :     0.963242
      dz2     :     0.004845  d :     0.093493
      dxz     :     0.009681
      dyz     :     0.024087
      dx2y2   :     0.018854
      dxy     :     0.036027
      f0      :     0.001430  f :     0.006951
      f+1     :     0.000617
      f-1     :     0.000502
      f+2     :     0.000928
      f-2     :     0.000607
      f+3     :     0.001978
      f-3     :     0.000890
  2 H s       :     0.893631  s :     0.893631
      pz      :     0.005700  p :     0.022030
      px      :     0.010970
      py      :     0.005361
  3 O s       :     3.764984  s :     3.764984
      pz      :     1.601603  p :     4.812377
      px      :     1.839198
      py      :     1.371576
      dz2     :     0.002665  d :     0.025875
      dxz     :     0.000079
      dyz     :     0.007844
      dx2y2   :     0.008672
      dxy     :     0.006615
      f0      :     0.000151  f :     0.001476
      f+1     :     0.000020
      f-1     :     0.000184
      f+2     :     0.000304
      f-2     :     0.000008
      f+3     :     0.000396
      f-3     :     0.000413
  4 C s       :     3.100023  s :     3.100023
      pz      :     1.107682  p :     2.579583
      px      :     0.768815
      py      :     0.703085
      dz2     :     0.007506  d :     0.149327
      dxz     :     0.025271
      dyz     :     0.024103
      dx2y2   :     0.054710
      dxy     :     0.037737
      f0      :     0.001760  f :     0.009673
      f+1     :     0.000505
      f-1     :     0.000918
      f+2     :     0.000799
      f-2     :     0.001114
      f+3     :     0.003356
      f-3     :     0.001221
  5 H s       :     0.857782  s :     0.857782
      pz      :     0.004986  p :     0.021621
      px      :     0.010948
      py      :     0.005688
  6 C s       :     3.234378  s :     3.234378
      pz      :     1.000842  p :     2.886185
      px      :     0.920592
      py      :     0.964752
      dz2     :     0.004850  d :     0.093598
      dxz     :     0.012038
      dyz     :     0.021737
      dx2y2   :     0.015804
      dxy     :     0.039170
      f0      :     0.001430  f :     0.006953
      f+1     :     0.000604
      f-1     :     0.000515
      f+2     :     0.001156
      f-2     :     0.000379
      f+3     :     0.002031
      f-3     :     0.000838
  7 Cls       :     5.886503  s :     5.886503
      pz      :     3.941443  p :    11.242842
      px      :     3.982735
      py      :     3.318664
      dz2     :     0.006967  d :     0.066420
      dxz     :     0.000492
      dyz     :     0.026595
      dx2y2   :     0.020618
      dxy     :     0.011747
      f0      :     0.000589  f :     0.005198
      f+1     :     0.000077
      f-1     :     0.000966
      f+2     :     0.000863
      f-2     :     0.000036
      f+3     :     0.001021
      f-3     :     0.001645
  8 C s       :     3.272147  s :     3.272147
      pz      :     1.077955  p :     2.914351
      px      :     0.933709
      py      :     0.902687
      dz2     :     0.003263  d :     0.073320
      dxz     :     0.005856
      dyz     :     0.017778
      dx2y2   :     0.019435
      dxy     :     0.026988
      f0      :     0.001344  f :     0.006582
      f+1     :     0.000580
      f-1     :     0.000530
      f+2     :     0.000704
      f-2     :     0.000464
      f+3     :     0.001929
      f-3     :     0.001032
  9 H s       :     0.857640  s :     0.857640
      pz      :     0.004984  p :     0.021618
      px      :     0.010111
      py      :     0.006523
 10 C s       :     2.963518  s :     2.963518
      pz      :     0.882315  p :     2.663087
      px      :     0.906687
      py      :     0.874085
      dz2     :     0.007490  d :     0.147991
      dxz     :     0.016177
      dyz     :     0.050660
      dx2y2   :     0.038495
      dxy     :     0.035169
      f0      :     0.001962  f :     0.015613
      f+1     :     0.000624
      f-1     :     0.001122
      f+2     :     0.002276
      f-2     :     0.000978
      f+3     :     0.006334
      f-3     :     0.002317
 11 H s       :     0.893785  s :     0.893785
      pz      :     0.005699  p :     0.022029
      px      :     0.010161
      py      :     0.006168


                     *******************************
                     * LOEWDIN POPULATION ANALYSIS *
                     *******************************

----------------------
LOEWDIN ATOMIC CHARGES
----------------------
   0 C :   -0.182720
   1 C :   -0.200474
   2 H :    0.136530
   3 O :   -0.179151
   4 C :   -0.480952
   5 H :    0.146245
   6 C :   -0.200512
   7 Cl:    0.296622
   8 C :   -0.182663
   9 H :    0.146256
  10 C :   -0.435680
  11 H :    0.136501

-------------------------------
LOEWDIN REDUCED ORBITAL CHARGES
-------------------------------
  0 C s       :     2.786491  s :     2.786491
      pz      :     0.965485  p :     3.000018
      px      :     0.993266
      py      :     1.041267
      dz2     :     0.027695  d :     0.357726
      dxz     :     0.024057
      dyz     :     0.056223
      dx2y2   :     0.104567
      dxy     :     0.145184
      f0      :     0.002910  f :     0.038485
      f+1     :     0.003317
      f-1     :     0.004061
      f+2     :     0.005542
      f-2     :     0.002174
      f+3     :     0.013017
      f-3     :     0.007465
  1 C s       :     2.777249  s :     2.777249
      pz      :     0.915879  p :     2.979091
      px      :     0.998080
      py      :     1.065132
      dz2     :     0.026068  d :     0.401356
      dxz     :     0.031386
      dyz     :     0.085129
      dx2y2   :     0.114112
      dxy     :     0.144660
      f0      :     0.002886  f :     0.042779
      f+1     :     0.003490
      f-1     :     0.004179
      f+2     :     0.006493
      f-2     :     0.004495
      f+3     :     0.013300
      f-3     :     0.007935
  2 H s       :     0.803669  s :     0.803669
      pz      :     0.015436  p :     0.059801
      px      :     0.029464
      py      :     0.014901
  3 O s       :     3.440090  s :     3.440090
      pz      :     1.513374  p :     4.674788
      px      :     1.700591
      py      :     1.460823
      dz2     :     0.006511  d :     0.059515
      dxz     :     0.000090
      dyz     :     0.014406
      dx2y2   :     0.020212
      dxy     :     0.018296
      f0      :     0.000427  f :     0.004758
      f+1     :     0.000099
      f-1     :     0.000731
      f+2     :     0.000695
      f-2     :     0.000017
      f+3     :     0.001426
      f-3     :     0.001363
  4 C s       :     2.787086  s :     2.787086
      pz      :     1.017819  p :     3.034807
      px      :     1.103258
      py      :     0.913730
      dz2     :     0.041832  d :     0.598602
      dxz     :     0.083571
      dyz     :     0.082758
      dx2y2   :     0.221831
      dxy     :     0.168610
      f0      :     0.004302  f :     0.060457
      f+1     :     0.004536
      f-1     :     0.005269
      f+2     :     0.005798
      f-2     :     0.007503
      f+3     :     0.022519
      f-3     :     0.010529
  5 H s       :     0.794656  s :     0.794656
      pz      :     0.013819  p :     0.059100
      px      :     0.029589
      py      :     0.015692
  6 C s       :     2.777202  s :     2.777202
      pz      :     0.915827  p :     2.979084
      px      :     1.003743
      py      :     1.059514
      dz2     :     0.026074  d :     0.401430
      dxz     :     0.040156
      dyz     :     0.076369
      dx2y2   :     0.105783
      dxy     :     0.153047
      f0      :     0.002888  f :     0.042795
      f+1     :     0.003613
      f-1     :     0.004058
      f+2     :     0.008097
      f-2     :     0.002894
      f+3     :     0.013306
      f-3     :     0.007940
  7 Cls       :     5.567061  s :     5.567061
      pz      :     3.871224  p :    11.019198
      px      :     3.862136
      py      :     3.285839
      dz2     :     0.010994  d :     0.106248
      dxz     :     0.000485
      dyz     :     0.040888
      dx2y2   :     0.032024
      dxy     :     0.021857
      f0      :     0.001334  f :     0.010871
      f+1     :     0.000171
      f-1     :     0.001709
      f+2     :     0.002094
      f-2     :     0.000042
      f+3     :     0.002564
      f-3     :     0.002958
  8 C s       :     2.786422  s :     2.786422
      pz      :     0.965347  p :     2.999886
      px      :     0.988307
      py      :     1.046231
      dz2     :     0.027709  d :     0.357854
      dxz     :     0.019196
      dyz     :     0.061118
      dx2y2   :     0.113687
      dxy     :     0.136145
      f0      :     0.002911  f :     0.038502
      f+1     :     0.003204
      f-1     :     0.004174
      f+2     :     0.004748
      f-2     :     0.002970
      f+3     :     0.012751
      f-3     :     0.007744
  9 H s       :     0.794650  s :     0.794650
      pz      :     0.013817  p :     0.059094
      px      :     0.027406
      py      :     0.017871
 10 C s       :     2.742410  s :     2.742410
      pz      :     0.828462  p :     2.820246
      px      :     1.046807
      py      :     0.944978
      dz2     :     0.047060  d :     0.772682
      dxz     :     0.059063
      dyz     :     0.171741
      dx2y2   :     0.211269
      dxy     :     0.283549
      f0      :     0.005573  f :     0.100342
      f+1     :     0.004020
      f-1     :     0.009331
      f+2     :     0.018350
      f-2     :     0.006297
      f+3     :     0.040031
      f-3     :     0.016741
 11 H s       :     0.803692  s :     0.803692
      pz      :     0.015437  p :     0.059807
      px      :     0.027420
      py      :     0.016951


                      *****************************
                      * MAYER POPULATION ANALYSIS *
                      *****************************

  NA   - Mulliken gross atomic population
  ZA   - Total nuclear charge
  QA   - Mulliken gross atomic charge
  VA   - Mayer's total valence
  BVA  - Mayer's bonded valence
  FA   - Mayer's free valence

  ATOM       NA         ZA         QA         VA         BVA        FA
  0 C      6.2670     6.0000    -0.2670     3.6922     3.6922    -0.0000
  1 C      6.2209     6.0000    -0.2209     3.8982     3.8982     0.0000
  2 H      0.9157     1.0000     0.0843     0.9966     0.9966     0.0000
  3 O      8.6047     8.0000    -0.6047     1.9149     1.9149    -0.0000
  4 C      5.8386     6.0000     0.1614     3.5887     3.5887    -0.0000
  5 H      0.8794     1.0000     0.1206     0.9764     0.9764    -0.0000
  6 C      6.2211     6.0000    -0.2211     3.8983     3.8983    -0.0000
  7 Cl    17.2010    17.0000    -0.2010     1.1381     1.1381    -0.0000
  8 C      6.2664     6.0000    -0.2664     3.6904     3.6904     0.0000
  9 H      0.8793     1.0000     0.1207     0.9763     0.9763    -0.0000
 10 C      5.7902     6.0000     0.2098     4.1672     4.1672    -0.0000
 11 H      0.9158     1.0000     0.0842     0.9968     0.9968    -0.0000

  Mayer bond orders larger than 0.100000
B(  0-C ,  1-C ) :   1.3861 B(  0-C , 10-C ) :   1.1753 B(  0-C , 11-H ) :   0.9795 
B(  1-C ,  4-C ) :   1.3058 B(  1-C ,  5-H ) :   0.9644 B(  2-H ,  8-C ) :   0.9795 
B(  3-O , 10-C ) :   1.7313 B(  4-C ,  6-C ) :   1.3060 B(  4-C ,  7-Cl) :   0.8436 
B(  6-C ,  8-C ) :   1.3859 B(  6-C ,  9-H ) :   0.9642 B(  8-C , 10-C ) :   1.1745 


-------
TIMINGS
-------

Total SCF time: 0 days 0 hours 0 min 23 sec 

Total time                  ....      23.998 sec
Sum of individual times     ....      22.159 sec  ( 92.3%)

Fock matrix formation       ....      20.848 sec  ( 86.9%)
  Split-RI-J                ....       3.918 sec  ( 18.8% of F)
  XC integration            ....      10.014 sec  ( 48.0% of F)
    Basis function eval.    ....       3.141 sec  ( 31.4% of XC)
    Density eval.           ....       2.562 sec  ( 25.6% of XC)
    XC-Functional eval.     ....       0.426 sec  (  4.3% of XC)
    XC-Potential eval.      ....       2.411 sec  ( 24.1% of XC)
Diagonalization             ....       0.016 sec  (  0.1%)
Density matrix formation    ....       0.007 sec  (  0.0%)
Population analysis         ....       0.134 sec  (  0.6%)
Initial guess               ....       0.018 sec  (  0.1%)
Orbital Transformation      ....       0.000 sec  (  0.0%)
Orbital Orthonormalization  ....       0.014 sec  (  0.1%)
DIIS solution               ....       0.004 sec  (  0.0%)
SOSCF solution              ....       0.298 sec  (  1.2%)
Grid generation             ....       0.833 sec  (  3.5%)

Maximum memory used throughout the entire SCF-calculation: 113.0 MB


-------------------------------------------------------------------------------
                          DFT DISPERSION CORRECTION                            
                                                                               
                              DFTD3 V3.1  Rev 1                                
                          USING Becke-Johnson damping                          
-------------------------------------------------------------------------------
The PBE functional is recognized
Active option DFTDOPT                   ...         4   

molecular C6(AA) [au] = 2518.916621 


            DFT-D V3
 parameters
 s6 scaling factor         :     1.0000 
 a1 scaling factor         :     0.4289 
 s8 scaling factor         :     0.7875 
 a2 scaling factor         :     4.4407 
 ad hoc parameters k1-k3   :    16.0000     1.3333    -4.0000 

 Edisp/kcal,au: -8.409066130736  -0.013400698446 
 E6   /kcal   :  -5.727214676 
 E8   /kcal   :  -2.681851455 
 % E8         :  31.892381543 

-------------------------   ----------------
Dispersion correction           -0.013400698
-------------------------   ----------------


-------------------------   --------------------
FINAL SINGLE POINT ENERGY      -766.188106975401
-------------------------   --------------------

                                *** OPTIMIZATION RUN DONE ***

                            ***************************************
                            *     ORCA property calculations      *
                            ***************************************

                                    ---------------------
                                    Active property flags
                                    ---------------------
   (+) Dipole Moment


------------------------------------------------------------------------------
                       ORCA ELECTRIC PROPERTIES CALCULATION
------------------------------------------------------------------------------

Dipole Moment Calculation                       ... on
Quadrupole Moment Calculation                   ... off
Polarizability Calculation                      ... off
GBWName                                         ... inp.gbw
Electron density                                ... inp.scfp
The origin for moment calculation is the CENTER OF MASS  = (-4.616149, -0.868083 -0.000056)

-------------
DIPOLE MOMENT
-------------
                                X             Y             Z
Electronic contribution:     -0.46221      -8.76890      -0.00002
Nuclear contribution   :      0.29086       5.51599       0.00002
                        -----------------------------------------
Total Dipole Moment    :     -0.17135      -3.25291      -0.00001
                        -----------------------------------------
Magnitude (a.u.)       :      3.25742
Magnitude (Debye)      :      8.27970



--------------------
Rotational spectrum 
--------------------
 
Rotational constants in cm-1:     0.188629     0.032413     0.027660 
Rotational constants in MHz :  5654.952924   971.732149   829.238073 

 Dipole components along the rotational axes: 
x,y,z [a.u.] :    -3.257417     0.000617    -0.000000 
x,y,z [Debye]:    -8.279697     0.001568    -0.000000 

 

Timings for individual modules:

Sum of individual times         ...      330.764 sec (=   5.513 min)
GTO integral calculation        ...        8.674 sec (=   0.145 min)   2.6 %
SCF iterations                  ...      241.792 sec (=   4.030 min)  73.1 %
SCF Gradient evaluation         ...       79.014 sec (=   1.317 min)  23.9 %
Geometry relaxation             ...        1.285 sec (=   0.021 min)   0.4 %
                             ****ORCA TERMINATED NORMALLY****
TOTAL RUN TIME: 0 days 0 hours 5 minutes 36 seconds 971 msec
