 Entering Gaussian System
 *********************************************
 Gaussian 98:
 frequency output generated by the xtb code
 *********************************************
                         Standard orientation:
 --------------------------------------------------------------------
  Center     Atomic     Atomic              Coordinates (Angstroms)
  Number     Number      Type              X           Y           Z
 --------------------------------------------------------------------
    1          6             0       -3.493318    2.046632    0.433745
    2          6             0       -0.461981    1.208549   -0.391921
    3          1             0       -1.357460    0.576878   -0.474351
    4          1             0       -3.332290    2.267821    1.473652
    5          1             0       -3.650459    2.889953   -0.213778
    6         16             0       -0.950981    2.817022    0.235125
    7          1             0        0.249848    0.732409    0.288732
    8          1             0       -0.000553    1.306204   -1.378890
    9          6             0       -3.645470    0.791872    0.000083
   10          1             0       -3.516659   -0.059985    0.652446
   11          1             0       -3.834073    0.563622   -1.039280
 --------------------------------------------------------------------
     1 basis functions        1 primitive gaussians
     1 alpha electrons        1 beta electrons
 
 Harmonic frequencies (cm**-1), IR intensities (km*mol⁻¹),
 Raman scattering activities (A**4/amu), Raman depolarization ratios,
 reduced masses (AMU), force constants (mDyne/A) and normal coordinates:
                      1                      2                      3
                        a                      a                      a 
 Frequencies --    69.2937               142.2742               163.4342
 Red. masses --     9.2391                14.1839                 2.1973
 Frc consts  --     0.0000                 0.0000                 0.0000
 IR Inten    --     6.4490                21.3241                 1.0135
 Raman Activ --     0.0000                 0.0000                 0.0000
 Depolar     --     0.0000                 0.0000                 0.0000
 Atom AN      X      Y      Z        X      Y      Z        X      Y      Z
   1   6    -0.07   0.15  -0.40     0.41   0.17  -0.01     0.04  -0.01   0.11
   2   6    -0.06   0.10  -0.30    -0.36  -0.10   0.03     0.07  -0.05   0.15
   3   1     0.00  -0.02   0.07    -0.13   0.00   0.00     0.10  -0.20   0.54
   4   1    -0.13   0.22  -0.14     0.04   0.04   0.01    -0.01  -0.07   0.05
   5   1     0.05  -0.07  -0.28     0.03   0.04   0.01     0.04   0.04   0.08
   6  16     0.05  -0.12   0.33    -0.40  -0.14   0.02    -0.07  -0.02  -0.07
   7   1     0.14   0.05  -0.24    -0.13  -0.05   0.02     0.42   0.24  -0.20
   8   1    -0.21   0.09  -0.17    -0.09  -0.04   0.01    -0.45  -0.09  -0.19
   9   6     0.07  -0.11   0.29     0.58   0.14  -0.05    -0.02   0.09  -0.18
  10   1    -0.04   0.08   0.24     0.20   0.04  -0.02    -0.06  -0.02  -0.10
  11   1     0.12  -0.21   0.11     0.19   0.04  -0.02     0.04   0.10  -0.07
                      4                      5                      6
                        a                      a                      a 
 Frequencies --   183.2233               273.8611               384.2182
 Red. masses --    16.8593                 9.9246                 1.7375
 Frc consts  --     0.0000                 0.0000                 0.0000
 IR Inten    --    36.2847                24.1107                 0.2656
 Raman Activ --     0.0000                 0.0000                 0.0000
 Depolar     --     0.0000                 0.0000                 0.0000
 Atom AN      X      Y      Z        X      Y      Z        X      Y      Z
   1   6    -0.12  -0.21  -0.03     0.69  -0.14  -0.18     0.04  -0.07   0.18
   2   6    -0.57  -0.06   0.09    -0.10   0.06   0.04    -0.01   0.02  -0.04
   3   1    -0.24   0.07   0.12    -0.03   0.01   0.01    -0.01   0.02  -0.06
   4   1    -0.01  -0.07  -0.01     0.26  -0.04  -0.06    -0.44  -0.03   0.13
   5   1    -0.00  -0.06  -0.01     0.25  -0.04  -0.06     0.47  -0.00  -0.03
   6  16     0.47   0.35   0.03    -0.11   0.13   0.07    -0.02   0.03  -0.09
   7   1    -0.16  -0.08  -0.02    -0.03   0.02   0.01    -0.05  -0.02   0.03
   8   1    -0.24  -0.11  -0.02    -0.03   0.02   0.01     0.06   0.01   0.02
   9   6     0.10  -0.20  -0.11    -0.40  -0.11   0.04    -0.01   0.00  -0.01
  10   1     0.01  -0.06  -0.03    -0.22  -0.04   0.03    -0.50  -0.02   0.07
  11   1     0.02  -0.05  -0.03    -0.23  -0.04   0.03     0.49   0.03  -0.10
                      7                      8                      9
                        a                      a                      a 
 Frequencies --   730.0596               750.0616               825.5936
 Red. masses --     8.8199                13.1413                 1.4256
 Frc consts  --     0.0000                 0.0000                 0.0000
 IR Inten    --    23.8440                18.3894                 0.9669
 Raman Activ --     0.0000                 0.0000                 0.0000
 Depolar     --     0.0000                 0.0000                 0.0000
 Atom AN      X      Y      Z        X      Y      Z        X      Y      Z
   1   6     0.24  -0.00  -0.05     0.17  -0.00  -0.03    -0.03   0.05  -0.14
   2   6     0.09  -0.42  -0.16    -0.17   0.57   0.22     0.00   0.00  -0.00
   3   1     0.03  -0.09  -0.03    -0.03   0.12   0.04    -0.00   0.00  -0.00
   4   1    -0.28  -0.00   0.05    -0.21   0.00   0.03     0.07  -0.49   0.07
   5   1    -0.28  -0.01   0.05    -0.21  -0.00   0.04     0.02   0.33   0.38
   6  16    -0.04   0.31   0.11     0.17  -0.39  -0.16     0.00  -0.00   0.00
   7   1     0.02  -0.08  -0.03    -0.04   0.11   0.04    -0.00  -0.00  -0.00
   8   1     0.02  -0.08  -0.03    -0.04   0.11   0.05     0.00   0.00   0.00
   9   6    -0.35  -0.01   0.06    -0.27  -0.02   0.05    -0.02   0.04  -0.12
  10   1     0.38  -0.00  -0.08     0.26  -0.01  -0.06     0.00   0.31   0.37
  11   1     0.39  -0.01  -0.07     0.26  -0.01  -0.05     0.08  -0.47   0.07
                     10                     11                     12
                        a                      a                      a 
 Frequencies --   903.8773               944.8060               955.5281
 Red. masses --     2.2476                 3.0014                 2.9706
 Frc consts  --     0.0000                 0.0000                 0.0000
 IR Inten    --     5.5063                 0.1890                 1.7683
 Raman Activ --     0.0000                 0.0000                 0.0000
 Depolar     --     0.0000                 0.0000                 0.0000
 Atom AN      X      Y      Z        X      Y      Z        X      Y      Z
   1   6    -0.25  -0.02   0.04     0.00  -0.00   0.00    -0.07   0.00   0.01
   2   6    -0.12  -0.02   0.01     0.05  -0.12   0.34     0.34   0.11  -0.01
   3   1     0.10  -0.17  -0.08    -0.03   0.06  -0.20    -0.30   0.54   0.23
   4   1     0.50   0.00  -0.09    -0.04  -0.00   0.01     0.15   0.00  -0.02
   5   1     0.51   0.01  -0.10     0.03   0.00  -0.00     0.15   0.01  -0.03
   6  16    -0.01  -0.01  -0.00    -0.02   0.04  -0.12    -0.12  -0.02   0.01
   7   1     0.03   0.11   0.02     0.16  -0.48  -0.37    -0.10  -0.39  -0.09
   8   1     0.02   0.11   0.04    -0.21   0.60   0.05    -0.12  -0.36  -0.14
   9   6    -0.17   0.04   0.04     0.00  -0.00  -0.00    -0.08  -0.01   0.01
  10   1     0.38   0.01  -0.07     0.02   0.00  -0.00     0.12  -0.01  -0.03
  11   1     0.36   0.01  -0.06    -0.03  -0.00   0.01     0.12  -0.01  -0.02
                     13                     14                     15
                        a                      a                      a 
 Frequencies --   968.7758              1177.8899              1322.4356
 Red. masses --     1.0139                 5.2419                 2.5521
 Frc consts  --     0.0000                 0.0000                 0.0000
 IR Inten    --     0.1079                 0.0243                52.8615
 Raman Activ --     0.0000                 0.0000                 0.0000
 Depolar     --     0.0000                 0.0000                 0.0000
 Atom AN      X      Y      Z        X      Y      Z        X      Y      Z
   1   6     0.01  -0.00  -0.00    -0.08   0.15  -0.40     0.00  -0.08  -0.03
   2   6    -0.00   0.00  -0.01    -0.00  -0.00  -0.00    -0.08   0.31   0.12
   3   1     0.00  -0.00   0.01     0.00  -0.00   0.00     0.31  -0.43  -0.19
   4   1    -0.52  -0.07   0.10    -0.02  -0.38  -0.00    -0.01  -0.08   0.00
   5   1     0.51   0.05  -0.05     0.06   0.30   0.23    -0.02  -0.06  -0.05
   6  16    -0.00   0.00  -0.00     0.00  -0.00   0.00    -0.02   0.05   0.02
   7   1     0.00   0.03   0.02    -0.00  -0.00  -0.00     0.01  -0.42  -0.28
   8   1     0.00  -0.04  -0.01     0.00   0.00   0.00     0.04  -0.51  -0.04
   9   6    -0.00   0.01  -0.02     0.08  -0.15   0.41     0.02   0.09   0.03
  10   1     0.47   0.04  -0.05    -0.07  -0.31  -0.25     0.00   0.07   0.05
  11   1    -0.47  -0.05   0.09     0.02   0.40  -0.01    -0.01   0.08   0.00
                     16                     17                     18
                        a                      a                      a 
 Frequencies --  1377.5779              1427.5933              1489.9234
 Red. masses --     2.7992                 2.2239                 1.7043
 Frc consts  --     0.0000                 0.0000                 0.0000
 IR Inten    --    51.4251                18.7094                 0.6516
 Raman Activ --     0.0000                 0.0000                 0.0000
 Depolar     --     0.0000                 0.0000                 0.0000
 Atom AN      X      Y      Z        X      Y      Z        X      Y      Z
   1   6    -0.01  -0.23  -0.08     0.01   0.27   0.10     0.00  -0.00  -0.00
   2   6     0.02  -0.05  -0.02    -0.01   0.01   0.00     0.07  -0.07   0.23
   3   1    -0.07   0.10   0.04     0.01  -0.02  -0.01    -0.08   0.21  -0.70
   4   1    -0.01  -0.51   0.05     0.03  -0.39   0.11     0.00   0.00  -0.00
   5   1    -0.08  -0.36  -0.35    -0.06  -0.23  -0.33    -0.00   0.00   0.00
   6  16     0.00  -0.02  -0.01     0.00   0.00  -0.00     0.00  -0.00   0.01
   7   1    -0.01   0.08   0.06     0.01  -0.01  -0.01     0.20   0.34   0.03
   8   1    -0.02   0.10   0.00     0.01  -0.01   0.00    -0.36  -0.27  -0.19
   9   6     0.03   0.29   0.10     0.01   0.16   0.06     0.00   0.00   0.01
  10   1     0.05   0.28   0.24    -0.08  -0.33  -0.41    -0.01  -0.00  -0.00
  11   1     0.00   0.37  -0.01     0.02  -0.52   0.11     0.01  -0.00  -0.00
                     19                     20                     21
                        a                      a                      a 
 Frequencies --  1491.3996              1623.4961              2838.6052
 Red. masses --     1.6955                 9.4645                 1.7754
 Frc consts  --     0.0000                 0.0000                 0.0000
 IR Inten    --     3.5514               158.6566                35.8350
 Raman Activ --     0.0000                 0.0000                 0.0000
 Depolar     --     0.0000                 0.0000                 0.0000
 Atom AN      X      Y      Z        X      Y      Z        X      Y      Z
   1   6    -0.00   0.01   0.00     0.04   0.58   0.20    -0.00   0.01   0.00
   2   6    -0.24  -0.06   0.05     0.00   0.01   0.00    -0.23  -0.12  -0.01
   3   1    -0.18   0.25   0.01     0.02  -0.04  -0.02     0.79   0.53   0.06
   4   1     0.00  -0.01   0.00     0.05  -0.18   0.13    -0.00  -0.00   0.00
   5   1     0.00  -0.01  -0.01    -0.02  -0.05  -0.22    -0.00   0.00  -0.00
   6  16    -0.01  -0.00   0.00     0.01   0.01   0.00     0.00  -0.01  -0.00
   7   1     0.51   0.15  -0.42    -0.01  -0.01  -0.00     0.02  -0.06   0.06
   8   1     0.54  -0.16   0.24    -0.01  -0.01  -0.01    -0.01  -0.01  -0.08
   9   6    -0.00  -0.01  -0.00    -0.07  -0.59  -0.20     0.01  -0.01  -0.00
  10   1     0.00   0.01   0.01     0.04   0.07   0.23    -0.01   0.00   0.00
  11   1     0.00   0.02  -0.01    -0.02   0.21  -0.13    -0.01   0.00   0.00
                     22                     23                     24
                        a                      a                      a 
 Frequencies --  2896.1733              2920.1837              3052.3449
 Red. masses --     1.9676                 1.3367                 1.4806
 Frc consts  --     0.0000                 0.0000                 0.0000
 IR Inten    --    83.0947                99.3436                60.7106
 Raman Activ --     0.0000                 0.0000                 0.0000
 Depolar     --     0.0000                 0.0000                 0.0000
 Atom AN      X      Y      Z        X      Y      Z        X      Y      Z
   1   6    -0.00   0.00  -0.00    -0.00  -0.00  -0.00    -0.00  -0.00  -0.00
   2   6     0.04  -0.10   0.28     0.16  -0.05  -0.05     0.00  -0.00   0.00
   3   1     0.01  -0.02   0.05     0.13   0.06   0.00     0.00   0.00  -0.00
   4   1     0.00   0.00   0.00    -0.00   0.00   0.00    -0.01  -0.00  -0.03
   5   1     0.00  -0.00   0.00    -0.00   0.00  -0.00     0.00  -0.02   0.02
   6  16     0.00  -0.00  -0.00     0.00  -0.01  -0.00     0.00   0.00  -0.00
   7   1    -0.47   0.27  -0.42    -0.42   0.27  -0.46    -0.00  -0.00  -0.00
   8   1     0.30   0.08  -0.58    -0.27  -0.10   0.64    -0.00  -0.00   0.00
   9   6    -0.00   0.00  -0.00     0.00   0.00   0.00     0.01   0.19   0.08
  10   1     0.00  -0.01   0.00    -0.00   0.00  -0.00     0.08  -0.51   0.43
  11   1     0.00   0.00   0.01    -0.00   0.00   0.00    -0.13  -0.12  -0.69
                     25                     26                     27
                        a                      a                      a 
 Frequencies --  3055.9025              3118.4691              3140.5105
 Red. masses --     2.0580                 1.5269                 2.1155
 Frc consts  --     0.0000                 0.0000                 0.0000
 IR Inten    --   106.7211                43.1455                72.7715
 Raman Activ --     0.0000                 0.0000                 0.0000
 Depolar     --     0.0000                 0.0000                 0.0000
 Atom AN      X      Y      Z        X      Y      Z        X      Y      Z
   1   6     0.01  -0.01   0.03     0.01   0.19   0.11    -0.05   0.13  -0.28
   2   6    -0.00   0.00  -0.00     0.00  -0.00   0.00    -0.00   0.00  -0.00
   3   1    -0.00   0.00  -0.00     0.00  -0.00  -0.00    -0.00   0.00  -0.00
   4   1    -0.02  -0.03  -0.09    -0.12  -0.14  -0.74     0.09   0.14   0.55
   5   1    -0.01   0.07  -0.05     0.09  -0.46   0.39     0.10  -0.59   0.44
   6  16     0.00  -0.00   0.00     0.00  -0.00  -0.00     0.00  -0.00   0.00
   7   1     0.00  -0.00   0.00    -0.00  -0.00  -0.00     0.00  -0.00   0.00
   8   1    -0.00  -0.00   0.01     0.00  -0.00   0.00    -0.00  -0.00   0.00
   9   6    -0.05   0.11  -0.28    -0.00  -0.02   0.00    -0.01   0.02  -0.05
  10   1     0.08  -0.55   0.40    -0.00   0.03  -0.03     0.01  -0.07   0.05
  11   1     0.11   0.16   0.62     0.00   0.00   0.01     0.01   0.02   0.09
