      -----------------------------------------------------------      
     |                   =====================                   |     
     |                           x T B                           |     
     |                   =====================                   |     
     |                         S. Grimme                         |     
     |          Mulliken Center for Theoretical Chemistry        |     
     |                    University of Bonn                     |     
      -----------------------------------------------------------      

   * xtb version 6.7.1 (edcfbbe) compiled by 'albert@albert-system' on 2024-07-22

   xtb is free software: you can redistribute it and/or modify it under
   the terms of the GNU Lesser General Public License as published by
   the Free Software Foundation, either version 3 of the License, or
   (at your option) any later version.
   
   xtb is distributed in the hope that it will be useful,
   but WITHOUT ANY WARRANTY; without even the implied warranty of
   MERCHANTABILITY or FITNESS FOR A PARTICULAR PURPOSE.  See the
   GNU Lesser General Public License for more details.
   
   Cite this work as:
   * C. Bannwarth, E. Caldeweyher, S. Ehlert, A. Hansen, P. Pracht,
     J. Seibert, S. Spicher, S. Grimme, WIREs Comput. Mol. Sci., 2020, 11,
     e01493. DOI: 10.1002/wcms.1493
   
   for GFN2-xTB:
   * C. Bannwarth, S. Ehlert and S. Grimme., J. Chem. Theory Comput., 2019,
     15, 1652-1671. DOI: 10.1021/acs.jctc.8b01176
   for GFN1-xTB:
   * S. Grimme, C. Bannwarth, P. Shushkov, J. Chem. Theory Comput., 2017,
     13, 1989-2009. DOI: 10.1021/acs.jctc.7b00118
   for GFN0-xTB:
   * P. Pracht, E. Caldeweyher, S. Ehlert, S. Grimme, ChemRxiv, 2019, preprint.
     DOI: 10.26434/chemrxiv.8326202.v1
   for GFN-FF:
   * S. Spicher and S. Grimme, Angew. Chem. Int. Ed., 2020, 59, 15665-15673.
     DOI: 10.1002/anie.202004239
   
   for ALPB and GBSA implicit solvation:
   * S. Ehlert, M. Stahn, S. Spicher, S. Grimme, J. Chem. Theory Comput.,
     2021, 17, 4250-4261. DOI: 10.1021/acs.jctc.1c00471
   
   for ddCOSMO and CPCM-X implicit solvation:
   * M. Stahn, S. Ehlert, S. Grimme, J. Phys. Chem. A,
     2023, XX, XXXX-XXXX. DOI: 10.1021/acs.jpca.3c04382
   
   for DFT-D4:
   * E. Caldeweyher, C. Bannwarth and S. Grimme, J. Chem. Phys., 2017,
     147, 034112. DOI: 10.1063/1.4993215
   * E. Caldeweyher, S. Ehlert, A. Hansen, H. Neugebauer, S. Spicher,
     C. Bannwarth and S. Grimme, J. Chem. Phys., 2019, 150, 154122.
     DOI: 10.1063/1.5090222
   * E. Caldeweyher, J.-M. Mewes, S. Ehlert and S. Grimme, Phys. Chem. Chem. Phys.
     2020, 22, 8499-8512. DOI: 10.1039/D0CP00502A
   
   for sTDA-xTB:
   * S. Grimme and C. Bannwarth, J. Chem. Phys., 2016, 145, 054103.
     DOI: 10.1063/1.4959605
   
   in the mass-spec context:
   * V. Asgeirsson, C. Bauer and S. Grimme, Chem. Sci., 2017, 8, 4879.
     DOI: 10.1039/c7sc00601b
   * J. Koopman and S. Grimme, ACS Omega 2019, 4, 12, 15120-15133.
     DOI: 10.1021/acsomega.9b02011
   
   for metadynamics refer to:
   * S. Grimme, J. Chem. Theory Comput., 2019, 155, 2847-2862
     DOI: 10.1021/acs.jctc.9b00143
   
   for SPH calculations refer to:
   * S. Spicher and S. Grimme, J. Chem. Theory Comput., 2021, 17, 1701-1714
     DOI: 10.1021/acs.jctc.0c01306
   
   for ONIOM refer to:
   * C. Plett, A. Katbashev, S. Ehlert, S. Grimme, M. Bursch,
     Phys. Chem. Chem. Phys., 2023, 25, 17860-17868. DOI: 10.1039/D3CP02178E
   
   for DIPRO refer to:
   * J. Kohn, N. Gildemeister, S. Grimme, D. Fazzi, A. Hansen,
     J. Chem. Phys., 2023, just accepted.
   
   for PTB refer to:
   * S. Grimme, M. Mueller, A. Hansen, J. Chem. Phys., 2023, 158, 124111.
     DOI: 10.1063/5.0137838
   
   with help from (in alphabetical order)
   P. Atkinson, C. Bannwarth, F. Bohle, G. Brandenburg, E. Caldeweyher
   M. Checinski, S. Dohm, S. Ehlert, S. Ehrlich, I. Gerasimov, C. Hölzer
   A. Katbashev, J. Kohn, J. Koopman, C. Lavigne, S. Lehtola, F. März, M. Müller,
   F. Musil, H. Neugebauer, J. Pisarek, C. Plett, P. Pracht, F. Pultar,
   J. Seibert, P. Shushkov, S. Spicher, M. Stahn, M. Steiner, T. Strunk,
   J. Stückrath, T. Rose, and J. Unsleber
   
 * started run on 2025/10/18 at 18:36:32.678     
   ID    Z sym.   atoms
    1    6 C      1, 2, 9
    2    1 H      3-5, 7, 8, 10, 11
    3   16 S      6

           -------------------------------------------------
          |                Calculation Setup                |
           -------------------------------------------------

          program call               : xtb xyz.xyz --charge -1 --ohess
          hostname                   : m003
          coordinate file            : xyz.xyz
          omp threads                :                     2


molecular fragmentation (1/2 indicates fragments):
12211222111
# atoms in fragment 1/2:     6     5
 fragment masses (1/2) :       28.05       47.10
CMA distance (Bohr)    :   7.119
constraining FC (au)   :  0.0500

           -------------------------------------------------
          |                 G F N 2 - x T B                 |
           -------------------------------------------------

        Reference                      10.1021/acs.jctc.8b01176
      * Hamiltonian:
        H0-scaling (s, p, d)           1.850000    2.230000    2.230000
        zeta-weighting                 0.500000
      * Dispersion:
        s8                             2.700000
        a1                             0.520000
        a2                             5.000000
        s9                             5.000000
      * Repulsion:
        kExp                           1.500000    1.000000
        rExp                           1.000000
      * Coulomb:
        alpha                          2.000000
        third order                    shell-resolved
        anisotropic                    true
        a3                             3.000000
        a5                             4.000000
        cn-shift                       1.200000
        cn-exp                         4.000000
        max-rad                        5.000000

q/qsh data taken from xtbrestart
CAMM data taken from xtbrestart

          ...................................................
          :                      SETUP                      :
          :.................................................:
          :  # basis functions                  29          :
          :  # atomic orbitals                  28          :
          :  # shells                           16          :
          :  # electrons                        26          :
          :  max. iterations                   250          :
          :  Hamiltonian                  GFN2-xTB          :
          :  restarted?                       true          :
          :  GBSA solvation                  false          :
          :  PC potential                    false          :
          :  electronic temp.          300.0000000     K    :
          :  accuracy                    1.0000000          :
          :  -> integral cutoff          0.2500000E+02      :
          :  -> integral neglect         0.1000000E-07      :
          :  -> SCF convergence          0.1000000E-05 Eh   :
          :  -> wf. convergence          0.1000000E-03 e    :
          :  Broyden damping             0.4000000          :
          :  net charge                         -1          :
          :  unpaired electrons                  0          :
          ...................................................

 iter      E             dE          RMSdq      gap      omega  full diag
   1    -13.5558505 -0.135559E+02  0.253E+00    1.72       0.0  T
   2    -13.5594452 -0.359476E-02  0.134E+00    0.80       1.0  T
   3    -13.5582552  0.119005E-02  0.864E-01    0.47       1.0  T
   4    -13.5636269 -0.537168E-02  0.170E-01    0.42       1.0  T
   5    -13.5635891  0.377423E-04  0.190E-01    0.60       1.0  T
   6    -13.5637472 -0.158069E-03  0.557E-02    0.50       1.0  T
   7    -13.5637514 -0.419987E-05  0.129E-02    0.49       2.3  T
   8    -13.5637516 -0.184217E-06  0.538E-03    0.49       5.6  T
   9    -13.5637516 -0.347716E-07  0.320E-03    0.49       9.4  T
  10    -13.5637516 -0.252685E-07  0.821E-04    0.49      36.7  T
  11    -13.5637516 -0.186033E-08  0.204E-04    0.49     147.8  T

   *** convergence criteria satisfied after 11 iterations ***

         #    Occupation            Energy/Eh            Energy/eV
      -------------------------------------------------------------
         1        2.0000           -0.4828010             -13.1377
       ...           ...                  ...                  ...
         7        2.0000           -0.3069730              -8.3532
         8        2.0000           -0.3040546              -8.2737
         9        2.0000           -0.3005829              -8.1793
        10        2.0000           -0.2804010              -7.6301
        11        2.0000           -0.2312368              -6.2923
        12        2.0000           -0.0964232              -2.6238
        13        1.9999           -0.0951753              -2.5899 (HOMO)
        14        0.0002           -0.0771703              -2.0999 (LUMO)
        15                          0.0692172               1.8835
        16                          0.2393126               6.5120
        17                          0.2393969               6.5143
        18                          0.2572712               7.0007
       ...                                ...                  ...
        28                          0.7315350              19.9061
      -------------------------------------------------------------
                  HL-Gap            0.0180050 Eh            0.4899 eV
             Fermi-level           -0.0860597 Eh           -2.3418 eV

 SCC (total)                   0 d,  0 h,  0 min,  0.032 sec
 SCC setup                      ...        0 min,  0.000 sec (  0.375%)
 Dispersion                     ...        0 min,  0.000 sec (  0.188%)
 classical contributions        ...        0 min,  0.000 sec (  0.066%)
 integral evaluation            ...        0 min,  0.028 sec ( 86.196%)
 iterations                     ...        0 min,  0.003 sec (  9.290%)
 molecular gradient             ...        0 min,  0.001 sec (  3.558%)
 printout                       ...        0 min,  0.000 sec (  0.250%)

         :::::::::::::::::::::::::::::::::::::::::::::::::::::
         ::                     SUMMARY                     ::
         :::::::::::::::::::::::::::::::::::::::::::::::::::::
         :: total energy             -13.376332364265 Eh    ::
         :: gradient norm              0.017547411542 Eh/a0 ::
         :: HOMO-LUMO gap              0.489942245871 eV    ::
         ::.................................................::
         :: SCC energy               -13.563739738255 Eh    ::
         :: -> isotropic ES            0.141878627315 Eh    ::
         :: -> anisotropic ES          0.003177870033 Eh    ::
         :: -> anisotropic XC          0.014480858199 Eh    ::
         :: -> dispersion             -0.005808390132 Eh    ::
         :: repulsion energy           0.187407373990 Eh    ::
         :: add. restraining           0.000000000000 Eh    ::
         :: total charge              -1.000000000000 e     ::
         :::::::::::::::::::::::::::::::::::::::::::::::::::::

      ----------------------------------------------------------- 
     |                   =====================                   |
     |                        A N C O P T                        |
     |                   =====================                   |
     |               Approximate Normal Coordinate               |
     |                Rational Function Optimizer                |
      ----------------------------------------------------------- 
      ----------------------------------------------------------- 
     |                   =====================                   |
     |                        A N C O P T                        |
     |                   =====================                   |
     |               Approximate Normal Coordinate               |
     |                Rational Function Optimizer                |
      ----------------------------------------------------------- 

          ...................................................
          :                      SETUP                      :
          :.................................................:
          :   optimization level            normal          :
          :   max. optcycles                   200          :
          :   ANC micro-cycles                  20          :
          :   degrees of freedom                27          :
          :.................................................:
          :   RF solver                   davidson          :
          :   write xtbopt.log                true          :
          :   linear?                        false          :
          :   energy convergence         0.5000000E-05 Eh   :
          :   grad. convergence          0.1000000E-02 Eh/α :
          :   maxmium RF displ.          1.0000000          :
          :   Hlow (freq-cutoff)         0.1000000E-01      :
          :   Hmax (freq-cutoff)         5.0000000          :
          :   S6 in model hess.         20.0000000          :
          ...................................................

generating ANC from exact Hessian ...
Using Lindh-Hessian (1995)
 Shifting diagonal of input Hessian by   9.201464857219052E-003
 Lowest  eigenvalues of input Hessian
    0.000000    0.000000    0.000000    0.000000    0.000000    0.000000
    0.010000    0.010209    0.010256    0.010351    0.010566    0.010901
    0.031951    0.043830    0.079195    0.079275    0.089157    0.097837
 Highest eigenvalues
    1.091176    1.110170    1.110794    1.118393    1.517366    1.969506
 

........................................................................
.............................. CYCLE    1 ..............................
........................................................................

 iter      E             dE          RMSdq      gap      omega  full diag
   1    -13.5637516 -0.135638E+02  0.553E-05    0.49       0.0  T
   2    -13.5637516 -0.471090E-11  0.313E-05    0.49     964.3  T
   3    -13.5637516 -0.599698E-11  0.141E-05    0.49    2142.5  T
     SCC iter.                  ...        0 min,  0.001 sec
     gradient                   ...        0 min,  0.001 sec
 * total energy  :   -13.3763324 Eh     change       -0.7949197E-11 Eh
   gradient norm :     0.0175381 Eh/α   predicted     0.0000000E+00 (-100.00%)
   displ. norm   :     0.1913954 α      lambda       -0.1602248E-02
   maximum displ.:     0.1525380 α      in ANC's #6, #8, #16, ...

........................................................................
.............................. CYCLE    2 ..............................
........................................................................

 iter      E             dE          RMSdq      gap      omega  full diag
   1    -13.5597192 -0.135597E+02  0.378E-01    0.48       0.0  T
   2    -13.5598098 -0.905926E-04  0.194E-01    0.62       1.0  T
   3    -13.5598432 -0.334701E-04  0.117E-01    0.51       1.0  T
   4    -13.5598793 -0.360744E-04  0.232E-02    0.56       1.3  T
   5    -13.5598791  0.246906E-06  0.125E-02    0.56       2.4  T
   6    -13.5598798 -0.774396E-06  0.347E-03    0.55       8.7  T
   7    -13.5598799 -0.644836E-07  0.153E-03    0.55      19.7  T
   8    -13.5598799 -0.754719E-09  0.446E-04    0.56      67.6  T
   9    -13.5598799 -0.342121E-09  0.803E-05    0.55     375.4  T
     SCC iter.                  ...        0 min,  0.002 sec
     gradient                   ...        0 min,  0.001 sec
 * total energy  :   -13.3771566 Eh     change       -0.8242253E-03 Eh
   gradient norm :     0.0061235 Eh/α   predicted    -0.8304700E-03 (   0.76%)
   displ. norm   :     0.2234381 α      lambda       -0.7146624E-03
   maximum displ.:     0.2065239 α      in ANC's #6, #8, #1, ...

........................................................................
.............................. CYCLE    3 ..............................
........................................................................

 iter      E             dE          RMSdq      gap      omega  full diag
   1    -13.5574096 -0.135574E+02  0.365E-01    0.64       0.0  T
   2    -13.5574717 -0.621369E-04  0.165E-01    0.72       1.0  T
   3    -13.5574508  0.208887E-04  0.101E-01    0.66       1.0  T
   4    -13.5575094 -0.585345E-04  0.251E-02    0.69       1.2  T
   5    -13.5575113 -0.190049E-05  0.136E-02    0.69       2.2  T
   6    -13.5575116 -0.346820E-06  0.184E-03    0.69      16.3  T
   7    -13.5575116 -0.639055E-08  0.754E-04    0.69      40.0  T
   8    -13.5575116 -0.406693E-09  0.191E-04    0.69     158.0  T
     SCC iter.                  ...        0 min,  0.001 sec
     gradient                   ...        0 min,  0.001 sec
 * total energy  :   -13.3775496 Eh     change       -0.3929766E-03 Eh
   gradient norm :     0.0090775 Eh/α   predicted    -0.3751721E-03 (  -4.53%)
   displ. norm   :     0.1599209 α      lambda       -0.3989948E-03
   maximum displ.:     0.1379229 α      in ANC's #6, #4, #1, ...

........................................................................
.............................. CYCLE    4 ..............................
........................................................................

 iter      E             dE          RMSdq      gap      omega  full diag
   1    -13.5575011 -0.135575E+02  0.215E-01    0.76       0.0  T
   2    -13.5575295 -0.284123E-04  0.933E-02    0.82       1.0  T
   3    -13.5575271  0.249194E-05  0.591E-02    0.78       1.0  T
   4    -13.5575488 -0.217598E-04  0.136E-02    0.79       2.2  T
   5    -13.5575498 -0.943257E-06  0.533E-03    0.80       5.7  T
   6    -13.5575498 -0.123116E-07  0.585E-04    0.80      51.5  T
   7    -13.5575498 -0.800249E-10  0.252E-04    0.80     119.4  T
     SCC iter.                  ...        0 min,  0.001 sec
     gradient                   ...        0 min,  0.001 sec
 * total energy  :   -13.3779418 Eh     change       -0.3922596E-03 Eh
   gradient norm :     0.0091076 Eh/α   predicted    -0.2046001E-03 ( -47.84%)
   displ. norm   :     0.4979658 α      lambda       -0.1445174E-02
   maximum displ.:     0.3751203 α      in ANC's #6, #4, #1, ...

........................................................................
.............................. CYCLE    5 ..............................
........................................................................

 iter      E             dE          RMSdq      gap      omega  full diag
   1    -13.5582437 -0.135582E+02  0.649E-01    1.02       0.0  T
   2    -13.5586595 -0.415792E-03  0.280E-01    1.26       1.0  T
   3    -13.5587587 -0.992139E-04  0.173E-01    1.16       1.0  T
   4    -13.5589121 -0.153345E-03  0.522E-02    1.17       1.0  T
   5    -13.5589270 -0.149427E-04  0.163E-02    1.19       1.9  T
   6    -13.5589271 -0.371365E-07  0.312E-03    1.19       9.7  T
   7    -13.5589271 -0.191910E-07  0.160E-03    1.19      18.8  T
   8    -13.5589271 -0.341929E-08  0.526E-04    1.19      57.3  T
   9    -13.5589271 -0.239488E-09  0.187E-04    1.19     161.1  T
     SCC iter.                  ...        0 min,  0.002 sec
     gradient                   ...        0 min,  0.001 sec
 * total energy  :   -13.3793191 Eh     change       -0.1377231E-02 Eh
   gradient norm :     0.0115758 Eh/α   predicted    -0.9017799E-03 ( -34.52%)
   displ. norm   :     0.9348494 α      lambda       -0.2646255E-02
   maximum displ.:     0.7252720 α      in ANC's #6, #4, #1, ...

........................................................................
.............................. CYCLE    6 ..............................
........................................................................

 iter      E             dE          RMSdq      gap      omega  full diag
   1    -13.5463242 -0.135463E+02  0.177E+00    1.79       0.0  T
   2    -13.5508503 -0.452608E-02  0.726E-01    2.53       1.0  T
   3    -13.5528282 -0.197795E-02  0.423E-01    2.24       1.0  T
   4    -13.5537231 -0.894924E-03  0.136E-01    2.24       1.0  T
   5    -13.5537976 -0.744115E-04  0.452E-02    2.28       1.0  T
   6    -13.5537974  0.129422E-06  0.157E-02    2.29       1.9  T
   7    -13.5537982 -0.730538E-06  0.514E-03    2.28       5.9  T
   8    -13.5537982 -0.156326E-07  0.282E-03    2.28      10.7  T
   9    -13.5537982 -0.100562E-07  0.591E-04    2.28      51.0  T
  10    -13.5537982 -0.696366E-09  0.138E-04    2.28     219.0  T
     SCC iter.                  ...        0 min,  0.002 sec
     gradient                   ...        0 min,  0.001 sec
 * total energy  :   -13.3799792 Eh     change       -0.6601390E-03 Eh
   gradient norm :     0.0361250 Eh/α   predicted    -0.2479475E-02 ( 275.60%)
   displ. norm   :     0.2721791 α      lambda       -0.3559242E-02
   maximum displ.:     0.2465794 α      in ANC's #6, #4, #20, ...

........................................................................
.............................. CYCLE    7 ..............................
........................................................................

 iter      E             dE          RMSdq      gap      omega  full diag
   1    -13.5620866 -0.135621E+02  0.638E-01    2.07       0.0  T
   2    -13.5624405 -0.353941E-03  0.317E-01    1.88       1.0  T
   3    -13.5624551 -0.145526E-04  0.206E-01    1.94       1.0  T
   4    -13.5626732 -0.218093E-03  0.506E-02    1.93       1.0  T
   5    -13.5626818 -0.862698E-05  0.220E-02    1.92       1.4  T
   6    -13.5626820 -0.159217E-06  0.354E-03    1.92       8.5  T
   7    -13.5626820 -0.138425E-07  0.160E-03    1.92      18.9  T
   8    -13.5626820 -0.694370E-08  0.696E-04    1.92      43.3  T
   9    -13.5626820 -0.237110E-09  0.308E-04    1.92      97.9  T
     SCC iter.                  ...        0 min,  0.002 sec
     gradient                   ...        0 min,  0.001 sec
 * total energy  :   -13.3813173 Eh     change       -0.1338077E-02 Eh
   gradient norm :     0.0172814 Eh/α   predicted    -0.1911461E-02 (  42.85%)
   displ. norm   :     0.1951173 α      lambda       -0.6580699E-03
   maximum displ.:     0.1316676 α      in ANC's #6, #1, #2, ...

........................................................................
.............................. CYCLE    8 ..............................
........................................................................

 iter      E             dE          RMSdq      gap      omega  full diag
   1    -13.5614286 -0.135614E+02  0.352E-01    2.02       0.0  T
   2    -13.5615872 -0.158603E-03  0.152E-01    2.17       1.0  T
   3    -13.5616357 -0.484498E-04  0.965E-02    2.12       1.0  T
   4    -13.5616830 -0.472769E-04  0.312E-02    2.13       1.0  T
   5    -13.5616859 -0.293761E-05  0.131E-02    2.14       2.3  T
   6    -13.5616859 -0.447447E-07  0.232E-03    2.13      13.0  T
   7    -13.5616859 -0.159088E-08  0.991E-04    2.13      30.4  T
   8    -13.5616859 -0.126595E-08  0.267E-04    2.13     112.9  T
     SCC iter.                  ...        0 min,  0.002 sec
     gradient                   ...        0 min,  0.001 sec
 * total energy  :   -13.3818814 Eh     change       -0.5641016E-03 Eh
   gradient norm :     0.0147064 Eh/α   predicted    -0.3415626E-03 ( -39.45%)
   displ. norm   :     0.3512468 α      lambda       -0.1025550E-02
   maximum displ.:     0.2494842 α      in ANC's #1, #6, #2, ...

........................................................................
.............................. CYCLE    9 ..............................
........................................................................

 iter      E             dE          RMSdq      gap      omega  full diag
   1    -13.5583137 -0.135583E+02  0.651E-01    2.31       0.0  T
   2    -13.5588534 -0.539757E-03  0.296E-01    2.57       1.0  T
   3    -13.5590705 -0.217068E-03  0.183E-01    2.48       1.0  T
   4    -13.5592277 -0.157169E-03  0.635E-02    2.49       1.0  T
   5    -13.5592385 -0.108183E-04  0.262E-02    2.51       1.2  T
   6    -13.5592387 -0.178704E-06  0.465E-03    2.50       6.5  T
   7    -13.5592387 -0.126752E-07  0.217E-03    2.50      13.9  T
   8    -13.5592387 -0.565218E-08  0.667E-04    2.50      45.2  T
   9    -13.5592387 -0.206361E-09  0.275E-04    2.50     109.6  T
     SCC iter.                  ...        0 min,  0.002 sec
     gradient                   ...        0 min,  0.001 sec
 * total energy  :   -13.3823560 Eh     change       -0.4746278E-03 Eh
   gradient norm :     0.0087363 Eh/α   predicted    -0.5760349E-03 (  21.37%)
   displ. norm   :     0.0958672 α      lambda       -0.2899684E-03
   maximum displ.:     0.0772980 α      in ANC's #6, #4, #16, ...

........................................................................
.............................. CYCLE   10 ..............................
........................................................................

 iter      E             dE          RMSdq      gap      omega  full diag
   1    -13.5603308 -0.135603E+02  0.242E-01    2.43       0.0  T
   2    -13.5604009 -0.700623E-04  0.117E-01    2.34       1.0  T
   3    -13.5604526 -0.517477E-04  0.731E-02    2.36       1.0  T
   4    -13.5604794 -0.267735E-04  0.178E-02    2.36       1.7  T
   5    -13.5604798 -0.433892E-06  0.847E-03    2.36       3.6  T
   6    -13.5604798 -0.228757E-07  0.172E-03    2.36      17.5  T
   7    -13.5604798 -0.118226E-08  0.607E-04    2.36      49.6  T
   8    -13.5604798 -0.509749E-09  0.227E-04    2.36     132.9  T
     SCC iter.                  ...        0 min,  0.001 sec
     gradient                   ...        0 min,  0.001 sec
 * total energy  :   -13.3825193 Eh     change       -0.1632640E-03 Eh
   gradient norm :     0.0041159 Eh/α   predicted    -0.1463172E-03 ( -10.38%)
   displ. norm   :     0.1076774 α      lambda       -0.1559659E-03
   maximum displ.:     0.0741019 α      in ANC's #4, #1, #2, ...

........................................................................
.............................. CYCLE   11 ..............................
........................................................................

 iter      E             dE          RMSdq      gap      omega  full diag
   1    -13.5621471 -0.135621E+02  0.815E-02    2.38       0.0  T
   2    -13.5621553 -0.828183E-05  0.426E-02    2.41       1.0  T
   3    -13.5621567 -0.139030E-05  0.268E-02    2.40       1.1  T
   4    -13.5621592 -0.242624E-05  0.919E-03    2.41       3.3  T
   5    -13.5621595 -0.370804E-06  0.326E-03    2.41       9.2  T
   6    -13.5621595 -0.432235E-08  0.694E-04    2.41      43.4  T
   7    -13.5621595 -0.122146E-09  0.142E-04    2.41     211.9  T
     SCC iter.                  ...        0 min,  0.001 sec
     gradient                   ...        0 min,  0.001 sec
 * total energy  :   -13.3826109 Eh     change       -0.9167439E-04 Eh
   gradient norm :     0.0033622 Eh/α   predicted    -0.7888707E-04 ( -13.95%)
   displ. norm   :     0.0970824 α      lambda       -0.7035981E-04
   maximum displ.:     0.0696645 α      in ANC's #1, #4, #2, ...

........................................................................
.............................. CYCLE   12 ..............................
........................................................................

 iter      E             dE          RMSdq      gap      omega  full diag
   1    -13.5615476 -0.135615E+02  0.729E-02    2.42       0.0  T
   2    -13.5615514 -0.379668E-05  0.375E-02    2.44       1.0  T
   3    -13.5615510  0.378726E-06  0.186E-02    2.43       1.6  T
   4    -13.5615519 -0.899082E-06  0.772E-03    2.44       3.9  T
   5    -13.5615523 -0.320429E-06  0.270E-03    2.44      11.2  T
   6    -13.5615523 -0.843618E-08  0.536E-04    2.44      56.2  T
   7    -13.5615523 -0.743938E-10  0.203E-04    2.44     148.6  T
     SCC iter.                  ...        0 min,  0.001 sec
     gradient                   ...        0 min,  0.001 sec
 * total energy  :   -13.3826589 Eh     change       -0.4798728E-04 Eh
   gradient norm :     0.0031844 Eh/α   predicted    -0.3551261E-04 ( -26.00%)
   displ. norm   :     0.0893448 α      lambda       -0.4517888E-04
   maximum displ.:     0.0659608 α      in ANC's #4, #1, #2, ...

........................................................................
.............................. CYCLE   13 ..............................
........................................................................

 iter      E             dE          RMSdq      gap      omega  full diag
   1    -13.5612155 -0.135612E+02  0.604E-02    2.45       0.0  T
   2    -13.5612177 -0.223542E-05  0.284E-02    2.46       1.1  T
   3    -13.5612175  0.232100E-06  0.125E-02    2.46       2.4  T
   4    -13.5612181 -0.635932E-06  0.520E-03    2.46       5.8  T
   5    -13.5612182 -0.931326E-07  0.270E-03    2.46      11.2  T
   6    -13.5612182 -0.944804E-08  0.512E-04    2.46      58.9  T
   7    -13.5612182 -0.814619E-10  0.181E-04    2.46     166.4  T
     SCC iter.                  ...        0 min,  0.001 sec
     gradient                   ...        0 min,  0.001 sec
 * total energy  :   -13.3826888 Eh     change       -0.2989782E-04 Eh
   gradient norm :     0.0034102 Eh/α   predicted    -0.2277082E-04 ( -23.84%)
   displ. norm   :     0.0520162 α      lambda       -0.2263736E-04
   maximum displ.:     0.0350351 α      in ANC's #4, #1, #2, ...

........................................................................
.............................. CYCLE   14 ..............................
........................................................................

 iter      E             dE          RMSdq      gap      omega  full diag
   1    -13.5608633 -0.135609E+02  0.395E-02    2.46       0.0  T
   2    -13.5608640 -0.726474E-06  0.191E-02    2.46       1.6  T
   3    -13.5608641 -0.226049E-07  0.575E-03    2.46       5.2  T
   4    -13.5608641 -0.709183E-07  0.311E-03    2.46       9.7  T
   5    -13.5608642 -0.127779E-07  0.181E-03    2.46      16.7  T
   6    -13.5608642 -0.105549E-07  0.402E-04    2.46      75.0  T
   7    -13.5608642 -0.295071E-10  0.567E-05    2.46     531.9  T
     SCC iter.                  ...        0 min,  0.001 sec
     gradient                   ...        0 min,  0.001 sec
 * total energy  :   -13.3827041 Eh     change       -0.1522529E-04 Eh
   gradient norm :     0.0021506 Eh/α   predicted    -0.1134936E-04 ( -25.46%)
   displ. norm   :     0.0217726 α      lambda       -0.1018524E-04
   maximum displ.:     0.0114731 α      in ANC's #4, #6, #3, ...

........................................................................
.............................. CYCLE   15 ..............................
........................................................................

 iter      E             dE          RMSdq      gap      omega  full diag
   1    -13.5609734 -0.135610E+02  0.271E-02    2.46       0.0  T
   2    -13.5609736 -0.257606E-06  0.125E-02    2.46       2.4  T
   3    -13.5609735  0.130765E-06  0.592E-03    2.46       5.1  T
   4    -13.5609737 -0.223827E-06  0.204E-03    2.46      14.8  T
   5    -13.5609737 -0.902756E-08  0.101E-03    2.46      29.9  T
   6    -13.5609737 -0.669399E-09  0.250E-04    2.46     120.8  T
   7    -13.5609737 -0.129479E-10  0.520E-05    2.46     579.8  T
     SCC iter.                  ...        0 min,  0.001 sec
     gradient                   ...        0 min,  0.001 sec
 * total energy  :   -13.3827101 Eh     change       -0.6032713E-05 Eh
   gradient norm :     0.0006137 Eh/α   predicted    -0.5094872E-05 ( -15.55%)
   displ. norm   :     0.0124236 α      lambda       -0.1516973E-05
   maximum displ.:     0.0070479 α      in ANC's #3, #2, #5, ...

........................................................................
.............................. CYCLE   16 ..............................
........................................................................

 iter      E             dE          RMSdq      gap      omega  full diag
   1    -13.5610369 -0.135610E+02  0.177E-02    2.46       0.0  T
   2    -13.5610370 -0.693476E-07  0.807E-03    2.46       3.7  T
   3    -13.5610369  0.470816E-07  0.335E-03    2.46       9.0  T
   4    -13.5610370 -0.754290E-07  0.108E-03    2.46      28.0  T
   5    -13.5610370 -0.112810E-08  0.393E-04    2.46      76.7  T
   6    -13.5610370 -0.283658E-09  0.660E-05    2.46     456.8  T
     SCC iter.                  ...        0 min,  0.001 sec
     gradient                   ...        0 min,  0.001 sec
 * total energy  :   -13.3827111 Eh     change       -0.1061278E-05 Eh
   gradient norm :     0.0005210 Eh/α   predicted    -0.7569432E-06 ( -28.68%)
   displ. norm   :     0.0097799 α      lambda       -0.5936336E-06
   maximum displ.:     0.0074483 α      in ANC's #3, #5, #2, ...

   *** GEOMETRY OPTIMIZATION CONVERGED AFTER 16 ITERATIONS ***

------------------------------------------------------------------------
 total energy gain   :        -0.0063788 Eh       -4.0027 kcal/mol
 total RMSD          :         0.6397386 a0        0.3385 Å
 total power (kW/mol):        -1.0467179 (step) -223.2372 (real)
------------------------------------------------------------------------

 ANCopt (total)                0 d,  0 h,  0 min,  0.075 sec
 optimizer setup                ...        0 min,  0.000 sec (  0.120%)
 model hessian                  ...        0 min,  0.001 sec (  1.530%)
 ANC generation                 ...        0 min,  0.000 sec (  0.228%)
 coordinate transformation      ...        0 min,  0.000 sec (  0.132%)
 single point calculation       ...        0 min,  0.046 sec ( 61.741%)
 optimization log               ...        0 min,  0.026 sec ( 34.357%)
 hessian update                 ...        0 min,  0.000 sec (  0.141%)
 rational function              ...        0 min,  0.001 sec (  0.977%)

================
 final structure:
================
11
 xtb: 6.7.1 (edcfbbe)
C           -3.49332946926477        2.04661242560582        0.43373614841672
C           -0.46198588339240        1.20854671342093       -0.39192021676025
H           -1.35746166695138        0.57687190582621       -0.47435511308843
H           -3.33230627835463        2.26780053785374        1.47364401627782
H           -3.65047277492345        2.88993440510605       -0.21378519717174
S           -0.95099618872589        2.81701671457365        0.23512657352738
H            0.24984345297272        0.73241023365163        0.28873453993734
H           -0.00055492880110        1.30620604017967       -1.37888745114649
C           -3.64547333926910        0.79185306044075        0.00007160715518
H           -3.51666016862247       -0.06000444372497        0.65243337940104
H           -3.83407175466716        0.56360340706619       -1.03929228654835
 
 Bond Distances (Angstroems)
 ---------------------------
C1-H4=1.0753         C1-H5=1.0748         C1-C9=1.3363         C2-H3=1.0989         C2-S6=1.7943         C2-H7=1.0939         
C2-H8=1.0939         H3-C2=1.0989         H4-C1=1.0753         H5-C1=1.0748         S6-C2=1.7943         H7-C2=1.0939         
H8-C2=1.0939         C9-C1=1.3363         C9-H10=1.0807        C9-H11=1.0807        H10-C9=1.0807        H11-C9=1.0807        
 C  H  Rav=1.0855 sigma=0.0092  Rmin=1.0748  Rmax=1.0989     7
 C  C  Rav=1.3363 sigma=0.0000  Rmin=1.3363  Rmax=1.3363     1
 S  C  Rav=1.7943 sigma=0.0000  Rmin=1.7943  Rmax=1.7943     1
 
 selected bond angles (degree)
 --------------------
H5-C1-H4=116.30                C9-C1-H4=121.60                C9-C1-H5=121.64                S6-C2-H3=108.63                
H7-C2-H3=109.07                H7-C2-S6=110.49                H8-C2-H3=109.11                H8-C2-S6=110.50                
H8-C2-H7=109.01                H10-C9-C1=122.05               H11-C9-C1=122.03               H11-C9-H10=115.78              
 
 selected dihedral angles (degree)
 ---------------------------------
H10-C9-C1-H4=353.79           H10-C9-C1-H5=181.78           H11-C9-C1-H4=178.32           H11-C9-C1-H5=  6.30           
 
 CMA Distance (Angstroems)
 ---------------------------
R(CMA):  2.9195
           -------------------------------------------------
          |                Final Singlepoint                |
           -------------------------------------------------

          ...................................................
          :                      SETUP                      :
          :.................................................:
          :  # basis functions                  29          :
          :  # atomic orbitals                  28          :
          :  # shells                           16          :
          :  # electrons                        26          :
          :  max. iterations                   250          :
          :  Hamiltonian                  GFN2-xTB          :
          :  restarted?                      false          :
          :  GBSA solvation                  false          :
          :  PC potential                    false          :
          :  electronic temp.          300.0000000     K    :
          :  accuracy                    1.0000000          :
          :  -> integral cutoff          0.2500000E+02      :
          :  -> integral neglect         0.1000000E-07      :
          :  -> SCF convergence          0.1000000E-05 Eh   :
          :  -> wf. convergence          0.1000000E-03 e    :
          :  Broyden damping             0.4000000          :
          :  net charge                         -1          :
          :  unpaired electrons                  0          :
          ...................................................

 iter      E             dE          RMSdq      gap      omega  full diag
   1    -13.5610370 -0.135610E+02  0.155E-05    2.46       0.0  T
   2    -13.5610370 -0.976996E-13  0.990E-06    2.46    3046.2  T
   3    -13.5610370 -0.177636E-14  0.386E-06    2.46    7815.7  T

   *** convergence criteria satisfied after 3 iterations ***

         #    Occupation            Energy/Eh            Energy/eV
      -------------------------------------------------------------
         1        2.0000           -0.4554759             -12.3941
       ...           ...                  ...                  ...
         7        2.0000           -0.3054171              -8.3108
         8        2.0000           -0.2981640              -8.1135
         9        2.0000           -0.2666261              -7.2553
        10        2.0000           -0.2450106              -6.6671
        11        2.0000           -0.2270765              -6.1791
        12        2.0000           -0.1192107              -3.2439
        13        2.0000           -0.1129478              -3.0735 (HOMO)
        14                         -0.0226584              -0.6166 (LUMO)
        15                          0.0554118               1.5078
        16                          0.2255620               6.1379
        17                          0.2259401               6.1481
        18                          0.2411137               6.5610
       ...                                ...                  ...
        28                          0.7302019              19.8698
      -------------------------------------------------------------
                  HL-Gap            0.0902895 Eh            2.4569 eV
             Fermi-level           -0.0678031 Eh           -1.8450 eV

 SCC (total)                   0 d,  0 h,  0 min,  0.002 sec
 SCC setup                      ...        0 min,  0.000 sec (  3.162%)
 Dispersion                     ...        0 min,  0.000 sec (  1.570%)
 classical contributions        ...        0 min,  0.000 sec (  0.409%)
 integral evaluation            ...        0 min,  0.000 sec ( 21.650%)
 iterations                     ...        0 min,  0.001 sec ( 26.651%)
 molecular gradient             ...        0 min,  0.001 sec ( 42.633%)
 printout                       ...        0 min,  0.000 sec (  2.850%)

         :::::::::::::::::::::::::::::::::::::::::::::::::::::
         ::                     SUMMARY                     ::
         :::::::::::::::::::::::::::::::::::::::::::::::::::::
         :: total energy             -13.382711144832 Eh    ::
         :: gradient norm              0.000521970750 Eh/a0 ::
         :: HOMO-LUMO gap              2.456901197964 eV    ::
         ::.................................................::
         :: SCC energy               -13.561029938000 Eh    ::
         :: -> isotropic ES            0.129671217291 Eh    ::
         :: -> anisotropic ES          0.006230667857 Eh    ::
         :: -> anisotropic XC          0.012353272133 Eh    ::
         :: -> dispersion             -0.006856140620 Eh    ::
         :: repulsion energy           0.178318793168 Eh    ::
         :: add. restraining           0.000000000000 Eh    ::
         :: total charge              -1.000000000000 e     ::
         :::::::::::::::::::::::::::::::::::::::::::::::::::::

           ------------------------------------------------- 
          |                Numerical Hessian                |
           ------------------------------------------------- 
step length          :   0.00500
SCC accuracy         :   0.30000
Hessian scale factor :   1.00000
frozen atoms in %    :   0.00000    0
RMS gradient         :   0.00052
estimated CPU  time      0.01 min
estimated wall time      0.00 min

writing file <hessian>.

 projected vibrational frequencies (cm⁻¹)
eigval :       -0.00    -0.00    -0.00     0.00     0.00     0.00
eigval :       69.29   142.27   163.43   183.22   273.86   384.22
eigval :      730.06   750.06   825.59   903.88   944.81   955.53
eigval :      968.78  1177.89  1322.44  1377.58  1427.59  1489.92
eigval :     1491.40  1623.50  2838.61  2896.17  2920.18  3052.34
eigval :     3055.90  3118.47  3140.51
           -------------------------------------------------
          |                Property Printout                |
           -------------------------------------------------

    * Orbital Energies and Occupations

         #    Occupation            Energy/Eh            Energy/eV
      -------------------------------------------------------------
         1        2.0000           -0.4554759             -12.3941
         2        2.0000           -0.4317606             -11.7488
         3        2.0000           -0.4053214             -11.0294
         4        2.0000           -0.3794048             -10.3241
         5        2.0000           -0.3356604              -9.1338
         6        2.0000           -0.3068514              -8.3499
         7        2.0000           -0.3054172              -8.3108
         8        2.0000           -0.2981640              -8.1135
         9        2.0000           -0.2666261              -7.2553
        10        2.0000           -0.2450106              -6.6671
        11        2.0000           -0.2270765              -6.1791
        12        2.0000           -0.1192107              -3.2439
        13        2.0000           -0.1129478              -3.0735 (HOMO)
        14                         -0.0226583              -0.6166 (LUMO)
        15                          0.0554118               1.5078
        16                          0.2255620               6.1379
        17                          0.2259401               6.1481
        18                          0.2411137               6.5610
        19                          0.2510646               6.8318
        20                          0.3024287               8.2295
        21                          0.3278176               8.9204
        22                          0.3309776               9.0064
        23                          0.3727998              10.1444
        24                          0.4058465              11.0436
       ...                                ...                  ...
        28                          0.7302020              19.8698
      -------------------------------------------------------------
                  HL-Gap            0.0902895 Eh            2.4569 eV
             Fermi-level           -0.0678031 Eh           -1.8450 eV

     #   Z          covCN         q      C6AA      α(0)
     1   6 C        2.917    -0.046    29.131     8.851
     2   6 C        3.743     0.041    19.954     6.373
     3   1 H        0.924    -0.016     3.348     2.862
     4   1 H        0.926     0.017     2.772     2.604
     5   1 H        0.926     0.018     2.766     2.601
     6  16 S        1.055    -0.791   176.514    22.470
     7   1 H        0.924    -0.035     3.738     3.023
     8   1 H        0.924    -0.035     3.736     3.023
     9   6 C        2.832    -0.107    30.705     9.080
    10   1 H        0.926    -0.024     3.504     2.927
    11   1 H        0.926    -0.024     3.503     2.927

 Mol. C6AA /au·bohr⁶  :       1714.185979
 Mol. C8AA /au·bohr⁸  :      48360.685534
 Mol. α(0) /au        :         66.739688


Wiberg/Mayer (AO) data.
largest (>0.10) Wiberg bond orders for each atom

 ---------------------------------------------------------------------------
     #   Z sym  total        # sym  WBO       # sym  WBO       # sym  WBO
 ---------------------------------------------------------------------------
     1   6 C    3.993 --     9 C    1.847     4 H    0.982     5 H    0.982
                             6 S    0.170
     2   6 C    3.992 --     6 S    1.035     7 H    0.988     8 H    0.988
                             3 H    0.968
     3   1 H    1.000 --     2 C    0.968
     4   1 H    1.000 --     1 C    0.982
     5   1 H    1.000 --     1 C    0.982
     6  16 S    1.366 --     2 C    1.035     1 C    0.170     9 C    0.135
     7   1 H    0.999 --     2 C    0.988
     8   1 H    0.999 --     2 C    0.988
     9   6 C    3.967 --     1 C    1.847    11 H    0.979    10 H    0.979
                             6 S    0.135
    10   1 H    0.999 --     9 C    0.979
    11   1 H    0.999 --     9 C    0.979
 ---------------------------------------------------------------------------

Topologies differ in total number of bonds
Writing topology from bond orders to xtbtopo.mol

molecular dipole:
                 x           y           z       tot (Debye)
 q only:        2.547      -4.454      -0.275
   full:        2.669      -5.078      -0.508      14.638
molecular quadrupole (traceless):
                xx          xy          yy          xz          yz          zz
 q only:        1.030      13.195     -17.146       0.691      -2.476      16.116
  q+dip:        1.822      15.698     -22.331       1.972      -4.724      20.509
   full:        2.274      15.304     -22.068       1.579      -4.256      19.794

           -------------------------------------------------
          |                Geometry Summary                 |
           -------------------------------------------------

      molecular mass/u    :       75.1525804
   center of mass at/Å    :       -1.8275896       1.9597189       0.0977426
  moments of inertia/u·Å² :        0.5562604E+02   0.1587825E+03   0.2044577E+03
rotational constants/cm⁻¹ :        0.3030529E+00   0.1061681E+00   0.8245048E-01

 * 8 selected distances

     #   Z          #   Z                                           value/Å
     2   6 C        3   1 H                                       1.0989475
     1   6 C        4   1 H                                       1.0752959
     1   6 C        5   1 H                                       1.0747884 (min)
     2   6 C        7   1 H                                       1.0939370
     2   6 C        8   1 H                                       1.0938740
     1   6 C        9   6 C                                       1.3362762 (max)
     9   6 C       10   1 H                                       1.0806619
     9   6 C       11   1 H                                       1.0807149

 * 2 distinct bonds (by element types)

   Z      Z             #   av. dist./Å        max./Å        min./Å
   1 H    6 C           7     1.0854599     1.0989475     1.0747884
   6 C    6 C           1     1.3362762     1.3362762     1.3362762

           -------------------------------------------------
          |               Frequency Printout                |
           -------------------------------------------------
 projected vibrational frequencies (cm⁻¹)
eigval :       -0.00    -0.00    -0.00     0.00     0.00     0.00
eigval :       69.29   142.27   163.43   183.22   273.86   384.22
eigval :      730.06   750.06   825.59   903.88   944.81   955.53
eigval :      968.78  1177.89  1322.44  1377.58  1427.59  1489.92
eigval :     1491.40  1623.50  2838.61  2896.17  2920.18  3052.34
eigval :     3055.90  3118.47  3140.51
 reduced masses (amu)
   1: 10.65   2: 21.45   3: 17.17   4: 15.88   5: 11.84   6: 23.76   7:  9.24   8: 14.18
   9:  2.20  10: 16.86  11:  9.92  12:  1.74  13:  8.82  14: 13.14  15:  1.43  16:  2.25
  17:  3.00  18:  2.97  19:  1.01  20:  5.24  21:  2.55  22:  2.80  23:  2.22  24:  1.70
  25:  1.70  26:  9.46  27:  1.78  28:  1.97  29:  1.34  30:  1.48  31:  2.06  32:  1.53
  33:  2.12
 IR intensities (km·mol⁻¹)
   1:  0.52   2: 14.38   3:  6.23   4:  9.02   5:  1.56   6: 18.84   7:  6.45   8: 21.32
   9:  1.01  10: 36.28  11: 24.11  12:  0.27  13: 23.84  14: 18.39  15:  0.97  16:  5.51
  17:  0.19  18:  1.77  19:  0.11  20:  0.02  21: 52.86  22: 51.43  23: 18.71  24:  0.65
  25:  3.55  26:158.66  27: 35.83  28: 83.09  29: 99.34  30: 60.71  31:106.72  32: 43.15
  33: 72.77
 Raman intensities (Ä⁴*amu⁻¹)
   1:  0.00   2:  0.00   3:  0.00   4:  0.00   5:  0.00   6:  0.00   7:  0.00   8:  0.00
   9:  0.00  10:  0.00  11:  0.00  12:  0.00  13:  0.00  14:  0.00  15:  0.00  16:  0.00
  17:  0.00  18:  0.00  19:  0.00  20:  0.00  21:  0.00  22:  0.00  23:  0.00  24:  0.00
  25:  0.00  26:  0.00  27:  0.00  28:  0.00  29:  0.00  30:  0.00  31:  0.00  32:  0.00
  33:  0.00
 output can be read by thermo (or use thermo option).
 writing <g98.out> molden fake output.
 recommended (thermochemical) frequency scaling factor: 1.0
           -------------------------------------------------
          |             Thermodynamic Functions             |
           -------------------------------------------------

Molecule has no symmetry elements
It seems to be the C1 point group
c1  symmetry found (for desy threshold:  0.10E+00) used in thermo

          ...................................................
          :                      SETUP                      :
          :.................................................:
          :  # frequencies                          27      :
          :  # imaginary freq.                       0      :
          :  linear?                             false      :
          :  only rotor calc.                    false      :
          :  symmetry                               c1      :
          :  rotational number                       1      :
          :  scaling factor                  1.0000000      :
          :  rotor cutoff                   50.0000000 cm⁻¹ :
          :  imag. cutoff                  -20.0000000 cm⁻¹ :
          :.................................................:

    mode    ω/cm⁻¹     T·S(HO)/kcal·mol⁻¹    T·S(FR)/kcal·mol⁻¹   T·S(vib)
   ------------------------------------------------------------------------
       1     69.29    -1.24427 ( 78.67%)    -0.95936 ( 21.33%)    -1.18351
       2    142.27    -0.82679 ( 98.50%)    -0.74651 (  1.50%)    -0.82558
       3    163.43    -0.74826 ( 99.13%)    -0.70547 (  0.87%)    -0.74788
       4    183.22    -0.68435 ( 99.45%)    -0.67163 (  0.55%)    -0.68428
       5    273.86    -0.46861 ( 99.89%)    -0.55263 (  0.11%)    -0.46870
   ------------------------------------------------------------------------

   temp. (K)  partition function   enthalpy   heat capacity  entropy
                                   cal/mol     cal/K/mol   cal/K/mol   J/K/mol
 298.15  VIB   40.6                 2476.062     15.289     15.459
         ROT  0.103E+06              888.752      2.981     25.912
         INT  0.417E+07             3364.814     18.270     41.371
         TR   0.630E+27             1481.254      4.968     38.849
         TOT                        4846.0678    23.2382    80.2198   335.6395

       T/K    H(0)-H(T)+PV         H(T)/Eh          T*S/Eh         G(T)/Eh
   ------------------------------------------------------------------------
    298.15    0.772270E-02    0.948114E-01    0.381150E-01    0.566964E-01
   ------------------------------------------------------------------------

         :::::::::::::::::::::::::::::::::::::::::::::::::::::
         ::                  THERMODYNAMIC                  ::
         :::::::::::::::::::::::::::::::::::::::::::::::::::::
         :: total free energy         -13.326014767610 Eh   ::
         ::.................................................::
         :: total energy              -13.382711144832 Eh   ::
         :: zero point energy           0.087088679717 Eh   ::
         :: G(RRHO) w/o ZPVE           -0.030392302495 Eh   ::
         :: G(RRHO) contrib.            0.056696377222 Eh   ::
         :::::::::::::::::::::::::::::::::::::::::::::::::::::

optimized geometry written to: xtbopt.xyz


           -------------------------------------------------
          | TOTAL ENERGY              -13.382711144832 Eh   |
          | TOTAL ENTHALPY            -13.287899764498 Eh   |
          | TOTAL FREE ENERGY         -13.326014767610 Eh   |
          | GRADIENT NORM               0.000521953254 Eh/α |
          | HOMO-LUMO GAP               2.456901942359 eV   |
           -------------------------------------------------

------------------------------------------------------------------------
 * finished run on 2025/10/18 at 18:36:33.148     
------------------------------------------------------------------------
 total:
 * wall-time:     0 d,  0 h,  0 min,  0.469 sec
 *  cpu-time:     0 d,  0 h,  0 min,  0.666 sec
 * ratio c/w:     1.420 speedup
 SCF:
 * wall-time:     0 d,  0 h,  0 min,  0.032 sec
 *  cpu-time:     0 d,  0 h,  0 min,  0.039 sec
 * ratio c/w:     1.217 speedup
 ANC optimizer:
 * wall-time:     0 d,  0 h,  0 min,  0.152 sec
 *  cpu-time:     0 d,  0 h,  0 min,  0.205 sec
 * ratio c/w:     1.350 speedup
 analytical hessian:
 * wall-time:     0 d,  0 h,  0 min,  0.243 sec
 *  cpu-time:     0 d,  0 h,  0 min,  0.373 sec
 * ratio c/w:     1.534 speedup

