11
 energy: -13.376332364273 gnorm: 0.017547417234 xtb: 6.7.1 (edcfbbe)
C           -3.68327700576514        2.00986525418710        0.45721519507753
C           -0.24743497358793        1.21254586487420       -0.42753239943340
H           -1.28970709174318        0.90282263147006       -0.37303690147675
H           -3.34918690951905        2.22139614022043        1.45978935290035
H           -3.80326302677785        2.86379414802095       -0.18916858586200
S           -0.13177489209839        2.91551689704864        0.11393554884395
H            0.36356866997531        0.59311725193134        0.22473315521610
H            0.11234271201037        1.14336194851371       -1.45110350741774
C           -3.91838660228449        0.78162162037098        0.04298083002702
H           -3.79678437359097       -0.07354043165277        0.68894287107075
H           -4.24956550661857        0.57034967501497       -0.96124955894595
11
 energy: -13.377156589598 gnorm: 0.006144936860 xtb: 6.7.1 (edcfbbe)
C           -3.71079439523172        2.01762083936057        0.46791472295501
C           -0.24561300340460        1.22325566124077       -0.42443398823131
H           -1.27532547430417        0.85483058127422       -0.39363711233986
H           -3.33471574030713        2.22549289680471        1.45584457436855
H           -3.78857925694879        2.86654992469157       -0.19120181487510
S           -0.19405665371762        2.93756458336372        0.13428727244804
H            0.37215220299638        0.59428772321960        0.22148898085554
H            0.12425080619450        1.14568849259061       -1.44979860496194
C           -3.92872057830383        0.78346302460320        0.04715912021921
H           -3.78120905103177       -0.07521932908258        0.68471471795196
H           -4.23085785594114        0.56731660193321       -0.96683186839022
11
 energy: -13.377549566174 gnorm: 0.009097975640 xtb: 6.7.1 (edcfbbe)
C           -3.68624837540303        2.02047416528313        0.46268448257833
C           -0.24814207632660        1.22700767014446       -0.42288784478922
H           -1.26429945540356        0.80146241774471       -0.41631799003040
H           -3.33842766221678        2.23056279720895        1.45787207200148
H           -3.79071709262434        2.87014283175535       -0.18825055338518
S           -0.28171267544473        2.94626239886053        0.15576123468483
H            0.38438547870343        0.60540630508922        0.22335022702207
H            0.14019940252951        1.16109575870935       -1.44722364057738
C           -3.90219394190937        0.78370322004623        0.04090899154566
H           -3.77980647166638       -0.07316167434820        0.68595050474090
H           -4.22650613023804        0.56789510950586       -0.96634148379120
11
 energy: -13.377941825765 gnorm: 0.009133257464 xtb: 6.7.1 (edcfbbe)
C           -3.67121277937441        2.02189221877586        0.46001354282374
C           -0.25955384969447        1.22308693916099       -0.42210724626388
H           -1.26669791316352        0.77509455938923       -0.42657770166633
H           -3.32927077881755        2.23210733981698        1.45692691906173
H           -3.77827011998675        2.87099639279601       -0.19097551534064
S           -0.34825404312678        2.93797886197397        0.16685578519438
H            0.38544916089635        0.61840423919836        0.22981141774310
H            0.14303859372955        1.17862763097746       -1.44365669360964
C           -3.89194194141380        0.78564412138265        0.04007293027856
H           -3.76652710641543       -0.07161174686885        0.68421782945460
H           -4.21022822263307        0.56863044339694       -0.96907526767571
11
 energy: -13.379319056463 gnorm: 0.011612615108 xtb: 6.7.1 (edcfbbe)
C           -3.61736414480964        2.02516038275258        0.45036134339629
C           -0.30920595489698        1.20909035190984       -0.41751828172626
H           -1.28789516136219        0.71419958005374       -0.44725079003473
H           -3.28953496066133        2.23559128840745        1.45200594769443
H           -3.72504392797116        2.87235983757935       -0.20326928949907
S           -0.54577663084618        2.90172278566226        0.19478736665331
H            0.36939881082684        0.65840501370653        0.25219085977743
H            0.13005407098712        1.23098256541304       -1.42870751281261
C           -3.84978154719813        0.79063196585968        0.03508611713563
H           -3.71871017646684       -0.06755641792195        0.67751148781791
H           -4.14960937760133        0.57026364657710       -0.97969124840236
11
 energy: -13.379979195497 gnorm: 0.036140174345 xtb: 6.7.1 (edcfbbe)
C           -3.51546597020929        2.03211656986296        0.43223831834357
C           -0.39603617285483        1.18829888936938       -0.40805881912715
H           -1.31630374518463        0.58990776562070       -0.48928685279842
H           -3.21758043156985        2.24346825019887        1.44334643518871
H           -3.62591486339468        2.87602154299145       -0.22517481825751
S           -0.92144921426773        2.83633240853826        0.24530022555447
H            0.34272076774841        0.73678343394313        0.29128028422313
H            0.10702271199199        1.32701401702132       -1.39735527657890
C           -3.77407428530069        0.79923925663373        0.02603892875994
H           -3.63542621310597       -0.06088742753460        0.66592627106940
H           -4.04096158385249        0.57255629335444       -0.99874869637718
11
 energy: -13.381317272679 gnorm: 0.017301504456 xtb: 6.7.1 (edcfbbe)
C           -3.52906672150733        2.03100530701617        0.43434329704780
C           -0.38173707816184        1.19687885986839       -0.40723708592070
H           -1.30656219352621        0.63334576301787       -0.47043024347428
H           -3.25091592292129        2.24507857978716        1.45125072381353
H           -3.64919641551381        2.87673095758808       -0.21917370134491
S           -0.80732658247023        2.83389295057532        0.21175655624742
H            0.32810451665950        0.72583632335304        0.28432174034276
H            0.08615034163195        1.29902279027128       -1.39405583816376
C           -3.78655916997760        0.79504654746408        0.02663080622199
H           -3.64783616949507       -0.06463324142420        0.66726023050268
H           -4.04852360471783        0.56864616248245       -0.99916048527247
11
 energy: -13.381881374318 gnorm: 0.014718689237 xtb: 6.7.1 (edcfbbe)
C           -3.52053560751568        2.03547706328688        0.43453735194918
C           -0.39389236270353        1.19647146322969       -0.40508517072749
H           -1.30283288229199        0.59896403517000       -0.48090246334292
H           -3.27053993255348        2.25234604322256        1.45900265558463
H           -3.64601676229078        2.88029766699032       -0.21887520282969
S           -0.87433863042131        2.82055749612000        0.21242637160151
H            0.32245685268033        0.74346670227809        0.29210529123512
H            0.08228443499631        1.31340697358634       -1.38643341384937
C           -3.76043919554655        0.79587461750029        0.02206439107471
H           -3.62473522851192       -0.06276016945205        0.66486508825502
H           -4.00487968584113        0.56674910806751       -1.00819889895060
11
 energy: -13.382356002073 gnorm: 0.008739414811 xtb: 6.7.1 (edcfbbe)
C           -3.51055726173613        2.04477236840912        0.43604697282180
C           -0.41157773823446        1.20081826348602       -0.40109768753520
H           -1.28818953358979        0.54064836294098       -0.49965619075070
H           -3.31937092524985        2.26708622918975        1.47352549394361
H           -3.65692274461349        2.88902220387776       -0.21315079505027
S           -0.98472004021936        2.79808634477628        0.21433719868810
H            0.30775744841203        0.76821754280453        0.30240411432602
H            0.07455716987338        1.33236314781577       -1.37451858348804
C           -3.70704112440633        0.79573055534295        0.01182530075028
H           -3.57875330199597       -0.05961367774865        0.66050320945227
H           -3.91865094823974        0.56371965910514       -1.02471303315772
11
 energy: -13.382519266071 gnorm: 0.004116742596 xtb: 6.7.1 (edcfbbe)
C           -3.52353232047315        2.04505326258973        0.43872520559969
C           -0.40837164783718        1.20510997802995       -0.40079410028508
H           -1.28942255781813        0.55084441502003       -0.49709754572897
H           -3.32970312449193        2.26698213452751        1.47298900672927
H           -3.67577903934883        2.88987108640031       -0.20837454579313
S           -0.94833694127410        2.80689247642641        0.21433511725725
H            0.30433755651011        0.75597598325836        0.29736644238897
H            0.07299052859027        1.32093803517765       -1.37818603470773
C           -3.70487676651876        0.79448958800704        0.01089888636624
H           -3.57364860743854       -0.05970726282496        0.65995761638028
H           -3.91712607989948        0.56440130338760       -1.02431404820665
11
 energy: -13.382610940457 gnorm: 0.003366722059 xtb: 6.7.1 (edcfbbe)
C           -3.51183242537735        2.04477998108280        0.43611722787658
C           -0.42547813260118        1.20821696865374       -0.39657463802318
H           -1.30393612473551        0.56021792815713       -0.49023543231685
H           -3.33111969722028        2.26682186927800        1.47221288558676
H           -3.66847044268058        2.88969209403661       -0.20975909275511
S           -0.95296126918397        2.80836654371042        0.21355096660532
H            0.28483215603354        0.75115719348086        0.29891591413647
H            0.04977173971190        1.31198998101831       -1.37610612614855
C           -3.68755225655049        0.79347005414283        0.00782189821166
H           -3.55492979241895       -0.05920862435301        0.65816383336639
H           -3.89179275497681        0.56534701079196       -1.02860143653933
11
 energy: -13.382658927734 gnorm: 0.003190105758 xtb: 6.7.1 (edcfbbe)
C           -3.50696647688266        2.04595428674072        0.43563548517190
C           -0.44040802502511        1.21032228761480       -0.39342673668770
H           -1.31907978116580        0.56169510155752       -0.48646511020988
H           -3.33807439752905        2.26824309777118        1.47363160206695
H           -3.66629568946882        2.89050819564453       -0.20996332096831
S           -0.95766117185304        2.81288281975268        0.21675119106556
H            0.27039302790492        0.74558882179553        0.29847757243334
H            0.03397605406287        1.30656031588924       -1.37583652236380
C           -3.66929058209503        0.79257231932783        0.00443350082779
H           -3.53582759038424       -0.05879615421882        0.65606468561412
H           -3.86423436756371        0.56531990812444       -1.03379634694980
11
 energy: -13.382688825550 gnorm: 0.003412130389 xtb: 6.7.1 (edcfbbe)
C           -3.49911643419281        2.04616060664742        0.43420036917777
C           -0.45516018494737        1.21041874365248       -0.39114473420283
H           -1.33935090138361        0.56835109836063       -0.48040781886945
H           -3.33443684622357        2.26770772820052        1.47281562787654
H           -3.65823766584855        2.89016830264577       -0.21206850285364
S           -0.95780073687751        2.81757685702924        0.22286769355801
H            0.25642910137844        0.73901517340159        0.29663689438175
H            0.01683547984063        1.30297691046444       -1.37634525553055
C           -3.65559608374741        0.79209924968430        0.00205419058011
H           -3.52167824399237       -0.05894475195679        0.65400282456558
H           -3.84535648400552        0.56532108187006       -1.03710528868310
11
 energy: -13.382704050840 gnorm: 0.002151647819 xtb: 6.7.1 (edcfbbe)
C           -3.49524637890361        2.04659975634396        0.43375125027392
C           -0.46218735213970        1.20940357952118       -0.39071996015245
H           -1.35242020622936        0.57308216300220       -0.47645967328845
H           -3.33300487797379        2.26785042093241        1.47333112483750
H           -3.65331906504451        2.89008801123234       -0.21341852503591
S           -0.95592406962015        2.81916177795102        0.22803370473673
H            0.24953141048803        0.73521068318644        0.29414472645785
H            0.00604464583167        1.30248222461134       -1.37709535353105
C           -3.64725331534095        0.79185992165832        0.00044762880877
H           -3.51485371258135       -0.05940966297655        0.65260515406432
H           -3.83483607848591        0.56452212453701       -1.03911407717103
11
 energy: -13.382710083553 gnorm: 0.000614826406 xtb: 6.7.1 (edcfbbe)
C           -3.49352769491324        2.04664570714050        0.43356615233291
C           -0.46318954792609        1.20857425727979       -0.39129234270823
H           -1.35765792166334        0.57614842798356       -0.47455148048718
H           -3.33060582872139        2.26762680328217        1.47298063729267
H           -3.65160119908233        2.89001153037676       -0.21376330296495
S           -0.95288510054160        2.81850988517246        0.23240013991830
H            0.24815793913210        0.73315865065244        0.29121653298645
H            0.00109321997509        1.30419141405040       -1.37799176573425
C           -3.64526084196248        0.79187654995084        0.00006603422009
H           -3.51438702598966       -0.05986993214690        0.65211109508742
H           -3.83360499830668        0.56397770625765       -1.03923569994303
11
 energy: -13.382711144831 gnorm: 0.000522153845 xtb: 6.7.1 (edcfbbe)
C           -3.49332946926477        2.04661242560582        0.43373614841672
C           -0.46198588339240        1.20854671342093       -0.39192021676025
H           -1.35746166695138        0.57687190582621       -0.47435511308843
H           -3.33230627835463        2.26780053785374        1.47364401627782
H           -3.65047277492345        2.88993440510605       -0.21378519717174
S           -0.95099618872589        2.81701671457365        0.23512657352738
H            0.24984345297272        0.73241023365163        0.28873453993734
H           -0.00055492880110        1.30620604017967       -1.37888745114649
C           -3.64547333926910        0.79185306044075        0.00007160715518
H           -3.51666016862247       -0.06000444372497        0.65243337940104
H           -3.83407175466716        0.56360340706619       -1.03929228654835
