11
 energy: -13.382711144832 gnorm: 0.000521970750 xtb: 6.7.1 (edcfbbe)
C           -3.49331723914173        2.04663147360943        0.43374477042110
C           -0.46198092351804        1.20854844833229       -0.39192071343424
H           -1.35746030224983        0.57687818557291       -0.47435138148112
H           -3.33228926012514        2.26782055770115        1.47365169015122
H           -3.65045838946068        2.88995314577114       -0.21377749850333
S           -0.95098061811047        2.81702210430413        0.23512497650685
H            0.24984829573064        0.73240942939478        0.28873238951996
H           -0.00055290276802        1.30620363647797       -1.37888972895854
C           -3.64546919281886        0.79187214820743        0.00008295021338
H           -3.51665820530692       -0.05998489183533        0.65244575958330
H           -3.83407243139809        0.56362166832213       -1.03927988677878
