
                                 *****************
                                 * O   R   C   A *
                                 *****************

                                            #,                                       
                                            ###                                      
                                            ####                                     
                                            #####                                    
                                            ######                                   
                                           ########,                                 
                                     ,,################,,,,,                         
                               ,,#################################,,                 
                          ,,##########################################,,             
                       ,#########################################, ''#####,          
                    ,#############################################,,   '####,        
                  ,##################################################,,,,####,       
                ,###########''''           ''''###############################       
              ,#####''   ,,,,##########,,,,          '''####'''          '####       
            ,##' ,,,,###########################,,,                        '##       
           ' ,,###''''                  '''############,,,                           
         ,,##''                                '''############,,,,        ,,,,,,###''
      ,#''                                            '''#######################'''  
     '                                                          ''''####''''         
             ,#######,   #######,   ,#######,      ##                                
            ,#'     '#,  ##    ##  ,#'     '#,    #''#        ######   ,####,        
            ##       ##  ##   ,#'  ##            #'  '#       #        #'  '#        
            ##       ##  #######   ##           ,######,      #####,   #    #        
            '#,     ,#'  ##    ##  '#,     ,#' ,#      #,         ##   #,  ,#        
             '#######'   ##     ##  '#######'  #'      '#     #####' # '####'        



                  #######################################################
                  #                        -***-                        #
                  #          Department of theory and spectroscopy      #
                  #    Directorship and core code : Frank Neese         #
                  #        Max Planck Institute fuer Kohlenforschung    #
                  #                Kaiser Wilhelm Platz 1               #
                  #                 D-45470 Muelheim/Ruhr               #
                  #                      Germany                        #
                  #                                                     #
                  #                  All rights reserved                #
                  #                        -***-                        #
                  #######################################################


                         Program Version 5.0.4 -  RELEASE  -


 With contributions from (in alphabetic order):
   Daniel Aravena         : Magnetic Suceptibility
   Michael Atanasov       : Ab Initio Ligand Field Theory (pilot matlab implementation)
   Alexander A. Auer      : GIAO ZORA, VPT2 properties, NMR spectrum
   Ute Becker             : Parallelization
   Giovanni Bistoni       : ED, misc. LED, open-shell LED, HFLD
   Martin Brehm           : Molecular dynamics
   Dmytro Bykov           : SCF Hessian
   Vijay G. Chilkuri      : MRCI spin determinant printing, contributions to CSF-ICE
   Dipayan Datta          : RHF DLPNO-CCSD density
   Achintya Kumar Dutta   : EOM-CC, STEOM-CC
   Dmitry Ganyushin       : Spin-Orbit,Spin-Spin,Magnetic field MRCI
   Miquel Garcia          : C-PCM and meta-GGA Hessian, CC/C-PCM, Gaussian charge scheme
   Yang Guo               : DLPNO-NEVPT2, F12-NEVPT2, CIM, IAO-localization
   Andreas Hansen         : Spin unrestricted coupled pair/coupled cluster methods
   Benjamin Helmich-Paris : MC-RPA, TRAH-SCF, COSX integrals
   Lee Huntington         : MR-EOM, pCC
   Robert Izsak           : Overlap fitted RIJCOSX, COSX-SCS-MP3, EOM
   Marcus Kettner         : VPT2
   Christian Kollmar      : KDIIS, OOCD, Brueckner-CCSD(T), CCSD density, CASPT2, CASPT2-K
   Simone Kossmann        : Meta GGA functionals, TD-DFT gradient, OOMP2, MP2 Hessian
   Martin Krupicka        : Initial AUTO-CI
   Lucas Lang             : DCDCAS
   Marvin Lechner         : AUTO-CI (C++ implementation), FIC-MRCC
   Dagmar Lenk            : GEPOL surface, SMD
   Dimitrios Liakos       : Extrapolation schemes; Compound Job, initial MDCI parallelization
   Dimitrios Manganas     : Further ROCIS development; embedding schemes
   Dimitrios Pantazis     : SARC Basis sets
   Anastasios Papadopoulos: AUTO-CI, single reference methods and gradients
   Taras Petrenko         : DFT Hessian,TD-DFT gradient, ASA, ECA, R-Raman, ABS, FL, XAS/XES, NRVS
   Peter Pinski           : DLPNO-MP2, DLPNO-MP2 Gradient
   Christoph Reimann      : Effective Core Potentials
   Marius Retegan         : Local ZFS, SOC
   Christoph Riplinger    : Optimizer, TS searches, QM/MM, DLPNO-CCSD(T), (RO)-DLPNO pert. Triples
   Tobias Risthaus        : Range-separated hybrids, TD-DFT gradient, RPA, STAB
   Michael Roemelt        : Original ROCIS implementation
   Masaaki Saitow         : Open-shell DLPNO-CCSD energy and density
   Barbara Sandhoefer     : DKH picture change effects
   Avijit Sen             : IP-ROCIS
   Kantharuban Sivalingam : CASSCF convergence, NEVPT2, FIC-MRCI
   Bernardo de Souza      : ESD, SOC TD-DFT
   Georgi Stoychev        : AutoAux, RI-MP2 NMR, DLPNO-MP2 response
   Willem Van den Heuvel  : Paramagnetic NMR
   Boris Wezisla          : Elementary symmetry handling
   Frank Wennmohs         : Technical directorship


 We gratefully acknowledge several colleagues who have allowed us to
 interface, adapt or use parts of their codes:
   Stefan Grimme, W. Hujo, H. Kruse, P. Pracht,  : VdW corrections, initial TS optimization,
                  C. Bannwarth, S. Ehlert          DFT functionals, gCP, sTDA/sTD-DF
   Ed Valeev, F. Pavosevic, A. Kumar             : LibInt (2-el integral package), F12 methods
   Garnet Chan, S. Sharma, J. Yang, R. Olivares  : DMRG
   Ulf Ekstrom                                   : XCFun DFT Library
   Mihaly Kallay                                 : mrcc  (arbitrary order and MRCC methods)
   Jiri Pittner, Ondrej Demel                    : Mk-CCSD
   Frank Weinhold                                : gennbo (NPA and NBO analysis)
   Christopher J. Cramer and Donald G. Truhlar   : smd solvation model
   Lars Goerigk                                  : TD-DFT with DH, B97 family of functionals
   V. Asgeirsson, H. Jonsson                     : NEB implementation
   FAccTs GmbH                                   : IRC, NEB, NEB-TS, DLPNO-Multilevel, CI-OPT
                                                   MM, QMMM, 2- and 3-layer-ONIOM, Crystal-QMMM,
                                                   LR-CPCM, SF, NACMEs, symmetry and pop. for TD-DFT,
                                                   nearIR, NL-DFT gradient (VV10), updates on ESD,
                                                   ML-optimized integration grids
   S Lehtola, MJT Oliveira, MAL Marques          : LibXC Library
   Liviu Ungur et al                             : ANISO software


 Your calculation uses the libint2 library for the computation of 2-el integrals
 For citations please refer to: http://libint.valeyev.net

 Your ORCA version has been built with support for libXC version: 5.1.0
 For citations please refer to: https://tddft.org/programs/libxc/

 This ORCA versions uses:
   CBLAS   interface :  Fast vector & matrix operations
   LAPACKE interface :  Fast linear algebra routines
   SCALAPACK package :  Parallel linear algebra routines
   Shared memory     :  Shared parallel matrices
   BLAS/LAPACK       :  OpenBLAS 0.3.15  USE64BITINT DYNAMIC_ARCH NO_AFFINITY Haswell SINGLE_THREADED
        Core in use  :  Haswell
   Copyright (c) 2011-2014, The OpenBLAS Project


Your calculation utilizes the atom-pairwise dispersion correction
with the Becke-Johnson damping scheme (D3BJ)
Cite in your paper:
S.Grimme, S.Ehrlich, L.Goerigk, J Comput Chem, (2011), 32, 1456–1465 
S.Grimme, J.Antony, S.Ehrlich and H.Krieg, J.Chem.Phys., 132, (2010), 154104 
   

================================================================================

----- Orbital basis set information -----
Your calculation utilizes the basis: def2-SVP
   F. Weigend and R. Ahlrichs, Phys. Chem. Chem. Phys. 7, 3297 (2005).

----- AuxJ basis set information -----
Your calculation utilizes the auxiliary basis: def2/J
   F. Weigend, Phys. Chem. Chem. Phys. 8, 1057 (2006).

================================================================================
                                        WARNINGS
                       Please study these warnings very carefully!
================================================================================


WARNING: Geometry Optimization
  ===> : Switching off AutoStart
         For restart on a previous wavefunction, please use MOREAD

INFO   : the flag for use of the SHARK integral package has been found!

================================================================================
                                       INPUT FILE
================================================================================
NAME = inp.inp
|  1> !OPT PBE D3BJ CPCM(water)
|  2> 
|  3> *xyz -1 1
|  4> C     -4.476171   -3.726329   -3.185020
|  5> C     -3.470289   -2.704741   -2.648483
|  6> C     -4.100872   -1.732837   -1.612328
|  7> O     -3.106745   -1.022021   -1.098329
|  8> O     -5.393260   -3.121704   -4.101515
|  9> C     -6.389154   -4.038396   -4.521691
| 10> H     -5.934223   -4.896645   -5.025787
| 11> H     -6.986325   -4.376012   -3.669106
| 12> H     -7.050185   -3.530185   -5.228874
| 13> H     -3.929560   -4.512101   -3.719776
| 14> H     -5.024001   -4.192647   -2.357587
| 15> H     -2.646258   -3.264976   -2.183885
| 16> H     -3.053288   -2.133834   -3.489686
| 17> H     -4.901294   -1.201976   -2.151214
| 18> H     -4.686720   -2.363017   -0.924456
| 19> *
| 20> 
| 21>                          ****END OF INPUT****
================================================================================

                       *****************************
                       * Geometry Optimization Run *
                       *****************************

Geometry optimization settings:
Update method            Update   .... BFGS
Choice of coordinates    CoordSys .... Z-matrix Internals
Initial Hessian          InHess   .... Almoef's Model

Convergence Tolerances:
Energy Change            TolE     ....  5.0000e-06 Eh
Max. Gradient            TolMAXG  ....  3.0000e-04 Eh/bohr
RMS Gradient             TolRMSG  ....  1.0000e-04 Eh/bohr
Max. Displacement        TolMAXD  ....  4.0000e-03 bohr
RMS Displacement         TolRMSD  ....  2.0000e-03 bohr
Strict Convergence                ....  False
------------------------------------------------------------------------------
                        ORCA OPTIMIZATION COORDINATE SETUP
------------------------------------------------------------------------------

The optimization will be done in new redundant internal coordinates
Making redundant internal coordinates   ...  (new redundants) done
Evaluating the initial hessian          ...  (Almloef) done
Evaluating the coordinates              ...  done
Calculating the B-matrix                .... done
Calculating the G-matrix                .... done
Diagonalizing the G-matrix              .... done
Small eigenvalue found = 2.820e-02
The first mode is                       ....   24
The number of degrees of freedom        ....   39

    -----------------------------------------------------------------
                    Redundant Internal Coordinates


    -----------------------------------------------------------------
         Definition                    Initial Value    Approx d2E/dq
    -----------------------------------------------------------------
      1. B(C   1,C   0)                  1.5308         0.372495   
      2. B(C   2,C   1)                  1.5543         0.341671   
      3. B(O   3,C   2)                  1.3258         0.708442   
      4. B(O   4,C   0)                  1.4306         0.482078   
      5. B(C   5,O   4)                  1.4173         0.506238   
      6. B(H   6,C   5)                  1.0944         0.354353   
      7. B(H   7,C   5)                  1.0943         0.354452   
      8. B(H   8,C   5)                  1.0933         0.355735   
      9. B(H   9,C   0)                  1.0964         0.351678   
     10. B(H  10,C   0)                  1.0965         0.351660   
     11. B(H  11,C   1)                  1.0994         0.347842   
     12. B(H  12,C   1)                  1.0988         0.348595   
     13. B(H  13,C   2)                  1.1013         0.345443   
     14. B(H  14,C   2)                  1.1016         0.345083   
     15. A(C   1,C   0,H  10)          110.3429         0.322906   
     16. A(O   4,C   0,H  10)          110.0541         0.334924   
     17. A(O   4,C   0,H   9)          108.0605         0.334927   
     18. A(C   1,C   0,O   4)          111.3293         0.377071   
     19. A(H   9,C   0,H  10)          108.2008         0.288686   
     20. A(C   1,C   0,H   9)          108.7614         0.322908   
     21. A(C   2,C   1,H  11)          109.9380         0.317811   
     22. A(C   0,C   1,H  12)          109.1339         0.322443   
     23. A(H  11,C   1,H  12)          107.6871         0.287797   
     24. A(C   0,C   1,C   2)          112.6045         0.357688   
     25. A(C   2,C   1,H  12)          109.8415         0.317923   
     26. A(C   0,C   1,H  11)          107.4906         0.322328   
     27. A(H  13,C   2,H  14)          101.2314         0.287031   
     28. A(O   3,C   2,H  14)          117.6063         0.356169   
     29. A(O   3,C   2,H  13)          118.4400         0.356232   
     30. A(C   1,C   2,H  13)          105.6688         0.317453   
     31. A(C   1,C   2,O   3)          106.8274         0.397212   
     32. A(C   1,C   2,H  14)          105.9215         0.317399   
     33. A(C   0,O   4,C   5)          111.5322         0.395243   
     34. A(H   6,C   5,H   7)          110.1070         0.289388   
     35. A(O   4,C   5,H   7)          110.6115         0.338107   
     36. A(H   7,C   5,H   8)          108.5068         0.289564   
     37. A(O   4,C   5,H   6)          110.5911         0.338091   
     38. A(H   6,C   5,H   8)          108.5379         0.289551   
     39. A(O   4,C   5,H   8)          108.4185         0.338311   
     40. D(H  12,C   1,C   0,O   4)    -48.2535         0.011083   
     41. D(H  11,C   1,C   0,H  10)     72.7215         0.011083   
     42. D(H  11,C   1,C   0,O   4)   -164.7729         0.011083   
     43. D(H  12,C   1,C   0,H   9)     70.7019         0.011083   
     44. D(H  11,C   1,C   0,H   9)    -45.8176         0.011083   
     45. D(C   2,C   1,C   0,H  10)    -48.5092         0.011083   
     46. D(C   2,C   1,C   0,H   9)   -167.0482         0.011083   
     47. D(H  12,C   1,C   0,H  10)   -170.7591         0.011083   
     48. D(C   2,C   1,C   0,O   4)     73.9964         0.011083   
     49. D(H  13,C   2,C   1,H  11)    179.1950         0.009444   
     50. D(H  13,C   2,C   1,C   0)    -60.9804         0.009444   
     51. D(O   3,C   2,C   1,H  12)    -66.1136         0.009444   
     52. D(O   3,C   2,C   1,H  11)     52.2119         0.009444   
     53. D(H  13,C   2,C   1,H  12)     60.8695         0.009444   
     54. D(O   3,C   2,C   1,C   0)    172.0365         0.009444   
     55. D(H  14,C   2,C   1,H  12)    167.7499         0.009444   
     56. D(H  14,C   2,C   1,H  11)    -73.9246         0.009444   
     57. D(H  14,C   2,C   1,C   0)     45.9000         0.009444   
     58. D(C   5,O   4,C   0,H  10)    -52.8010         0.018337   
     59. D(C   5,O   4,C   0,H   9)     65.1539         0.018337   
     60. D(C   5,O   4,C   0,C   1)   -175.4727         0.018337   
     61. D(H   8,C   5,O   4,C   0)   -179.1500         0.020277   
     62. D(H   7,C   5,O   4,C   0)     61.9892         0.020277   
     63. D(H   6,C   5,O   4,C   0)    -60.2633         0.020277   
    -----------------------------------------------------------------

Number of atoms                         .... 15
Number of degrees of freedom            .... 63

         *************************************************************
         *                GEOMETRY OPTIMIZATION CYCLE   1            *
         *************************************************************
---------------------------------
CARTESIAN COORDINATES (ANGSTROEM)
---------------------------------
  C     -4.476171   -3.726329   -3.185020
  C     -3.470289   -2.704741   -2.648483
  C     -4.100872   -1.732837   -1.612328
  O     -3.106745   -1.022021   -1.098329
  O     -5.393260   -3.121704   -4.101515
  C     -6.389154   -4.038396   -4.521691
  H     -5.934223   -4.896645   -5.025787
  H     -6.986325   -4.376012   -3.669106
  H     -7.050185   -3.530185   -5.228874
  H     -3.929560   -4.512101   -3.719776
  H     -5.024001   -4.192647   -2.357587
  H     -2.646258   -3.264976   -2.183885
  H     -3.053288   -2.133834   -3.489686
  H     -4.901294   -1.201976   -2.151214
  H     -4.686720   -2.363017   -0.924456

----------------------------
CARTESIAN COORDINATES (A.U.)
----------------------------
  NO LB      ZA    FRAG     MASS         X           Y           Z
   0 C     6.0000    0    12.011   -8.458737   -7.041741   -6.018816
   1 C     6.0000    0    12.011   -6.557896   -5.111220   -5.004908
   2 C     6.0000    0    12.011   -7.749525   -3.274587   -3.046858
   3 O     8.0000    0    15.999   -5.870897   -1.931340   -2.075541
   4 O     8.0000    0    15.999  -10.191784   -5.899166   -7.750740
   5 C     6.0000    0    12.011  -12.073751   -7.631462   -8.544758
   6 H     1.0000    0     1.008  -11.214056   -9.253318   -9.497361
   7 H     1.0000    0     1.008  -13.202241   -8.269464   -6.933605
   8 H     1.0000    0     1.008  -13.322919   -6.671083   -9.881140
   9 H     1.0000    0     1.008   -7.425792   -8.526635   -7.029358
  10 H     1.0000    0     1.008   -9.493986   -7.922955   -4.455194
  11 H     1.0000    0     1.008   -5.000703   -6.169910   -4.126945
  12 H     1.0000    0     1.008   -5.769878   -4.032362   -6.594551
  13 H     1.0000    0     1.008   -9.262103   -2.271405   -4.065205
  14 H     1.0000    0     1.008   -8.856617   -4.465455   -1.746969

--------------------------------
INTERNAL COORDINATES (ANGSTROEM)
--------------------------------
 C      0   0   0     0.000000000000     0.00000000     0.00000000
 C      1   0   0     1.530788225731     0.00000000     0.00000000
 C      2   1   0     1.554300321408   112.60451855     0.00000000
 O      3   2   1     1.325798947799   106.82739333   172.03650734
 O      1   2   3     1.430589637028   111.32933312    73.99642927
 C      5   1   2     1.417278008394   111.53221783   184.52725923
 H      6   5   1     1.094379430535   110.59114246   299.73670874
 H      6   5   1     1.094302951162   110.61147917    61.98922619
 H      6   5   1     1.093319806356   108.41850929   180.85000281
 H      1   2   3     1.096442064516   108.76135029   192.95180604
 H      1   2   3     1.096455906780   110.34286307   311.49084752
 H      2   1   3     1.099427872027   107.49062599   121.23063386
 H      2   1   3     1.098838989051   109.13385563   237.75008291
 H      3   2   1     1.101311445687   105.66883660   299.01961313
 H      3   2   1     1.101595479243   105.92148896    45.90002671

---------------------------
INTERNAL COORDINATES (A.U.)
---------------------------
 C      0   0   0     0.000000000000     0.00000000     0.00000000
 C      1   0   0     2.892770515663     0.00000000     0.00000000
 C      2   1   0     2.937201937327   112.60451855     0.00000000
 O      3   2   1     2.505396919982   106.82739333   172.03650734
 O      1   2   3     2.703422624008   111.32933312    73.99642927
 C      5   1   2     2.678267291493   111.53221783   184.52725923
 H      6   5   1     2.068077410308   110.59114246   299.73670874
 H      6   5   1     2.067932885238   110.61147917    61.98922619
 H      6   5   1     2.066075010805   108.41850929   180.85000281
 H      1   2   3     2.071975223647   108.76135029   192.95180604
 H      1   2   3     2.072001381735   110.34286307   311.49084752
 H      2   1   3     2.077617582131   107.49062599   121.23063386
 H      2   1   3     2.076504754582   109.13385563   237.75008291
 H      3   2   1     2.081177020501   105.66883660   299.01961313
 H      3   2   1     2.081713766134   105.92148896    45.90002671

---------------------
BASIS SET INFORMATION
---------------------
There are 3 groups of distinct atoms

 Group   1 Type C   : 7s4p1d contracted to 3s2p1d pattern {511/31/1}
 Group   2 Type O   : 7s4p1d contracted to 3s2p1d pattern {511/31/1}
 Group   3 Type H   : 4s1p contracted to 2s1p pattern {31/1}

Atom   0C    basis set group =>   1
Atom   1C    basis set group =>   1
Atom   2C    basis set group =>   1
Atom   3O    basis set group =>   2
Atom   4O    basis set group =>   2
Atom   5C    basis set group =>   1
Atom   6H    basis set group =>   3
Atom   7H    basis set group =>   3
Atom   8H    basis set group =>   3
Atom   9H    basis set group =>   3
Atom  10H    basis set group =>   3
Atom  11H    basis set group =>   3
Atom  12H    basis set group =>   3
Atom  13H    basis set group =>   3
Atom  14H    basis set group =>   3
---------------------------------
AUXILIARY/J BASIS SET INFORMATION
---------------------------------
There are 3 groups of distinct atoms

 Group   1 Type C   : 12s5p4d2f1g contracted to 6s4p3d1f1g pattern {711111/2111/211/2/1}
 Group   2 Type O   : 12s5p4d2f1g contracted to 6s4p3d1f1g pattern {711111/2111/211/2/1}
 Group   3 Type H   : 5s2p1d contracted to 3s1p1d pattern {311/2/1}

Atom   0C    basis set group =>   1
Atom   1C    basis set group =>   1
Atom   2C    basis set group =>   1
Atom   3O    basis set group =>   2
Atom   4O    basis set group =>   2
Atom   5C    basis set group =>   1
Atom   6H    basis set group =>   3
Atom   7H    basis set group =>   3
Atom   8H    basis set group =>   3
Atom   9H    basis set group =>   3
Atom  10H    basis set group =>   3
Atom  11H    basis set group =>   3
Atom  12H    basis set group =>   3
Atom  13H    basis set group =>   3
Atom  14H    basis set group =>   3
------------------------------------------------------------------------------
                           ORCA GTO INTEGRAL CALCULATION
                           -- RI-GTO INTEGRALS CHOSEN --
------------------------------------------------------------------------------
------------------------------------------------------------------------------
                   ___                                                        
                  /   \      - P O W E R E D   B Y -                         
                 /     \                                                     
                 |  |  |   _    _      __       _____    __    __             
                 |  |  |  | |  | |    /  \     |  _  \  |  |  /  |          
                  \  \/   | |  | |   /    \    | | | |  |  | /  /          
                 / \  \   | |__| |  /  /\  \   | |_| |  |  |/  /          
                |  |  |   |  __  | /  /__\  \  |    /   |      \           
                |  |  |   | |  | | |   __   |  |    \   |  |\   \          
                \     /   | |  | | |  |  |  |  | |\  \  |  | \   \       
                 \___/    |_|  |_| |__|  |__|  |_| \__\ |__|  \__/        
                                                                              
                      - O R C A' S   B I G   F R I E N D -                    
                                      &                                       
                       - I N T E G R A L  F E E D E R -                       
                                                                              
 v1 FN, 2020, v2 2021                                                         
------------------------------------------------------------------------------


Reading SHARK input file inp.SHARKINP.tmp ... ok
----------------------
SHARK INTEGRAL PACKAGE
----------------------

Number of atoms                             ...     15
Number of basis functions                   ...    129
Number of shells                            ...     63
Maximum angular momentum                    ...      2
Integral batch strategy                     ... SHARK/LIBINT Hybrid
RI-J (if used) integral strategy            ... SPLIT-RIJ (Revised 2003 algorithm where possible)
Printlevel                                  ...      1
Contraction scheme used                     ... SEGMENTED contraction
Coulomb Range Separation                    ... NOT USED
Exchange Range Separation                   ... NOT USED
Finite Nucleus Model                        ... NOT USED
Auxiliary Coulomb fitting basis             ... AVAILABLE
   # of basis functions in Aux-J            ...    393
   # of shells in Aux-J                     ...    135
   Maximum angular momentum in Aux-J        ...      4
Auxiliary J/K fitting basis                 ... NOT available
Auxiliary Correlation fitting basis         ... NOT available
Auxiliary 'external' fitting basis          ... NOT available
Integral threshold                          ...     2.500000e-11
Primitive cut-off                           ...     2.500000e-12
Primitive pair pre-selection threshold      ...     2.500000e-12

Calculating pre-screening integrals         ... done (  0.0 sec) Dimension = 63
Organizing shell pair data                  ... done (  0.0 sec)
Shell pair information
Total number of shell pairs                 ...      2016
Shell pairs after pre-screening             ...      1904
Total number of primitive shell pairs       ...      7008
Primitive shell pairs kept                  ...      5067
          la=0 lb=0:    635 shell pairs
          la=1 lb=0:    717 shell pairs
          la=1 lb=1:    219 shell pairs
          la=2 lb=0:    198 shell pairs
          la=2 lb=1:    116 shell pairs
          la=2 lb=2:     19 shell pairs

Calculating one electron integrals          ... done (  0.0 sec)
Calculating RI/J V-Matrix + Cholesky decomp.... done (  0.2 sec)
Calculating Nuclear repulsion               ... done (  0.0 sec) ENN=    242.568808916216 Eh

SHARK setup successfully completed in   0.8 seconds

Maximum memory used throughout the entire GTOINT-calculation: 14.4 MB
-------------------------------------------------------------------------------
                                 ORCA SCF
-------------------------------------------------------------------------------

------------
SCF SETTINGS
------------
Hamiltonian:
 Density Functional     Method          .... DFT(GTOs)
 Exchange Functional    Exchange        .... PBE
   PBE kappa parameter   XKappa         ....  0.804000
   PBE mue parameter    XMuePBE         ....  0.219520
 Correlation Functional Correlation     .... PBE
   PBE beta parameter  CBetaPBE         ....  0.066725
 LDA part of GGA corr.  LDAOpt          .... PW91-LDA
 Gradients option       PostSCFGGA      .... off
   Density functional embedding theory  .... OFF
   NL short-range parameter             ....  6.400000
 RI-approximation to the Coulomb term is turned on
   Number of AuxJ basis functions       .... 393


General Settings:
 Integral files         IntName         .... inp
 Hartree-Fock type      HFTyp           .... RHF
 Total Charge           Charge          ....   -1
 Multiplicity           Mult            ....    1
 Number of Electrons    NEL             ....   50
 Basis Dimension        Dim             ....  129
 Nuclear Repulsion      ENuc            ....    242.5688089162 Eh

Convergence Acceleration:
 DIIS                   CNVDIIS         .... on
   Start iteration      DIISMaxIt       ....    12
   Startup error        DIISStart       ....  0.200000
   # of expansion vecs  DIISMaxEq       ....     5
   Bias factor          DIISBfac        ....   1.050
   Max. coefficient     DIISMaxC        ....  10.000
 Trust-Rad. Augm. Hess. CNVTRAH         .... auto
   Auto Start mean grad. ratio tolernc. ....  1.125000
   Auto Start start iteration           ....    20
   Auto Start num. interpolation iter.  ....    10
   Max. Number of Micro iterations      ....    16
   Max. Number of Macro iterations      .... Maxiter - #DIIS iter
   Number of Davidson start vectors     ....     2
   Converg. threshold I  (grad. norm)   ....   1.000e-05
   Converg. threshold II (energy diff.) ....   1.000e-08
   Grad. Scal. Fac. for Micro threshold ....   0.100
   Minimum threshold for Micro iter.    ....   0.010
   NR start threshold (gradient norm)   ....   0.001
   Initial trust radius                 ....   0.400
   Minimum AH scaling param. (alpha)    ....   1.000
   Maximum AH scaling param. (alpha)    .... 1000.000
   Orbital update algorithm             .... Taylor
   White noise on init. David. guess    .... on
   Maximum white noise                  ....   0.010
   Quad. conv. algorithm                .... NR
 SOSCF                  CNVSOSCF        .... on
   Start iteration      SOSCFMaxIt      ....   150
   Startup grad/error   SOSCFStart      ....  0.003300
 Level Shifting         CNVShift        .... on
   Level shift para.    LevelShift      ....    0.2500
   Turn off err/grad.   ShiftErr        ....    0.0010
 Zerner damping         CNVZerner       .... off
 Static damping         CNVDamp         .... on
   Fraction old density DampFac         ....    0.7000
   Max. Damping (<1)    DampMax         ....    0.9800
   Min. Damping (>=0)   DampMin         ....    0.0000
   Turn off err/grad.   DampErr         ....    0.1000
 Fernandez-Rico         CNVRico         .... off

SCF Procedure:
 Maximum # iterations   MaxIter         ....   125
 SCF integral mode      SCFMode         .... Direct
   Integral package                     .... SHARK and LIBINT hybrid scheme
 Reset frequency        DirectResetFreq ....    20
 Integral Threshold     Thresh          ....  2.500e-11 Eh
 Primitive CutOff       TCut            ....  2.500e-12 Eh

Convergence Tolerance:
 Convergence Check Mode ConvCheckMode   .... Total+1el-Energy
 Convergence forced     ConvForced      .... 0
 Energy Change          TolE            ....  1.000e-08 Eh
 1-El. energy change                    ....  1.000e-05 Eh
 Orbital Gradient       TolG            ....  1.000e-05
 Orbital Rotation angle TolX            ....  1.000e-05
 DIIS Error             TolErr          ....  5.000e-07


Diagonalization of the overlap matrix:
Smallest eigenvalue                        ... 2.267e-03
Time for diagonalization                   ...    0.002 sec
Threshold for overlap eigenvalues          ... 1.000e-08
Number of eigenvalues below threshold      ... 0
Time for construction of square roots      ...    0.047 sec
Total time needed                          ...    0.050 sec

Time for model grid setup =    0.242 sec

------------------------------
INITIAL GUESS: MODEL POTENTIAL
------------------------------
Loading Hartree-Fock densities                     ... done
Calculating cut-offs                               ... done
Initializing the effective Hamiltonian             ... done
Setting up the integral package (SHARK)            ... done
Starting the Coulomb interaction                   ... done (   0.2 sec)
Reading the grid                                   ... done
Mapping shells                                     ... done
Starting the XC term evaluation                    ... done (   0.1 sec)
  promolecular density results
     # of electrons  =     48.990136318
     EX              =    -39.364399015
     EC              =     -1.607444816
     EX+EC           =    -40.971843831
Transforming the Hamiltonian                       ... done (   0.0 sec)
Diagonalizing the Hamiltonian                      ... done (   0.0 sec)
Back transforming the eigenvectors                 ... done (   0.0 sec)
Now organizing SCF variables                       ... done
                      ------------------
                      INITIAL GUESS DONE (   0.6 sec)
                      ------------------
-------------------
DFT GRID GENERATION
-------------------

General Integration Accuracy     IntAcc      ... 4.388
Radial Grid Type                 RadialGrid  ... OptM3 with GC (2021)
Angular Grid (max. ang.)         AngularGrid ... 4 (Lebedev-302)
Angular grid pruning method      GridPruning ... 4 (adaptive)
Weight generation scheme         WeightScheme... Becke
Basis function cutoff            BFCut       ... 1.0000e-11
Integration weight cutoff        WCut        ... 1.0000e-14
Angular grids for H and He will be reduced by one unit
Partially contracted basis set               ... off
Rotationally invariant grid construction     ... off

Total number of grid points                  ...    65397
Total number of batches                      ...     1031
Average number of points per batch           ...       63
Average number of grid points per atom       ...     4360
Time for grid setup =    0.699 sec


--------------------
CPCM SOLVATION MODEL
--------------------
CPCM parameters:
  Epsilon                                         ...      80.4000
  Refrac                                          ...       1.3300
  Rsolv                                           ...       1.3000
  Surface type                                    ... GAUSSIAN VDW
  Epsilon function type                           ...         CPCM
Radii:
 Radius for C  used is    3.8550 Bohr (=   2.0400 Ang.)
 Radius for O  used is    3.4469 Bohr (=   1.8240 Ang.)
 Radius for H  used is    2.4944 Bohr (=   1.3200 Ang.)
Calculating surface                               ...        done! (  0.0s)
GEPOL surface points                              ...          891
GEPOL Volume                                      ...     836.8568
GEPOL Surface-area                                ...     512.7836
Calculating surface distance matrix               ...        done! (  0.0s)
Performing Cholesky decomposition & store         ...        done! (  0.2s)
Overall time for CPCM initialization              ...                 0.2s
--------------
SCF ITERATIONS
--------------
ITER       Energy         Delta-E        Max-DP      RMS-DP      [F,P]     Damp
               ***  Starting incremental Fock matrix formation  ***
  0   -307.4528842306   0.000000000000 0.50713381  0.00762791  0.3534696 0.7000
  1   -307.5867727042  -0.133888473597 0.36397788  0.00553829  0.1195919 0.7000
                               ***Turning on DIIS***
  2   -307.6301872182  -0.043414513998 0.27055885  0.00647906  0.0202863 0.0000
  3   -307.7029351479  -0.072747929683 0.33442123  0.00457783  0.0658342 0.0000
  4   -307.7202630006  -0.017327852714 0.05226374  0.00095689  0.0184329 0.0000
  5   -307.7217307983  -0.001467797662 0.03080046  0.00050749  0.0055843 0.0000
                      *** Initiating the SOSCF procedure ***
                           *** Shutting down DIIS ***
                      *** Re-Reading the Fockian *** 
                      *** Removing any level shift *** 
ITER      Energy       Delta-E        Grad      Rot      Max-DP    RMS-DP
  6   -307.72187740  -0.0001466040  0.000631  0.000631  0.011111  0.000201
               *** Restarting incremental Fock matrix formation ***
  7   -307.72189517  -0.0000177694  0.000322  0.001961  0.006390  0.000188
  8   -307.72189956  -0.0000043923  0.000159  0.000576  0.003849  0.000068
  9   -307.72189977  -0.0000002101  0.000162  0.000602  0.004098  0.000067
 10   -307.72190062  -0.0000008429  0.000055  0.000070  0.000571  0.000013
 11   -307.72190057   0.0000000514  0.000062  0.000088  0.000292  0.000009
 12   -307.72190070  -0.0000001380  0.000003  0.000008  0.000056  0.000001
 13   -307.72190070   0.0000000005  0.000007  0.000005  0.000015  0.000001
                  ***Gradient check signals convergence***
              ***Rediagonalizing the Fockian in SOSCF/NRSCF***

               *****************************************************
               *                     SUCCESS                       *
               *           SCF CONVERGED AFTER  14 CYCLES          *
               *****************************************************


----------------
TOTAL SCF ENERGY
----------------

Total Energy       :         -307.72190070 Eh           -8373.53862 eV

Components:
Nuclear Repulsion  :          242.56880892 Eh            6600.63286 eV
Electronic Energy  :         -550.29070962 Eh          -14974.17148 eV
One Electron Energy:         -909.57273321 Eh          -24750.73237 eV
Two Electron Energy:          359.28202359 Eh            9776.56089 eV
CPCM Dielectric    :           -0.11551410 Eh              -3.14330 eV

Virial components:
Potential Energy   :         -612.83308114 Eh          -16676.03593 eV
Kinetic Energy     :          305.11118044 Eh            8302.49731 eV
Virial Ratio       :            2.00855662


DFT components:
N(Alpha)           :       25.000055904080 electrons
N(Beta)            :       25.000055904080 electrons
N(Total)           :       50.000111808161 electrons
E(X)               :      -40.478848503749 Eh       
E(C)               :       -1.657175701778 Eh       
E(XC)              :      -42.136024205527 Eh       
DFET-embed. en.    :        0.000000000000 Eh       
CPCM Solvation Model Properties:
Surface-charge          :            0.97203758
Charge-correction       :           -0.00424939 Eh              -0.11563 eV
Free-energy (cav+disp)  :  This term is not implemented in the current solvation scheme

---------------
SCF CONVERGENCE
---------------

  Last Energy change         ...    3.7124e-10  Tolerance :   1.0000e-08
  Last MAX-Density change    ...    1.8108e-05  Tolerance :   1.0000e-07
  Last RMS-Density change    ...    3.1530e-07  Tolerance :   5.0000e-09
  Last Orbital Gradient      ...    1.3000e-06  Tolerance :   1.0000e-05
  Last Orbital Rotation      ...    1.8810e-06  Tolerance :   1.0000e-05

             **** THE GBW FILE WAS UPDATED (inp.gbw) ****
             **** DENSITY inp.scfp WAS UPDATED ****
             **** ENERGY FILE WAS UPDATED (inp.en.tmp) ****
             **** THE GBW FILE WAS UPDATED (inp.gbw) ****
             **** DENSITY inp.scfp WAS UPDATED ****
----------------
ORBITAL ENERGIES
----------------

  NO   OCC          E(Eh)            E(eV) 
   0   2.0000     -18.745066      -510.0792 
   1   2.0000     -18.583399      -505.6800 
   2   2.0000      -9.922062      -269.9930 
   3   2.0000      -9.912586      -269.7352 
   4   2.0000      -9.866840      -268.4904 
   5   2.0000      -9.850748      -268.0525 
   6   2.0000      -0.916193       -24.9309 
   7   2.0000      -0.766709       -20.8632 
   8   2.0000      -0.660157       -17.9638 
   9   2.0000      -0.586765       -15.9667 
  10   2.0000      -0.524074       -14.2608 
  11   2.0000      -0.477434       -12.9916 
  12   2.0000      -0.422942       -11.5088 
  13   2.0000      -0.402889       -10.9632 
  14   2.0000      -0.386051       -10.5050 
  15   2.0000      -0.353180        -9.6105 
  16   2.0000      -0.336388        -9.1536 
  17   2.0000      -0.306635        -8.3440 
  18   2.0000      -0.277981        -7.5643 
  19   2.0000      -0.274080        -7.4581 
  20   2.0000      -0.257009        -6.9936 
  21   2.0000      -0.236591        -6.4380 
  22   2.0000      -0.195550        -5.3212 
  23   2.0000      -0.089090        -2.4243 
  24   2.0000      -0.083971        -2.2850 
  25   0.0000       0.050210         1.3663 
  26   0.0000       0.079799         2.1714 
  27   0.0000       0.092677         2.5219 
  28   0.0000       0.100657         2.7390 
  29   0.0000       0.107930         2.9369 
  30   0.0000       0.119871         3.2618 
  31   0.0000       0.128789         3.5045 
  32   0.0000       0.141554         3.8519 
  33   0.0000       0.156771         4.2660 
  34   0.0000       0.179757         4.8914 
  35   0.0000       0.195204         5.3118 
  36   0.0000       0.227620         6.1939 
  37   0.0000       0.239894         6.5279 
  38   0.0000       0.278822         7.5871 
  39   0.0000       0.414199        11.2709 
  40   0.0000       0.425675        11.5832 
  41   0.0000       0.442787        12.0488 
  42   0.0000       0.456012        12.4087 
  43   0.0000       0.466536        12.6951 
  44   0.0000       0.477001        12.9799 
  45   0.0000       0.549879        14.9630 
  46   0.0000       0.566607        15.4182 
  47   0.0000       0.578340        15.7374 
  48   0.0000       0.592556        16.1243 
  49   0.0000       0.608493        16.5579 
  50   0.0000       0.611262        16.6333 
  51   0.0000       0.622050        16.9268 
  52   0.0000       0.633306        17.2331 
  53   0.0000       0.637205        17.3392 
  54   0.0000       0.657037        17.8789 
  55   0.0000       0.665861        18.1190 
  56   0.0000       0.674478        18.3535 
  57   0.0000       0.677655        18.4399 
  58   0.0000       0.682143        18.5621 
  59   0.0000       0.699518        19.0349 
  60   0.0000       0.713815        19.4239 
  61   0.0000       0.834006        22.6944 
  62   0.0000       0.906697        24.6725 
  63   0.0000       0.937386        25.5076 
  64   0.0000       0.991898        26.9909 
  65   0.0000       1.018060        27.7028 
  66   0.0000       1.024391        27.8751 
  67   0.0000       1.106045        30.0970 
  68   0.0000       1.124759        30.6062 
  69   0.0000       1.176912        32.0254 
  70   0.0000       1.197471        32.5848 
  71   0.0000       1.224433        33.3185 
  72   0.0000       1.268000        34.5040 
  73   0.0000       1.314464        35.7684 
  74   0.0000       1.347439        36.6657 
  75   0.0000       1.364178        37.1212 
  76   0.0000       1.469339        39.9827 
  77   0.0000       1.495222        40.6871 
  78   0.0000       1.545950        42.0675 
  79   0.0000       1.563704        42.5506 
  80   0.0000       1.633058        44.4378 
  81   0.0000       1.658820        45.1388 
  82   0.0000       1.689399        45.9709 
  83   0.0000       1.707955        46.4758 
  84   0.0000       1.709444        46.5163 
  85   0.0000       1.724652        46.9302 
  86   0.0000       1.749455        47.6051 
  87   0.0000       1.768136        48.1134 
  88   0.0000       1.771542        48.2061 
  89   0.0000       1.818219        49.4762 
  90   0.0000       1.830107        49.7997 
  91   0.0000       1.832810        49.8733 
  92   0.0000       1.854541        50.4646 
  93   0.0000       1.867263        50.8108 
  94   0.0000       1.876825        51.0710 
  95   0.0000       1.886291        51.3286 
  96   0.0000       1.918590        52.2075 
  97   0.0000       1.960255        53.3412 
  98   0.0000       2.062891        56.1341 
  99   0.0000       2.101983        57.1979 
 100   0.0000       2.135958        58.1224 
 101   0.0000       2.204487        59.9871 
 102   0.0000       2.270363        61.7797 
 103   0.0000       2.288298        62.2678 
 104   0.0000       2.317830        63.0714 
 105   0.0000       2.349729        63.9394 
 106   0.0000       2.371178        64.5230 
 107   0.0000       2.447716        66.6057 
 108   0.0000       2.490900        67.7808 
 109   0.0000       2.568558        69.8940 
 110   0.0000       2.603095        70.8338 
 111   0.0000       2.633751        71.6680 
 112   0.0000       2.656274        72.2809 
 113   0.0000       2.698344        73.4257 
 114   0.0000       2.740692        74.5780 
 115   0.0000       2.754309        74.9486 
 116   0.0000       2.786891        75.8352 
 117   0.0000       2.827452        76.9389 
 118   0.0000       2.882590        78.4393 
 119   0.0000       2.892968        78.7217 
 120   0.0000       2.908457        79.1432 
 121   0.0000       2.936717        79.9121 
 122   0.0000       3.032548        82.5198 
 123   0.0000       3.056513        83.1720 
 124   0.0000       3.184086        86.6434 
 125   0.0000       3.197607        87.0113 
 126   0.0000       3.251401        88.4751 
 127   0.0000       3.412211        92.8510 
 128   0.0000       3.492914        95.0470 

                    ********************************
                    * MULLIKEN POPULATION ANALYSIS *
                    ********************************

-----------------------
MULLIKEN ATOMIC CHARGES
-----------------------
   0 C :    0.128294
   1 C :   -0.019279
   2 C :    0.196772
   3 O :   -0.691972
   4 O :   -0.396148
   5 C :    0.137919
   6 H :    0.009368
   7 H :    0.014246
   8 H :    0.033168
   9 H :   -0.018326
  10 H :   -0.016599
  11 H :   -0.038915
  12 H :   -0.034010
  13 H :   -0.151398
  14 H :   -0.153120
Sum of atomic charges:   -1.0000000

--------------------------------
MULLIKEN REDUCED ORBITAL CHARGES
--------------------------------
  0 C s       :     3.003148  s :     3.003148
      pz      :     0.900119  p :     2.810907
      px      :     0.915142
      py      :     0.995646
      dz2     :     0.009442  d :     0.057651
      dxz     :     0.015316
      dyz     :     0.012087
      dx2y2   :     0.007335
      dxy     :     0.013471
  1 C s       :     3.005598  s :     3.005598
      pz      :     1.003056  p :     2.981946
      px      :     1.014932
      py      :     0.963958
      dz2     :     0.004933  d :     0.031736
      dxz     :     0.006368
      dyz     :     0.008058
      dx2y2   :     0.002982
      dxy     :     0.009394
  2 C s       :     2.954821  s :     2.954821
      pz      :     0.942960  p :     2.769711
      px      :     0.894475
      py      :     0.932276
      dz2     :     0.009175  d :     0.078696
      dxz     :     0.018830
      dyz     :     0.015839
      dx2y2   :     0.016087
      dxy     :     0.018766
  3 O s       :     3.798003  s :     3.798003
      pz      :     1.731851  p :     4.883263
      px      :     1.466981
      py      :     1.684431
      dz2     :     0.001391  d :     0.010706
      dxz     :     0.002377
      dyz     :     0.001429
      dx2y2   :     0.002289
      dxy     :     0.003220
  4 O s       :     3.791749  s :     3.791749
      pz      :     1.616356  p :     4.589270
      px      :     1.408777
      py      :     1.564137
      dz2     :     0.002343  d :     0.015129
      dxz     :     0.002415
      dyz     :     0.003168
      dx2y2   :     0.002448
      dxy     :     0.004755
  5 C s       :     3.011183  s :     3.011183
      pz      :     1.007969  p :     2.800476
      px      :     0.884422
      py      :     0.908086
      dz2     :     0.004783  d :     0.050422
      dxz     :     0.011916
      dyz     :     0.010574
      dx2y2   :     0.009081
      dxy     :     0.014069
  6 H s       :     0.967832  s :     0.967832
      pz      :     0.007404  p :     0.022800
      px      :     0.005248
      py      :     0.010147
  7 H s       :     0.962932  s :     0.962932
      pz      :     0.010130  p :     0.022822
      px      :     0.007207
      py      :     0.005485
  8 H s       :     0.944624  s :     0.944624
      pz      :     0.009033  p :     0.022208
      px      :     0.007398
      py      :     0.005777
  9 H s       :     0.997160  s :     0.997160
      pz      :     0.005760  p :     0.021166
      px      :     0.006504
      py      :     0.008903
 10 H s       :     0.995041  s :     0.995041
      pz      :     0.009835  p :     0.021558
      px      :     0.005486
      py      :     0.006237
 11 H s       :     1.016972  s :     1.016972
      pz      :     0.006415  p :     0.021943
      px      :     0.008987
      py      :     0.006541
 12 H s       :     1.011839  s :     1.011839
      pz      :     0.009482  p :     0.022171
      px      :     0.005693
      py      :     0.006996
 13 H s       :     1.129558  s :     1.129558
      pz      :     0.007257  p :     0.021839
      px      :     0.008205
      py      :     0.006378
 14 H s       :     1.131255  s :     1.131255
      pz      :     0.007788  p :     0.021865
      px      :     0.006610
      py      :     0.007468


                     *******************************
                     * LOEWDIN POPULATION ANALYSIS *
                     *******************************

----------------------
LOEWDIN ATOMIC CHARGES
----------------------
   0 C :    0.053071
   1 C :   -0.098534
   2 C :   -0.037987
   3 O :   -0.648330
   4 O :   -0.195621
   5 C :    0.048215
   6 H :    0.006276
   7 H :    0.008305
   8 H :    0.022285
   9 H :   -0.004653
  10 H :   -0.004436
  11 H :    0.004227
  12 H :    0.001013
  13 H :   -0.076837
  14 H :   -0.076995

-------------------------------
LOEWDIN REDUCED ORBITAL CHARGES
-------------------------------
  0 C s       :     2.853736  s :     2.853736
      pz      :     0.967183  p :     2.955585
      px      :     0.966119
      py      :     1.022284
      dz2     :     0.020918  d :     0.137607
      dxz     :     0.036045
      dyz     :     0.030979
      dx2y2   :     0.013877
      dxy     :     0.035789
  1 C s       :     2.881591  s :     2.881591
      pz      :     1.055974  p :     3.133112
      px      :     1.043366
      py      :     1.033773
      dz2     :     0.010676  d :     0.083831
      dxz     :     0.017057
      dyz     :     0.023757
      dx2y2   :     0.006456
      dxy     :     0.025884
  2 C s       :     2.836074  s :     2.836074
      pz      :     1.009712  p :     2.999741
      px      :     0.984560
      py      :     1.005469
      dz2     :     0.019130  d :     0.202172
      dxz     :     0.051225
      dyz     :     0.043872
      dx2y2   :     0.036673
      dxy     :     0.051272
  3 O s       :     3.606449  s :     3.606449
      pz      :     1.753111  p :     5.022123
      px      :     1.555233
      py      :     1.713778
      dz2     :     0.002296  d :     0.019759
      dxz     :     0.004459
      dyz     :     0.002709
      dx2y2   :     0.003711
      dxy     :     0.006584
  4 O s       :     3.484021  s :     3.484021
      pz      :     1.631972  p :     4.683847
      px      :     1.446245
      py      :     1.605630
      dz2     :     0.003893  d :     0.027753
      dxz     :     0.005389
      dyz     :     0.005213
      dx2y2   :     0.004124
      dxy     :     0.009134
  5 C s       :     2.850448  s :     2.850448
      pz      :     1.056105  p :     2.980590
      px      :     0.945215
      py      :     0.979270
      dz2     :     0.009979  d :     0.120746
      dxz     :     0.029927
      dyz     :     0.027082
      dx2y2   :     0.019368
      dxy     :     0.034391
  6 H s       :     0.927023  s :     0.927023
      pz      :     0.019529  p :     0.066701
      px      :     0.015206
      py      :     0.031966
  7 H s       :     0.925199  s :     0.925199
      pz      :     0.030253  p :     0.066495
      px      :     0.021284
      py      :     0.014958
  8 H s       :     0.913370  s :     0.913370
      pz      :     0.025223  p :     0.064345
      px      :     0.022129
      py      :     0.016993
  9 H s       :     0.935928  s :     0.935928
      pz      :     0.017433  p :     0.068725
      px      :     0.021256
      py      :     0.030036
 10 H s       :     0.936115  s :     0.936115
      pz      :     0.031865  p :     0.068321
      px      :     0.017891
      py      :     0.018565
 11 H s       :     0.928417  s :     0.928417
      pz      :     0.018452  p :     0.067355
      px      :     0.029786
      py      :     0.019118
 12 H s       :     0.931111  s :     0.931111
      pz      :     0.028723  p :     0.067875
      px      :     0.018018
      py      :     0.021134
 13 H s       :     1.008248  s :     1.008248
      pz      :     0.021216  p :     0.068589
      px      :     0.029307
      py      :     0.018067
 14 H s       :     1.008745  s :     1.008745
      pz      :     0.022529  p :     0.068250
      px      :     0.022178
      py      :     0.023543


                      *****************************
                      * MAYER POPULATION ANALYSIS *
                      *****************************

  NA   - Mulliken gross atomic population
  ZA   - Total nuclear charge
  QA   - Mulliken gross atomic charge
  VA   - Mayer's total valence
  BVA  - Mayer's bonded valence
  FA   - Mayer's free valence

  ATOM       NA         ZA         QA         VA         BVA        FA
  0 C      5.8717     6.0000     0.1283     3.9964     3.9964     0.0000
  1 C      6.0193     6.0000    -0.0193     3.8534     3.8534     0.0000
  2 C      5.8032     6.0000     0.1968     4.2482     4.2482    -0.0000
  3 O      8.6920     8.0000    -0.6920     1.7340     1.7340    -0.0000
  4 O      8.3961     8.0000    -0.3961     2.1005     2.1005     0.0000
  5 C      5.8621     6.0000     0.1379     3.9600     3.9600    -0.0000
  6 H      0.9906     1.0000     0.0094     0.9905     0.9905    -0.0000
  7 H      0.9858     1.0000     0.0142     0.9891     0.9891    -0.0000
  8 H      0.9668     1.0000     0.0332     0.9869     0.9869     0.0000
  9 H      1.0183     1.0000    -0.0183     0.9746     0.9746     0.0000
 10 H      1.0166     1.0000    -0.0166     0.9916     0.9916    -0.0000
 11 H      1.0389     1.0000    -0.0389     1.0184     1.0184     0.0000
 12 H      1.0340     1.0000    -0.0340     1.0153     1.0153     0.0000
 13 H      1.1514     1.0000    -0.1514     0.9288     0.9288     0.0000
 14 H      1.1531     1.0000    -0.1531     0.9230     0.9230    -0.0000

  Mayer bond orders larger than 0.100000
B(  0-C ,  1-C ) :   1.0172 B(  0-C ,  4-O ) :   0.9858 B(  0-C ,  9-H ) :   0.9270 
B(  0-C , 10-H ) :   0.9251 B(  1-C ,  2-C ) :   1.0055 B(  1-C , 11-H ) :   0.9161 
B(  1-C , 12-H ) :   0.9270 B(  2-C ,  3-O ) :   1.5083 B(  2-C , 13-H ) :   0.8526 
B(  2-C , 14-H ) :   0.8583 B(  4-O ,  5-C ) :   1.0118 B(  5-C ,  6-H ) :   0.9569 
B(  5-C ,  7-H ) :   0.9600 B(  5-C ,  8-H ) :   0.9750 

-------
TIMINGS
-------

Total SCF time: 0 days 0 hours 0 min 22 sec 

Total time                  ....      22.470 sec
Sum of individual times     ....      20.487 sec  ( 91.2%)

Fock matrix formation       ....      18.744 sec  ( 83.4%)
  Split-RI-J                ....       2.063 sec  ( 11.0% of F)
  XC integration            ....       9.869 sec  ( 52.7% of F)
    Basis function eval.    ....       3.235 sec  ( 32.8% of XC)
    Density eval.           ....       1.557 sec  ( 15.8% of XC)
    XC-Functional eval.     ....       0.831 sec  (  8.4% of XC)
    XC-Potential eval.      ....       1.425 sec  ( 14.4% of XC)
Diagonalization             ....       0.018 sec  (  0.1%)
Density matrix formation    ....       0.003 sec  (  0.0%)
Population analysis         ....       0.060 sec  (  0.3%)
Initial guess               ....       0.360 sec  (  1.6%)
Orbital Transformation      ....       0.000 sec  (  0.0%)
Orbital Orthonormalization  ....       0.000 sec  (  0.0%)
DIIS solution               ....       0.108 sec  (  0.5%)
SOSCF solution              ....       0.254 sec  (  1.1%)
Grid generation             ....       0.941 sec  (  4.2%)

Maximum memory used throughout the entire SCF-calculation: 35.0 MB


-------------------------------------------------------------------------------
                          DFT DISPERSION CORRECTION                            
                                                                               
                              DFTD3 V3.1  Rev 1                                
                          USING Becke-Johnson damping                          
-------------------------------------------------------------------------------
The PBE functional is recognized
Active option DFTDOPT                   ...         4   

molecular C6(AA) [au] = 1564.354854 


            DFT-D V3
 parameters
 s6 scaling factor         :     1.0000 
 a1 scaling factor         :     0.4289 
 s8 scaling factor         :     0.7875 
 a2 scaling factor         :     4.4407 
 ad hoc parameters k1-k3   :    16.0000     1.3333    -4.0000 

 Edisp/kcal,au: -6.362684375855  -0.010139581887 
 E6   /kcal   :  -4.625715458 
 E8   /kcal   :  -1.736968917 
 % E8         :  27.299309769 

-------------------------   ----------------
Dispersion correction           -0.010139582
-------------------------   ----------------


-------------------------   --------------------
FINAL SINGLE POINT ENERGY      -307.732040284570
-------------------------   --------------------

------------------------------------------------------------------------------
                         ORCA SCF GRADIENT CALCULATION
------------------------------------------------------------------------------

Gradient of the Kohn-Sham DFT energy:
Kohn-Sham wavefunction type      ... RKS
Hartree-Fock exchange scaling    ...    0.000
Number of operators              ...    1
Number of atoms                  ...   15
Basis set dimensions             ...  129
Integral neglect threshold       ... 2.5e-11
Integral primitive cutoff        ... 2.5e-12
SHARK Integral package           ... ON

Nuc. rep. gradient       (SHARK) ... done (  0.0 sec)
HCore & Overlap gradient (SHARK) ... done (  0.1 sec)
RI-J gradient            (SHARK) ... done (  0.5 sec)
Exchange-correlation gradient    ... done
Dispersion correction            ... done

------------------
CARTESIAN GRADIENT
------------------

   1   C   :   -0.010348514   -0.013383786    0.015607090
   2   C   :    0.038886960    0.016315764    0.006977226
   3   C   :   -0.056633380    0.001915650    0.011605289
   4   O   :   -0.003288334   -0.023378899   -0.018642661
   5   O   :    0.001623143   -0.002146514   -0.002855279
   6   C   :   -0.012046457   -0.015672073   -0.003227527
   7   H   :   -0.003041281    0.013484588    0.005272158
   8   H   :    0.008065424    0.007907019   -0.009241474
   9   H   :    0.005574701   -0.005358937    0.006421280
  10   H   :   -0.004151919    0.014986256    0.005651009
  11   H   :    0.006858531    0.006123026   -0.010691952
  12   H   :   -0.005297809    0.000057351   -0.007315709
  13   H   :   -0.004336520   -0.005531102    0.004773723
  14   H   :    0.021969307   -0.015561549    0.015809248
  15   H   :    0.016166147    0.020243207   -0.020142422

Difference to translation invariance:
           :   -0.0000000000   -0.0000000000   -0.0000000000

Difference to rotation invariance:
           :    0.0014595112   -0.0008898614    0.0008945845

Norm of the cartesian gradient     ...    0.1011677482
RMS gradient                       ...    0.0150811975
MAX gradient                       ...    0.0566333801

-------
TIMINGS
-------

Total SCF gradient time            ...        4.590 sec

One electron gradient       ....       0.100 sec  (  2.2%)
RI-J Coulomb gradient       ....       0.543 sec  ( 11.8%)
XC gradient                 ....       3.324 sec  ( 72.4%)
CPCM gradient               ....       0.267 sec  (  5.8%)
   A-Matrix (El+Nuc)        ....       0.045 sec  (  1.0%)
   Potential                ....       0.221 sec  (  4.8%)

Maximum memory used throughout the entire SCFGRAD-calculation: 36.6 MB
------------------------------------------------------------------------------
                         ORCA GEOMETRY RELAXATION STEP
------------------------------------------------------------------------------

Reading the OPT-File                    .... done
Getting information on internals        .... done
Copying old internal coords+grads       .... done
Making the new internal coordinates     .... (new redundants).... done
Validating the new internal coordinates .... (new redundants).... done
Calculating the B-matrix                .... done
Calculating the G,G- and P matrices     .... done
Transforming gradient to internals      .... done
Projecting the internal gradient        .... done
Number of atoms                         ....  15
Number of internal coordinates          ....  63
Current Energy                          ....  -307.732040285 Eh
Current gradient norm                   ....     0.101167748 Eh/bohr
Maximum allowed component of the step   ....  0.300
Current trust radius                    ....  0.300
Evaluating the initial hessian          ....  (Almloef) done
Projecting the Hessian                  .... done
Forming the augmented Hessian           .... done
Diagonalizing the augmented Hessian     .... done
Last element of RFO vector              ....  0.973120663
Lowest eigenvalues of augmented Hessian:
 -0.017254976  0.009562300  0.011100540  0.018356444  0.020278641
Length of the computed step             ....  0.236657026
The final length of the internal step   ....  0.236657026
Converting the step to cartesian space:
 Initial RMS(Int)=    0.0298159828
Transforming coordinates:
 Iter   0:  RMS(Cart)=    0.0493124680 RMS(Int)=    0.7899718083
 Iter   1:  RMS(Cart)=    0.0012120286 RMS(Int)=    0.0009727076
 Iter   2:  RMS(Cart)=    0.0000788242 RMS(Int)=    0.0000428780
 Iter   3:  RMS(Cart)=    0.0000043397 RMS(Int)=    0.0000037629
 Iter   4:  RMS(Cart)=    0.0000002951 RMS(Int)=    0.0000001838
 Iter   5:  RMS(Cart)=    0.0000000168 RMS(Int)=    0.0000000149
done
Storing new coordinates                 .... done

                                .--------------------.
          ----------------------|Geometry convergence|-------------------------
          Item                value                   Tolerance       Converged
          ---------------------------------------------------------------------
          RMS gradient        0.0100682108            0.0001000000      NO
          MAX gradient        0.0386783748            0.0003000000      NO
          RMS step            0.0298159828            0.0020000000      NO
          MAX step            0.1017573295            0.0040000000      NO
          ........................................................
          Max(Bonds)      0.0479      Max(Angles)    5.83
          Max(Dihed)        3.22      Max(Improp)    0.00
          ---------------------------------------------------------------------

The optimization has not yet converged - more geometry cycles are needed


    ---------------------------------------------------------------------------
                         Redundant Internal Coordinates
                            (Angstroem and degrees)

        Definition                    Value    dE/dq     Step     New-Value
    ----------------------------------------------------------------------------
     1. B(C   1,C   0)                1.5308 -0.001438  0.0020    1.5327   
     2. B(C   2,C   1)                1.5543 -0.009300  0.0137    1.5680   
     3. B(O   3,C   2)                1.3258 -0.022211  0.0162    1.3420   
     4. B(O   4,C   0)                1.4306  0.001436 -0.0015    1.4291   
     5. B(C   5,O   4)                1.4173  0.001042 -0.0011    1.4162   
     6. B(H   6,C   5)                1.0944 -0.014279  0.0203    1.1147   
     7. B(H   7,C   5)                1.0943 -0.014018  0.0200    1.1143   
     8. B(H   8,C   5)                1.0933 -0.010020  0.0142    1.1075   
     9. B(H   9,C   0)                1.0964 -0.015573  0.0223    1.1188   
    10. B(H  10,C   0)                1.0965 -0.014079  0.0202    1.1167   
    11. B(H  11,C   1)                1.0994 -0.007082  0.0103    1.1097   
    12. B(H  12,C   1)                1.0988 -0.008173  0.0118    1.1107   
    13. B(H  13,C   2)                1.1013 -0.031194  0.0455    1.1468   
    14. B(H  14,C   2)                1.1016 -0.032800  0.0479    1.1495   
    15. A(C   1,C   0,H  10)          110.34 -0.000166   -0.35    109.99   
    16. A(O   4,C   0,H  10)          110.05 -0.001324   -0.34    109.72   
    17. A(O   4,C   0,H   9)          108.06 -0.001844    0.73    108.79   
    18. A(C   1,C   0,O   4)          111.33  0.006525   -0.97    110.36   
    19. A(H   9,C   0,H  10)          108.20  0.002906   -0.56    107.64   
    20. A(C   1,C   0,H   9)          108.76 -0.006285    1.55    110.31   
    21. A(C   2,C   1,H  11)          109.94  0.008983   -1.82    108.11   
    22. A(C   0,C   1,H  12)          109.13  0.004948   -0.39    108.74   
    23. A(H  11,C   1,H  12)          107.69 -0.002925   -0.35    107.33   
    24. A(C   0,C   1,C   2)          112.60 -0.017834    3.18    115.79   
    25. A(C   2,C   1,H  12)          109.84  0.005794   -1.06    108.78   
    26. A(C   0,C   1,H  11)          107.49  0.001479    0.34    107.83   
    27. A(H  13,C   2,H  14)          101.23 -0.000329   -0.83    100.40   
    28. A(O   3,C   2,H  14)          117.61  0.011131   -1.03    116.58   
    29. A(O   3,C   2,H  13)          118.44  0.013462   -1.63    116.81   
    30. A(C   1,C   2,H  13)          105.67  0.007163   -1.27    104.40   
    31. A(C   1,C   2,O   3)          106.83 -0.038678    5.83    112.66   
    32. A(C   1,C   2,H  14)          105.92  0.008977   -1.45    104.48   
    33. A(C   0,O   4,C   5)          111.53 -0.002328    0.32    111.86   
    34. A(H   6,C   5,H   7)          110.11  0.005017   -0.96    109.14   
    35. A(O   4,C   5,H   7)          110.61 -0.004023    0.66    111.27   
    36. A(H   7,C   5,H   8)          108.51  0.000342    0.00    108.51   
    37. A(O   4,C   5,H   6)          110.59 -0.003915    0.64    111.23   
    38. A(H   6,C   5,H   8)          108.54  0.000495   -0.04    108.49   
    39. A(O   4,C   5,H   8)          108.42  0.002201   -0.31    108.11   
    40. D(H  12,C   1,C   0,O   4)    -48.25  0.002248   -1.66    -49.92   
    41. D(H  11,C   1,C   0,H  10)     72.72 -0.000388    0.11     72.84   
    42. D(H  11,C   1,C   0,O   4)   -164.77  0.002299   -1.23   -166.00   
    43. D(H  12,C   1,C   0,H   9)     70.70 -0.000067   -0.37     70.33   
    44. D(H  11,C   1,C   0,H   9)    -45.82 -0.000016    0.07    -45.75   
    45. D(C   2,C   1,C   0,H  10)    -48.51 -0.001533    0.18    -48.33   
    46. D(C   2,C   1,C   0,H   9)   -167.05 -0.001161    0.14   -166.91   
    47. D(H  12,C   1,C   0,H  10)   -170.76 -0.000439   -0.32   -171.08   
    48. D(C   2,C   1,C   0,O   4)     74.00  0.001154   -1.16     72.84   
    49. D(H  13,C   2,C   1,H  11)    179.20 -0.000227    1.04    180.24   
    50. D(H  13,C   2,C   1,C   0)    -60.98 -0.003888    2.31    -58.67   
    51. D(O   3,C   2,C   1,H  12)    -66.11 -0.003514    2.55    -63.57   
    52. D(O   3,C   2,C   1,H  11)     52.21  0.001859    0.37     52.58   
    53. D(H  13,C   2,C   1,H  12)     60.87 -0.005601    3.22     64.09   
    54. D(O   3,C   2,C   1,C   0)    172.04 -0.001801    1.63    173.67   
    55. D(H  14,C   2,C   1,H  12)    167.75  0.000189    1.27    169.02   
    56. D(H  14,C   2,C   1,H  11)    -73.92  0.005562   -0.91    -74.84   
    57. D(H  14,C   2,C   1,C   0)     45.90  0.001902    0.36     46.26   
    58. D(C   5,O   4,C   0,H  10)    -52.80  0.001046   -1.10    -53.90   
    59. D(C   5,O   4,C   0,H   9)     65.15  0.002719   -1.54     63.62   
    60. D(C   5,O   4,C   0,C   1)   -175.47 -0.002281    0.24   -175.23   
    61. D(H   8,C   5,O   4,C   0)   -179.15  0.000053   -0.19   -179.34   
    62. D(H   7,C   5,O   4,C   0)     61.99  0.000651   -0.39     61.60   
    63. D(H   6,C   5,O   4,C   0)    -60.26 -0.000295   -0.05    -60.31   
    ----------------------------------------------------------------------------

         *************************************************************
         *                GEOMETRY OPTIMIZATION CYCLE   2            *
         *************************************************************
---------------------------------
CARTESIAN COORDINATES (ANGSTROEM)
---------------------------------
  C     -4.473177   -3.752526   -3.194863
  C     -3.481052   -2.719256   -2.649579
  C     -4.058571   -1.705613   -1.601887
  O     -3.111185   -0.920161   -1.066652
  O     -5.393763   -3.131307   -4.094220
  C     -6.392155   -4.034439   -4.533830
  H     -5.943477   -4.901483   -5.071890
  H     -7.001799   -4.410004   -3.680098
  H     -7.060774   -3.494995   -5.232819
  H     -3.928673   -4.563788   -3.739874
  H     -5.031841   -4.226852   -2.352356
  H     -2.644793   -3.269910   -2.171177
  H     -3.055743   -2.148223   -3.501989
  H     -4.913704   -1.179522   -2.156125
  H     -4.657638   -2.359340   -0.870377

----------------------------
CARTESIAN COORDINATES (A.U.)
----------------------------
  NO LB      ZA    FRAG     MASS         X           Y           Z
   0 C     6.0000    0    12.011   -8.453079   -7.091247   -6.037417
   1 C     6.0000    0    12.011   -6.578235   -5.138648   -5.006979
   2 C     6.0000    0    12.011   -7.669588   -3.223142   -3.027127
   3 O     8.0000    0    15.999   -5.879288   -1.738853   -2.015681
   4 O     8.0000    0    15.999  -10.192734   -5.917312   -7.736955
   5 C     6.0000    0    12.011  -12.079422   -7.623985   -8.567698
   6 H     1.0000    0     1.008  -11.231544   -9.262460   -9.584483
   7 H     1.0000    0     1.008  -13.231483   -8.333701   -6.954377
   8 H     1.0000    0     1.008  -13.342929   -6.604584   -9.888594
   9 H     1.0000    0     1.008   -7.424116   -8.624310   -7.067338
  10 H     1.0000    0     1.008   -9.508802   -7.987593   -4.445308
  11 H     1.0000    0     1.008   -4.997934   -6.179234   -4.102931
  12 H     1.0000    0     1.008   -5.774518   -4.059553   -6.617799
  13 H     1.0000    0     1.008   -9.285554   -2.228974   -4.074486
  14 H     1.0000    0     1.008   -8.801661   -4.458507   -1.644773

--------------------------------
INTERNAL COORDINATES (ANGSTROEM)
--------------------------------
 C      0   0   0     0.000000000000     0.00000000     0.00000000
 C      1   0   0     1.532740710460     0.00000000     0.00000000
 C      2   1   0     1.568011062335   115.79130694     0.00000000
 O      3   2   1     1.341995049189   112.63351248   173.66341679
 O      1   2   3     1.429068221895   110.35377791    72.83667855
 C      5   1   2     1.416224738102   111.85562220   184.76830336
 H      6   5   1     1.114712549296   111.22898129   299.68407093
 H      6   5   1     1.114259480011   111.27327622    61.60323273
 H      6   5   1     1.107536047183   108.11286485   180.66472115
 H      1   2   3     1.118779317347   110.31064832   193.08203366
 H      1   2   3     1.116651241575   109.98525262   311.66482524
 H      2   1   3     1.109692919156   107.85713652   121.18076453
 H      2   1   3     1.110660823487   108.74934519   237.24256120
 H      3   2   1     1.146823269080   104.37531334   301.31796982
 H      3   2   1     1.149498787947   104.44858184    46.25437385

---------------------------
INTERNAL COORDINATES (A.U.)
---------------------------
 C      0   0   0     0.000000000000     0.00000000     0.00000000
 C      1   0   0     2.896460177081     0.00000000     0.00000000
 C      2   1   0     2.963111482773   115.79130694     0.00000000
 O      3   2   1     2.536003116044   112.63351248   173.66341679
 O      1   2   3     2.700547566072   110.35377791    72.83667855
 C      5   1   2     2.676276899097   111.85562220   184.76830336
 H      6   5   1     2.106501436214   111.22898129   299.68407093
 H      6   5   1     2.105645259346   111.27327622    61.60323273
 H      6   5   1     2.092939812621   108.11286485   180.66472115
 H      1   2   3     2.114186514081   110.31064832   193.08203366
 H      1   2   3     2.110165033680   109.98525262   311.66482524
 H      2   1   3     2.097015709956   107.85713652   121.18076453
 H      2   1   3     2.098844784066   108.74934519   237.24256120
 H      3   2   1     2.167181902569   104.37531334   301.31796982
 H      3   2   1     2.172237900494   104.44858184    46.25437385

------------------------------------------------------------------------------
                   ___                                                        
                  /   \      - P O W E R E D   B Y -                         
                 /     \                                                     
                 |  |  |   _    _      __       _____    __    __             
                 |  |  |  | |  | |    /  \     |  _  \  |  |  /  |          
                  \  \/   | |  | |   /    \    | | | |  |  | /  /          
                 / \  \   | |__| |  /  /\  \   | |_| |  |  |/  /          
                |  |  |   |  __  | /  /__\  \  |    /   |      \           
                |  |  |   | |  | | |   __   |  |    \   |  |\   \          
                \     /   | |  | | |  |  |  |  | |\  \  |  | \   \       
                 \___/    |_|  |_| |__|  |__|  |_| \__\ |__|  \__/        
                                                                              
                      - O R C A' S   B I G   F R I E N D -                    
                                      &                                       
                       - I N T E G R A L  F E E D E R -                       
                                                                              
 v1 FN, 2020, v2 2021                                                         
------------------------------------------------------------------------------


Reading SHARK input file inp.SHARKINP.tmp ... ok
----------------------
SHARK INTEGRAL PACKAGE
----------------------

Number of atoms                             ...     15
Number of basis functions                   ...    129
Number of shells                            ...     63
Maximum angular momentum                    ...      2
Integral batch strategy                     ... SHARK/LIBINT Hybrid
RI-J (if used) integral strategy            ... SPLIT-RIJ (Revised 2003 algorithm where possible)
Printlevel                                  ...      1
Contraction scheme used                     ... SEGMENTED contraction
Coulomb Range Separation                    ... NOT USED
Exchange Range Separation                   ... NOT USED
Finite Nucleus Model                        ... NOT USED
Auxiliary Coulomb fitting basis             ... AVAILABLE
   # of basis functions in Aux-J            ...    393
   # of shells in Aux-J                     ...    135
   Maximum angular momentum in Aux-J        ...      4
Auxiliary J/K fitting basis                 ... NOT available
Auxiliary Correlation fitting basis         ... NOT available
Auxiliary 'external' fitting basis          ... NOT available
Integral threshold                          ...     2.500000e-11
Primitive cut-off                           ...     2.500000e-12
Primitive pair pre-selection threshold      ...     2.500000e-12

Calculating pre-screening integrals         ... done (  0.0 sec) Dimension = 63
Organizing shell pair data                  ... done (  0.0 sec)
Shell pair information
Total number of shell pairs                 ...      2016
Shell pairs after pre-screening             ...      1901
Total number of primitive shell pairs       ...      7008
Primitive shell pairs kept                  ...      5045
          la=0 lb=0:    635 shell pairs
          la=1 lb=0:    715 shell pairs
          la=1 lb=1:    218 shell pairs
          la=2 lb=0:    198 shell pairs
          la=2 lb=1:    116 shell pairs
          la=2 lb=2:     19 shell pairs

Calculating one electron integrals          ... done (  0.0 sec)
Calculating RI/J V-Matrix + Cholesky decomp.... done (  0.1 sec)
Calculating Nuclear repulsion               ... done (  0.0 sec) ENN=    239.817538526808 Eh

SHARK setup successfully completed in   0.6 seconds

Maximum memory used throughout the entire GTOINT-calculation: 14.4 MB

Diagonalization of the overlap matrix:
Smallest eigenvalue                        ... 2.472e-03
Time for diagonalization                   ...    0.002 sec
Threshold for overlap eigenvalues          ... 1.000e-08
Number of eigenvalues below threshold      ... 0
Time for construction of square roots      ...    0.037 sec
Total time needed                          ...    0.039 sec

-------------------
DFT GRID GENERATION
-------------------

General Integration Accuracy     IntAcc      ... 4.388
Radial Grid Type                 RadialGrid  ... OptM3 with GC (2021)
Angular Grid (max. ang.)         AngularGrid ... 4 (Lebedev-302)
Angular grid pruning method      GridPruning ... 4 (adaptive)
Weight generation scheme         WeightScheme... Becke
Basis function cutoff            BFCut       ... 1.0000e-11
Integration weight cutoff        WCut        ... 1.0000e-14
Angular grids for H and He will be reduced by one unit
Partially contracted basis set               ... off
Rotationally invariant grid construction     ... off

Total number of grid points                  ...    65437
Total number of batches                      ...     1030
Average number of points per batch           ...       63
Average number of grid points per atom       ...     4362
Time for grid setup =    0.609 sec


--------------------
CPCM SOLVATION MODEL
--------------------
CPCM parameters:
  Epsilon                                         ...      80.4000
  Refrac                                          ...       1.3300
  Rsolv                                           ...       1.3000
  Surface type                                    ... GAUSSIAN VDW
  Epsilon function type                           ...         CPCM
Radii:
 Radius for C  used is    3.8550 Bohr (=   2.0400 Ang.)
 Radius for O  used is    3.4469 Bohr (=   1.8240 Ang.)
 Radius for H  used is    2.4944 Bohr (=   1.3200 Ang.)
Calculating surface                               ...        done! (  0.0s)
GEPOL surface points                              ...          901
GEPOL Volume                                      ...     845.2479
GEPOL Surface-area                                ...     520.7969
Calculating surface distance matrix               ...        done! (  0.0s)
Performing Cholesky decomposition & store         ...        done! (  0.1s)
Overall time for CPCM initialization              ...                 0.1s
--------------
SCF ITERATIONS
--------------
ITER       Energy         Delta-E        Max-DP      RMS-DP      [F,P]     Damp
               ***  Starting incremental Fock matrix formation  ***
  0   -307.7280474236   0.000000000000 0.01184962  0.00043551  0.0211287 0.7000
                      *** Initiating the SOSCF procedure ***
                      *** Re-Reading the Fockian *** 
                      *** Removing any level shift *** 
ITER      Energy       Delta-E        Grad      Rot      Max-DP    RMS-DP
  1   -307.72921010  -0.0011626740  0.001934  0.001934  0.039954  0.001437
               *** Restarting incremental Fock matrix formation ***
  2   -307.73197664  -0.0027665462  0.001072  0.002656  0.013286  0.000368
  3   -307.73192418   0.0000524675  0.002061  0.001160  0.013275  0.000223
  4   -307.73205174  -0.0001275655  0.000556  0.000894  0.009047  0.000148
  5   -307.73204577   0.0000059703  0.000809  0.000579  0.005912  0.000088
  6   -307.73205594  -0.0000101674  0.000043  0.000097  0.000462  0.000013
  7   -307.73205587   0.0000000731  0.000086  0.000076  0.000280  0.000007
  8   -307.73205605  -0.0000001835  0.000020  0.000021  0.000102  0.000003
  9   -307.73205605  -0.0000000013  0.000014  0.000010  0.000047  0.000002
 10   -307.73205606  -0.0000000102  0.000004  0.000006  0.000023  0.000001
[...]
  14   2.0000      -0.389504       -10.5990 
  15   2.0000      -0.349400        -9.5076 
  16   2.0000      -0.330291        -8.9877 
  17   2.0000      -0.313812        -8.5392 
  18   2.0000      -0.274151        -7.4600 
  19   2.0000      -0.271344        -7.3836 
  20   2.0000      -0.258852        -7.0437 
  21   2.0000      -0.249018        -6.7761 
  22   2.0000      -0.199516        -5.4291 
  23   2.0000      -0.101238        -2.7548 
  24   2.0000      -0.097722        -2.6592 
  25   0.0000       0.046664         1.2698 
  26   0.0000       0.075269         2.0482 
  27   0.0000       0.086099         2.3429 
  28   0.0000       0.096774         2.6333 
  29   0.0000       0.105713         2.8766 
  30   0.0000       0.115669         3.1475 
  31   0.0000       0.122249         3.3266 
  32   0.0000       0.132951         3.6178 
  33   0.0000       0.147774         4.0211 
  34   0.0000       0.171568         4.6686 
  35   0.0000       0.198863         5.4114 
  36   0.0000       0.230766         6.2795 
  37   0.0000       0.234116         6.3706 
  38   0.0000       0.263044         7.1578 
  39   0.0000       0.413070        11.2402 
  40   0.0000       0.428001        11.6465 
  41   0.0000       0.437626        11.9084 
  42   0.0000       0.449273        12.2253 
  43   0.0000       0.462497        12.5852 
  44   0.0000       0.473660        12.8889 
  45   0.0000       0.544375        14.8132 
  46   0.0000       0.556632        15.1467 
  47   0.0000       0.574219        15.6253 
  48   0.0000       0.577358        15.7107 
  49   0.0000       0.589712        16.0469 
  50   0.0000       0.595932        16.2161 
  51   0.0000       0.606715        16.5096 
  52   0.0000       0.612973        16.6799 
  53   0.0000       0.623337        16.9619 
  54   0.0000       0.640265        17.4225 
  55   0.0000       0.649397        17.6710 
  56   0.0000       0.659267        17.9396 
  57   0.0000       0.662445        18.0260 
  58   0.0000       0.673135        18.3169 
  59   0.0000       0.689456        18.7611 
  60   0.0000       0.699655        19.0386 
  61   0.0000       0.843513        22.9531 
  62   0.0000       0.891595        24.2615 
  63   0.0000       0.929670        25.2976 
  64   0.0000       0.991680        26.9850 
  65   0.0000       1.012500        27.5515 
  66   0.0000       1.031282        28.0626 
  67   0.0000       1.094462        29.7818 
  68   0.0000       1.111550        30.2468 
  69   0.0000       1.164632        31.6913 
  70   0.0000       1.202063        32.7098 
  71   0.0000       1.219007        33.1709 
  72   0.0000       1.255035        34.1512 
  73   0.0000       1.317224        35.8435 
  74   0.0000       1.346170        36.6311 
  75   0.0000       1.366804        37.1926 
  76   0.0000       1.461784        39.7772 
  77   0.0000       1.483546        40.3693 
  78   0.0000       1.528297        41.5871 
  79   0.0000       1.558716        42.4148 
  80   0.0000       1.617259        44.0078 
  81   0.0000       1.640954        44.6526 
  82   0.0000       1.670582        45.4588 
  83   0.0000       1.686981        45.9051 
  84   0.0000       1.698402        46.2159 
  85   0.0000       1.702118        46.3170 
  86   0.0000       1.742484        47.4154 
  87   0.0000       1.752932        47.6997 
  88   0.0000       1.755679        47.7745 
  89   0.0000       1.762654        47.9643 
  90   0.0000       1.798417        48.9374 
  91   0.0000       1.818251        49.4771 
  92   0.0000       1.823151        49.6105 
  93   0.0000       1.843358        50.1603 
  94   0.0000       1.848856        50.3099 
  95   0.0000       1.861661        50.6584 
  96   0.0000       1.908446        51.9314 
  97   0.0000       1.941811        52.8394 
  98   0.0000       2.014903        54.8283 
  99   0.0000       2.060427        56.0671 
 100   0.0000       2.132268        58.0220 
 101   0.0000       2.178342        59.2757 
 102   0.0000       2.234766        60.8111 
 103   0.0000       2.238808        60.9211 
 104   0.0000       2.269941        61.7682 
 105   0.0000       2.303343        62.6771 
 106   0.0000       2.327275        63.3284 
 107   0.0000       2.409601        65.5686 
 108   0.0000       2.465939        67.1016 
 109   0.0000       2.527586        68.7791 
 110   0.0000       2.546031        69.2810 
 111   0.0000       2.556011        69.5526 
 112   0.0000       2.620602        71.3102 
 113   0.0000       2.650489        72.1235 
 114   0.0000       2.710015        73.7432 
 115   0.0000       2.721199        74.0476 
 116   0.0000       2.749059        74.8057 
 117   0.0000       2.799078        76.1668 
 118   0.0000       2.837443        77.2108 
 119   0.0000       2.859455        77.8097 
 120   0.0000       2.892384        78.7058 
 121   0.0000       2.929561        79.7174 
 122   0.0000       3.027875        82.3927 
 123   0.0000       3.037347        82.6504 
 124   0.0000       3.164462        86.1094 
 125   0.0000       3.183551        86.6288 
 126   0.0000       3.226093        87.7864 
 127   0.0000       3.410696        92.8097 
 128   0.0000       3.483917        94.8022 

                    ********************************
                    * MULLIKEN POPULATION ANALYSIS *
                    ********************************

-----------------------
MULLIKEN ATOMIC CHARGES
-----------------------
   0 C :    0.125513
   1 C :   -0.025110
   2 C :    0.139216
   3 O :   -0.649846
   4 O :   -0.376854
   5 C :    0.111415
   6 H :    0.014675
   7 H :    0.016676
   8 H :    0.040575
   9 H :   -0.003104
  10 H :   -0.012613
  11 H :   -0.028522
  12 H :   -0.030862
  13 H :   -0.153988
  14 H :   -0.167170
Sum of atomic charges:   -1.0000000

--------------------------------
MULLIKEN REDUCED ORBITAL CHARGES
--------------------------------
  0 C s       :     3.023160  s :     3.023160
      pz      :     0.904604  p :     2.793496
      px      :     0.912661
      py      :     0.976231
      dz2     :     0.009339  d :     0.057831
      dxz     :     0.014802
      dyz     :     0.012186
      dx2y2   :     0.007819
      dxy     :     0.013685
  1 C s       :     3.011626  s :     3.011626
      pz      :     1.007207  p :     2.982662
      px      :     1.004812
      py      :     0.970644
      dz2     :     0.004904  d :     0.030822
      dxz     :     0.006271
      dyz     :     0.007864
      dx2y2   :     0.003056
      dxy     :     0.008728
  2 C s       :     3.028583  s :     3.028583
      pz      :     0.943367  p :     2.755064
      px      :     0.901404
      py      :     0.910293
      dz2     :     0.008408  d :     0.077138
      dxz     :     0.016077
      dyz     :     0.017815
      dx2y2   :     0.018177
      dxy     :     0.016661
  3 O s       :     3.796250  s :     3.796250
      pz      :     1.711865  p :     4.842768
      px      :     1.534797
      py      :     1.596106
      dz2     :     0.001395  d :     0.010828
      dxz     :     0.001959
      dyz     :     0.001807
      dx2y2   :     0.002250
      dxy     :     0.003418
  4 O s       :     3.786369  s :     3.786369
      pz      :     1.613339  p :     4.575054
      px      :     1.404203
      py      :     1.557513
      dz2     :     0.002309  d :     0.015430
      dxz     :     0.002424
      dyz     :     0.003303
      dx2y2   :     0.002530
      dxy     :     0.004864
  5 C s       :     3.038191  s :     3.038191
      pz      :     0.999905  p :     2.799760
      px      :     0.887634
      py      :     0.912222
      dz2     :     0.004559  d :     0.050634
      dxz     :     0.011516
      dyz     :     0.011713
      dx2y2   :     0.008594
      dxy     :     0.014252
  6 H s       :     0.963554  s :     0.963554
      pz      :     0.007479  p :     0.021771
      px      :     0.004744
      py      :     0.009548
  7 H s       :     0.961553  s :     0.961553
      pz      :     0.009013  p :     0.021771
      px      :     0.006944
      py      :     0.005813
  8 H s       :     0.938048  s :     0.938048
      pz      :     0.008237  p :     0.021377
      px      :     0.007203
      py      :     0.005937
  9 H s       :     0.982952  s :     0.982952
      pz      :     0.005495  p :     0.020152
      px      :     0.005739
      py      :     0.008919
 10 H s       :     0.992064  s :     0.992064
      pz      :     0.009553  p :     0.020549
      px      :     0.005149
      py      :     0.005846
 11 H s       :     1.006874  s :     1.006874
      pz      :     0.006493  p :     0.021648
      px      :     0.008761
      py      :     0.006394
 12 H s       :     1.009328  s :     1.009328
      pz      :     0.009173  p :     0.021534
      px      :     0.005767
      py      :     0.006594
 13 H s       :     1.135129  s :     1.135129
      pz      :     0.006188  p :     0.018859
      px      :     0.007941
      py      :     0.004730
 14 H s       :     1.148549  s :     1.148549
      pz      :     0.006946  p :     0.018621
      px      :     0.005361
      py      :     0.006314


                     *******************************
                     * LOEWDIN POPULATION ANALYSIS *
                     *******************************

----------------------
LOEWDIN ATOMIC CHARGES
----------------------
   0 C :    0.051546
   1 C :   -0.113981
   2 C :   -0.043754
   3 O :   -0.619123
   4 O :   -0.181987
   5 C :    0.036673
   6 H :    0.008304
   7 H :    0.009259
   8 H :    0.024890
   9 H :    0.002933
  10 H :   -0.001430
  11 H :    0.008758
  12 H :    0.001920
  13 H :   -0.089725
  14 H :   -0.094282

-------------------------------
LOEWDIN REDUCED ORBITAL CHARGES
-------------------------------
  0 C s       :     2.862023  s :     2.862023
      pz      :     0.969890  p :     2.948536
      px      :     0.965022
      py      :     1.013624
      dz2     :     0.020771  d :     0.137896
      dxz     :     0.034361
      dyz     :     0.031443
      dx2y2   :     0.015172
      dxy     :     0.036149
  1 C s       :     2.891132  s :     2.891132
      pz      :     1.057503  p :     3.141335
      px      :     1.042282
      py      :     1.041550
      dz2     :     0.010227  d :     0.081514
      dxz     :     0.017019
      dyz     :     0.023342
      dx2y2   :     0.006921
      dxy     :     0.024004
  2 C s       :     2.868160  s :     2.868160
      pz      :     1.005446  p :     2.977779
      px      :     0.980871
      py      :     0.991462
      dz2     :     0.017120  d :     0.197815
      dxz     :     0.043622
      dyz     :     0.049667
      dx2y2   :     0.042462
      dxy     :     0.044944
  3 O s       :     3.607043  s :     3.607043
      pz      :     1.736234  p :     4.992069
      px      :     1.612175
      py      :     1.643660
      dz2     :     0.002363  d :     0.020010
      dxz     :     0.003589
      dyz     :     0.003368
      dx2y2   :     0.003414
      dxy     :     0.007276
  4 O s       :     3.477299  s :     3.477299
      pz      :     1.630369  p :     4.676091
      px      :     1.443871
      py      :     1.601851
      dz2     :     0.003828  d :     0.028597
      dxz     :     0.005540
      dyz     :     0.005555
      dx2y2   :     0.004263
      dxy     :     0.009410
  5 C s       :     2.863367  s :     2.863367
      pz      :     1.047171  p :     2.978827
      px      :     0.947444
      py      :     0.984212
      dz2     :     0.008887  d :     0.121133
      dxz     :     0.028549
      dyz     :     0.030607
      dx2y2   :     0.018060
      dxy     :     0.035030
  6 H s       :     0.928455  s :     0.928455
      pz      :     0.019921  p :     0.063242
      px      :     0.013598
      py      :     0.029723
  7 H s       :     0.927552  s :     0.927552
      pz      :     0.027020  p :     0.063189
      px      :     0.020295
      py      :     0.015875
  8 H s       :     0.912877  s :     0.912877
      pz      :     0.023102  p :     0.062233
      px      :     0.021603
      py      :     0.017528
  9 H s       :     0.932740  s :     0.932740
      pz      :     0.016281  p :     0.064327
      px      :     0.018637
      py      :     0.029410
 10 H s       :     0.937260  s :     0.937260
      pz      :     0.030778  p :     0.064170
      px      :     0.016610
      py      :     0.016782
 11 H s       :     0.925682  s :     0.925682
      pz      :     0.018224  p :     0.065560
      px      :     0.028980
      py      :     0.018356
 12 H s       :     0.932411  s :     0.932411
      pz      :     0.027980  p :     0.065669
      px      :     0.018070
      py      :     0.019618
 13 H s       :     1.030900  s :     1.030900
      pz      :     0.017337  p :     0.058824
      px      :     0.029000
      py      :     0.012488
 14 H s       :     1.036634  s :     1.036634
      pz      :     0.020231  p :     0.057649
      px      :     0.016818
      py      :     0.020599


                      *****************************
                      * MAYER POPULATION ANALYSIS *
                      *****************************

  NA   - Mulliken gross atomic population
  ZA   - Total nuclear charge
  QA   - Mulliken gross atomic charge
  VA   - Mayer's total valence
  BVA  - Mayer's bonded valence
  FA   - Mayer's free valence

  ATOM       NA         ZA         QA         VA         BVA        FA
  0 C      5.8745     6.0000     0.1255     3.9962     3.9962     0.0000
  1 C      6.0251     6.0000    -0.0251     3.8047     3.8047     0.0000
  2 C      5.8608     6.0000     0.1392     4.2294     4.2294     0.0000
  3 O      8.6498     8.0000    -0.6498     1.7937     1.7937     0.0000
  4 O      8.3769     8.0000    -0.3769     2.1207     2.1207    -0.0000
  5 C      5.8886     6.0000     0.1114     3.9551     3.9551    -0.0000
  6 H      0.9853     1.0000     0.0147     0.9866     0.9866    -0.0000
  7 H      0.9833     1.0000     0.0167     0.9863     0.9863    -0.0000
  8 H      0.9594     1.0000     0.0406     0.9852     0.9852    -0.0000
  9 H      1.0031     1.0000    -0.0031     0.9750     0.9750    -0.0000
 10 H      1.0126     1.0000    -0.0126     0.9929     0.9929     0.0000
 11 H      1.0285     1.0000    -0.0285     1.0079     1.0079    -0.0000
 12 H      1.0309     1.0000    -0.0309     1.0146     1.0146    -0.0000
 13 H      1.1540     1.0000    -0.1540     0.9303     0.9303    -0.0000
 14 H      1.1672     1.0000    -0.1672     0.9167     0.9167     0.0000

  Mayer bond orders larger than 0.100000
B(  0-C ,  1-C ) :   1.0343 B(  0-C ,  4-O ) :   0.9863 B(  0-C ,  9-H ) :   0.9230 
B(  0-C , 10-H ) :   0.9197 B(  1-C ,  2-C ) :   0.9661 B(  1-C , 11-H ) :   0.9135 
B(  1-C , 12-H ) :   0.9177 B(  2-C ,  3-O ) :   1.5615 B(  2-C , 13-H ) :   0.8463 
B(  2-C , 14-H ) :   0.8274 B(  4-O ,  5-C ) :   1.0191 B(  5-C ,  6-H ) :   0.9526 
B(  5-C ,  7-H ) :   0.9540 B(  5-C ,  8-H ) :   0.9744 

-------
TIMINGS
-------

Total SCF time: 0 days 0 hours 0 min 7 sec 

Total time                  ....       7.877 sec
Sum of individual times     ....       6.712 sec  ( 85.2%)

Fock matrix formation       ....       5.932 sec  ( 75.3%)
  Split-RI-J                ....       0.684 sec  ( 11.5% of F)
  XC integration            ....       2.905 sec  ( 49.0% of F)
    Basis function eval.    ....       1.121 sec  ( 38.6% of XC)
    Density eval.           ....       0.515 sec  ( 17.7% of XC)
    XC-Functional eval.     ....       0.288 sec  (  9.9% of XC)
    XC-Potential eval.      ....       0.384 sec  ( 13.2% of XC)
Diagonalization             ....       0.003 sec  (  0.0%)
Density matrix formation    ....       0.001 sec  (  0.0%)
Population analysis         ....       0.064 sec  (  0.8%)
Initial guess               ....       0.003 sec  (  0.0%)
Orbital Transformation      ....       0.000 sec  (  0.0%)
Orbital Orthonormalization  ....       0.002 sec  (  0.0%)
DIIS solution               ....       0.000 sec  (  0.0%)
SOSCF solution              ....       0.084 sec  (  1.1%)
Grid generation             ....       0.625 sec  (  7.9%)

Maximum memory used throughout the entire SCF-calculation: 34.9 MB


-------------------------------------------------------------------------------
                          DFT DISPERSION CORRECTION                            
                                                                               
                              DFTD3 V3.1  Rev 1                                
                          USING Becke-Johnson damping                          
-------------------------------------------------------------------------------
The PBE functional is recognized
Active option DFTDOPT                   ...         4   

molecular C6(AA) [au] = 1566.019992 


            DFT-D V3
 parameters
 s6 scaling factor         :     1.0000 
 a1 scaling factor         :     0.4289 
 s8 scaling factor         :     0.7875 
 a2 scaling factor         :     4.4407 
 ad hoc parameters k1-k3   :    16.0000     1.3333    -4.0000 

 Edisp/kcal,au: -6.302827855622  -0.010044194460 
 E6   /kcal   :  -4.580935146 
 E8   /kcal   :  -1.721892710 
 % E8         :  27.319367578 

-------------------------   ----------------
Dispersion correction           -0.010044194
-------------------------   ----------------


-------------------------   --------------------
FINAL SINGLE POINT ENERGY      -307.743513946098
-------------------------   --------------------

                                *** OPTIMIZATION RUN DONE ***

                            ***************************************
                            *     ORCA property calculations      *
                            ***************************************

                                    ---------------------
                                    Active property flags
                                    ---------------------
   (+) Dipole Moment


------------------------------------------------------------------------------
                       ORCA ELECTRIC PROPERTIES CALCULATION
------------------------------------------------------------------------------

Dipole Moment Calculation                       ... on
Quadrupole Moment Calculation                   ... off
Polarizability Calculation                      ... off
GBWName                                         ... inp.gbw
Electron density                                ... inp.scfp
The origin for moment calculation is the CENTER OF MASS  = (-8.530586, -5.107434 -5.429507)

-------------
DIPOLE MOMENT
-------------
                                X             Y             Z
Electronic contribution:      1.42194       2.58232      -0.06822
Nuclear contribution   :     -3.35122      -5.91716      -2.69196
                        -----------------------------------------
Total Dipole Moment    :     -1.92927      -3.33484      -2.76018
                        -----------------------------------------
Magnitude (a.u.)       :      4.73939
Magnitude (Debye)      :     12.04658



--------------------
Rotational spectrum 
--------------------
 
Rotational constants in cm-1:     0.376499     0.047856     0.045252 
Rotational constants in MHz : 11287.157952  1434.684324  1356.631036 

 Dipole components along the rotational axes: 
x,y,z [a.u.] :     4.633127     0.962169     0.264987 
x,y,z [Debye]:    11.776473     2.445640     0.673545 

 

Timings for individual modules:

Sum of individual times         ...      154.253 sec (=   2.571 min)
GTO integral calculation        ...        5.165 sec (=   0.086 min)   3.3 %
SCF iterations                  ...      115.410 sec (=   1.924 min)  74.8 %
SCF Gradient evaluation         ...       32.226 sec (=   0.537 min)  20.9 %
Geometry relaxation             ...        1.451 sec (=   0.024 min)   0.9 %
                             ****ORCA TERMINATED NORMALLY****
TOTAL RUN TIME: 0 days 0 hours 2 minutes 38 seconds 805 msec
