 Entering Gaussian System
 *********************************************
 Gaussian 98:
 frequency output generated by the xtb code
 *********************************************
                         Standard orientation:
 --------------------------------------------------------------------
  Center     Atomic     Atomic              Coordinates (Angstroms)
  Number     Number      Type              X           Y           Z
 --------------------------------------------------------------------
    1          8             0       -1.218625    4.349042   -1.340015
    2          6             0       -1.477344    3.400445   -0.499311
    3          1             0       -2.350951    2.698439   -0.786842
    4          1             0       -0.614223    2.656150   -0.299765
    5          1             0       -1.768901    3.739576    0.567874
 --------------------------------------------------------------------
     1 basis functions        1 primitive gaussians
     1 alpha electrons        1 beta electrons
 
 Harmonic frequencies (cm**-1), IR intensities (km*mol⁻¹),
 Raman scattering activities (A**4/amu), Raman depolarization ratios,
 reduced masses (AMU), force constants (mDyne/A) and normal coordinates:
                      1                      2                      3
                        a                      a                      a 
 Frequencies --  1181.5717              1181.7109              1207.7348
 Red. masses --     4.7016                 4.7029                13.6138
 Frc consts  --     0.0000                 0.0000                 0.0000
 IR Inten    --    67.2411                67.5189               553.1272
 Raman Activ --     0.0000                 0.0000                 0.0000
 Depolar     --     0.0000                 0.0000                 0.0000
 Atom AN      X      Y      Z        X      Y      Z        X      Y      Z
   1   8    -0.11   0.16   0.16    -0.22  -0.04  -0.11    -0.13  -0.49   0.43
   2   6     0.21  -0.33  -0.31     0.44   0.07   0.22     0.15   0.54  -0.48
   3   1    -0.16   0.07   0.26    -0.09   0.38  -0.45    -0.04   0.01  -0.06
   4   1    -0.16  -0.13   0.43    -0.29  -0.36   0.14     0.06   0.00  -0.03
   5   1     0.00   0.55  -0.23    -0.28  -0.14  -0.02    -0.01   0.06   0.02
                      4                      5                      6
                        a                      a                      a 
 Frequencies --  1486.2307              1486.9108              1506.4029
 Red. masses --     1.6807                 1.6842                 2.1608
 Frc consts  --     0.0000                 0.0000                 0.0000
 IR Inten    --   167.5301               168.6513               254.9749
 Raman Activ --     0.0000                 0.0000                 0.0000
 Depolar     --     0.0000                 0.0000                 0.0000
 Atom AN      X      Y      Z        X      Y      Z        X      Y      Z
   1   8     0.04   0.00   0.02     0.02  -0.03  -0.03    -0.03  -0.12   0.11
   2   6     0.22   0.03   0.10     0.10  -0.16  -0.16    -0.05  -0.19   0.17
   3   1    -0.22  -0.20   0.36    -0.37   0.47   0.22    -0.03   0.33  -0.45
   4   1    -0.08  -0.00  -0.55     0.20   0.50   0.16     0.28   0.32  -0.35
   5   1    -0.59   0.09  -0.24    -0.23  -0.31   0.26     0.07   0.50  -0.20
                      7                      8                      9
                        a                      a                      a 
 Frequencies --  2065.1204              2065.3524              2365.1948
 Red. masses --     1.4166                 1.4163                 1.2556
 Frc consts  --     0.0000                 0.0000                 0.0000
 IR Inten    --   634.5622               634.9314               496.1805
 Raman Activ --     0.0000                 0.0000                 0.0000
 Depolar     --     0.0000                 0.0000                 0.0000
 Atom AN      X      Y      Z        X      Y      Z        X      Y      Z
   1   8    -0.01  -0.00  -0.00     0.00  -0.01  -0.01     0.03   0.09  -0.08
   2   6    -0.16  -0.04  -0.09     0.09  -0.12  -0.11     0.00   0.00  -0.00
   3   1     0.54   0.44   0.27     0.26  -0.07  -0.07    -0.44  -0.30  -0.21
   4   1     0.34  -0.40  -0.09    -0.52   0.25  -0.18     0.47  -0.33   0.05
   5   1    -0.29   0.10   0.16    -0.09   0.28   0.66    -0.13   0.24   0.50
