5
 energy: -7.871650594733 gnorm: 0.000369017088 xtb: 6.7.1 (edcfbbe)
O           -1.21862456214389        4.34904175181942       -1.34001496830688
C           -1.47734351259440        3.40044454421037       -0.49931142015668
H           -2.35095067332355        2.69843901046182       -0.78684160691264
H           -0.61422340301627        2.65614962934463       -0.29976541915148
H           -1.76890088710003        3.73957585239925        0.56787395291196
