5
 energy: -7.868786712591 gnorm: 0.054090940948 xtb: 6.7.1 (edcfbbe)
O           -1.20925500000000        4.38236300000000       -1.36903400000000
C           -1.48180300000000        3.38465200000000       -0.48608200000000
H           -2.34028700000000        2.69794300000000       -0.77108700000000
H           -0.63164800000000        2.65698000000000       -0.29217600000000
H           -1.76713000000000        3.72167800000000        0.56032300000000
5
 energy: -7.870853029980 gnorm: 0.029064614378 xtb: 6.7.1 (edcfbbe)
O           -1.21784531729932        4.35188542284061       -1.34243143117538
C           -1.48297293004424        3.37991825234148       -0.48142781280613
H           -2.34701073954541        2.70545116980253       -0.78995974814672
H           -0.61577239896060        2.66345715807057       -0.30430154268691
H           -1.76652161415043        3.74290399694481        0.56006453481514
5
 energy: -7.871433339961 gnorm: 0.011649545013 xtb: 6.7.1 (edcfbbe)
O           -1.21994591232777        4.34444149217371       -1.33586102993708
C           -1.48036125650557        3.38944184369942       -0.49005510914305
H           -2.34703695108098        2.70503010108712       -0.78908760294665
H           -0.61636591299747        2.66309106198654       -0.30328208316665
H           -1.76641296708821        3.74161150105321        0.56022982519343
5
 energy: -7.871624862009 gnorm: 0.004006522191 xtb: 6.7.1 (edcfbbe)
O           -1.21932501933522        4.34662922317494       -1.33784583844612
C           -1.47792919226950        3.39835143202101       -0.49767838510773
H           -2.34853610924398        2.70094606907525       -0.78640485132114
H           -0.61653127517369        2.65886209611630       -0.30045172840830
H           -1.76780140397761        3.73882717961250        0.56432480328328
5
 energy: -7.871650203626 gnorm: 0.000641465413 xtb: 6.7.1 (edcfbbe)
O           -1.21866380900044        4.34894923432701       -1.33976311771634
C           -1.47743543962870        3.40024532797807       -0.49973019562162
H           -2.35082124075414        2.69890197667926       -0.78631581741790
H           -0.61486282333038        2.65694863939621       -0.29910090769518
H           -1.76833968728634        3.73857082161945        0.56685403845104
5
 energy: -7.871650594730 gnorm: 0.000369514449 xtb: 6.7.1 (edcfbbe)
O           -1.21864265611447        4.34903770982464       -1.34001163167970
C           -1.47735957432549        3.40043768027786       -0.49931064223489
H           -2.35096205567527        2.69842807418377       -0.78684510367887
H           -0.61423626419234        2.65614693643105       -0.29976292739185
H           -1.76892244969243        3.73956559928267        0.56787430498532
