
                                 *****************
                                 * O   R   C   A *
                                 *****************

                                            #,                                       
                                            ###                                      
                                            ####                                     
                                            #####                                    
                                            ######                                   
                                           ########,                                 
                                     ,,################,,,,,                         
                               ,,#################################,,                 
                          ,,##########################################,,             
                       ,#########################################, ''#####,          
                    ,#############################################,,   '####,        
                  ,##################################################,,,,####,       
                ,###########''''           ''''###############################       
              ,#####''   ,,,,##########,,,,          '''####'''          '####       
            ,##' ,,,,###########################,,,                        '##       
           ' ,,###''''                  '''############,,,                           
         ,,##''                                '''############,,,,        ,,,,,,###''
      ,#''                                            '''#######################'''  
     '                                                          ''''####''''         
             ,#######,   #######,   ,#######,      ##                                
            ,#'     '#,  ##    ##  ,#'     '#,    #''#        ######   ,####,        
            ##       ##  ##   ,#'  ##            #'  '#       #        #'  '#        
            ##       ##  #######   ##           ,######,      #####,   #    #        
            '#,     ,#'  ##    ##  '#,     ,#' ,#      #,         ##   #,  ,#        
             '#######'   ##     ##  '#######'  #'      '#     #####' # '####'        



                  #######################################################
                  #                        -***-                        #
                  #          Department of theory and spectroscopy      #
                  #    Directorship and core code : Frank Neese         #
                  #        Max Planck Institute fuer Kohlenforschung    #
                  #                Kaiser Wilhelm Platz 1               #
                  #                 D-45470 Muelheim/Ruhr               #
                  #                      Germany                        #
                  #                                                     #
                  #                  All rights reserved                #
                  #                        -***-                        #
                  #######################################################


                         Program Version 5.0.4 -  RELEASE  -


 With contributions from (in alphabetic order):
   Daniel Aravena         : Magnetic Suceptibility
   Michael Atanasov       : Ab Initio Ligand Field Theory (pilot matlab implementation)
   Alexander A. Auer      : GIAO ZORA, VPT2 properties, NMR spectrum
   Ute Becker             : Parallelization
   Giovanni Bistoni       : ED, misc. LED, open-shell LED, HFLD
   Martin Brehm           : Molecular dynamics
   Dmytro Bykov           : SCF Hessian
   Vijay G. Chilkuri      : MRCI spin determinant printing, contributions to CSF-ICE
   Dipayan Datta          : RHF DLPNO-CCSD density
   Achintya Kumar Dutta   : EOM-CC, STEOM-CC
   Dmitry Ganyushin       : Spin-Orbit,Spin-Spin,Magnetic field MRCI
   Miquel Garcia          : C-PCM and meta-GGA Hessian, CC/C-PCM, Gaussian charge scheme
   Yang Guo               : DLPNO-NEVPT2, F12-NEVPT2, CIM, IAO-localization
   Andreas Hansen         : Spin unrestricted coupled pair/coupled cluster methods
   Benjamin Helmich-Paris : MC-RPA, TRAH-SCF, COSX integrals
   Lee Huntington         : MR-EOM, pCC
   Robert Izsak           : Overlap fitted RIJCOSX, COSX-SCS-MP3, EOM
   Marcus Kettner         : VPT2
   Christian Kollmar      : KDIIS, OOCD, Brueckner-CCSD(T), CCSD density, CASPT2, CASPT2-K
   Simone Kossmann        : Meta GGA functionals, TD-DFT gradient, OOMP2, MP2 Hessian
   Martin Krupicka        : Initial AUTO-CI
   Lucas Lang             : DCDCAS
   Marvin Lechner         : AUTO-CI (C++ implementation), FIC-MRCC
   Dagmar Lenk            : GEPOL surface, SMD
   Dimitrios Liakos       : Extrapolation schemes; Compound Job, initial MDCI parallelization
   Dimitrios Manganas     : Further ROCIS development; embedding schemes
   Dimitrios Pantazis     : SARC Basis sets
   Anastasios Papadopoulos: AUTO-CI, single reference methods and gradients
   Taras Petrenko         : DFT Hessian,TD-DFT gradient, ASA, ECA, R-Raman, ABS, FL, XAS/XES, NRVS
   Peter Pinski           : DLPNO-MP2, DLPNO-MP2 Gradient
   Christoph Reimann      : Effective Core Potentials
   Marius Retegan         : Local ZFS, SOC
   Christoph Riplinger    : Optimizer, TS searches, QM/MM, DLPNO-CCSD(T), (RO)-DLPNO pert. Triples
   Tobias Risthaus        : Range-separated hybrids, TD-DFT gradient, RPA, STAB
   Michael Roemelt        : Original ROCIS implementation
   Masaaki Saitow         : Open-shell DLPNO-CCSD energy and density
   Barbara Sandhoefer     : DKH picture change effects
   Avijit Sen             : IP-ROCIS
   Kantharuban Sivalingam : CASSCF convergence, NEVPT2, FIC-MRCI
   Bernardo de Souza      : ESD, SOC TD-DFT
   Georgi Stoychev        : AutoAux, RI-MP2 NMR, DLPNO-MP2 response
   Willem Van den Heuvel  : Paramagnetic NMR
   Boris Wezisla          : Elementary symmetry handling
   Frank Wennmohs         : Technical directorship


 We gratefully acknowledge several colleagues who have allowed us to
 interface, adapt or use parts of their codes:
   Stefan Grimme, W. Hujo, H. Kruse, P. Pracht,  : VdW corrections, initial TS optimization,
                  C. Bannwarth, S. Ehlert          DFT functionals, gCP, sTDA/sTD-DF
   Ed Valeev, F. Pavosevic, A. Kumar             : LibInt (2-el integral package), F12 methods
   Garnet Chan, S. Sharma, J. Yang, R. Olivares  : DMRG
   Ulf Ekstrom                                   : XCFun DFT Library
   Mihaly Kallay                                 : mrcc  (arbitrary order and MRCC methods)
   Jiri Pittner, Ondrej Demel                    : Mk-CCSD
   Frank Weinhold                                : gennbo (NPA and NBO analysis)
   Christopher J. Cramer and Donald G. Truhlar   : smd solvation model
   Lars Goerigk                                  : TD-DFT with DH, B97 family of functionals
   V. Asgeirsson, H. Jonsson                     : NEB implementation
   FAccTs GmbH                                   : IRC, NEB, NEB-TS, DLPNO-Multilevel, CI-OPT
                                                   MM, QMMM, 2- and 3-layer-ONIOM, Crystal-QMMM,
                                                   LR-CPCM, SF, NACMEs, symmetry and pop. for TD-DFT,
                                                   nearIR, NL-DFT gradient (VV10), updates on ESD,
                                                   ML-optimized integration grids
   S Lehtola, MJT Oliveira, MAL Marques          : LibXC Library
   Liviu Ungur et al                             : ANISO software


 Your calculation uses the libint2 library for the computation of 2-el integrals
 For citations please refer to: http://libint.valeyev.net

 Your ORCA version has been built with support for libXC version: 5.1.0
 For citations please refer to: https://tddft.org/programs/libxc/

 This ORCA versions uses:
   CBLAS   interface :  Fast vector & matrix operations
   LAPACKE interface :  Fast linear algebra routines
   SCALAPACK package :  Parallel linear algebra routines
   Shared memory     :  Shared parallel matrices
   BLAS/LAPACK       :  OpenBLAS 0.3.15  USE64BITINT DYNAMIC_ARCH NO_AFFINITY Haswell SINGLE_THREADED
        Core in use  :  Haswell
   Copyright (c) 2011-2014, The OpenBLAS Project


Your calculation utilizes the atom-pairwise dispersion correction
with the Becke-Johnson damping scheme (D3BJ)
Cite in your paper:
S.Grimme, S.Ehrlich, L.Goerigk, J Comput Chem, (2011), 32, 1456–1465 
S.Grimme, J.Antony, S.Ehrlich and H.Krieg, J.Chem.Phys., 132, (2010), 154104 
   

================================================================================

----- Orbital basis set information -----
Your calculation utilizes the basis: def2-TZVP
   F. Weigend and R. Ahlrichs, Phys. Chem. Chem. Phys. 7, 3297 (2005).

----- AuxJ basis set information -----
Your calculation utilizes the auxiliary basis: def2/J
   F. Weigend, Phys. Chem. Chem. Phys. 8, 1057 (2006).

================================================================================
                                        WARNINGS
                       Please study these warnings very carefully!
================================================================================


WARNING: Geometry Optimization
  ===> : Switching off AutoStart
         For restart on a previous wavefunction, please use MOREAD

INFO   : the flag for use of the SHARK integral package has been found!

================================================================================
                                       INPUT FILE
================================================================================
NAME = inp.inp
|  1> !OPT PBE D3BJ def2-TZVP CPCM(water)
|  2> 
|  3> *xyz -1 1
|  4> C     -4.024449   -1.884272    1.977299
|  5> C     -3.713738   -2.389538    0.646322
|  6> Cl    -7.501759   -3.990843    2.819254
|  7> C     -5.202263   -2.370508    2.674068
|  8> H     -3.380272   -1.150048    2.444154
|  9> C     -4.580368   -3.376409    0.019877
| 10> H     -2.836119   -2.024040    0.132896
| 11> C     -5.761082   -3.861088    0.723355
| 12> H     -4.349350   -3.750623   -0.967100
| 13> C     -6.084993   -3.361893    2.060997
| 14> H     -6.403213   -4.593777    0.256533
| 15> O     -5.420624   -1.902456    3.814002
| 16> *
| 17> 
| 18>                          ****END OF INPUT****
================================================================================

                       *****************************
                       * Geometry Optimization Run *
                       *****************************

Geometry optimization settings:
Update method            Update   .... BFGS
Choice of coordinates    CoordSys .... Z-matrix Internals
Initial Hessian          InHess   .... Almoef's Model

Convergence Tolerances:
Energy Change            TolE     ....  5.0000e-06 Eh
Max. Gradient            TolMAXG  ....  3.0000e-04 Eh/bohr
RMS Gradient             TolRMSG  ....  1.0000e-04 Eh/bohr
Max. Displacement        TolMAXD  ....  4.0000e-03 bohr
RMS Displacement         TolRMSD  ....  2.0000e-03 bohr
Strict Convergence                ....  False
------------------------------------------------------------------------------
                        ORCA OPTIMIZATION COORDINATE SETUP
------------------------------------------------------------------------------

The optimization will be done in new redundant internal coordinates
Making redundant internal coordinates   ...  (new redundants) done
Evaluating the initial hessian          ...  (Almloef) done
Evaluating the coordinates              ...  done
Calculating the B-matrix                .... done
Calculating the G-matrix                .... done
Diagonalizing the G-matrix              .... done
The first mode is                       ....   24
The number of degrees of freedom        ....   30

    -----------------------------------------------------------------
                    Redundant Internal Coordinates


    -----------------------------------------------------------------
         Definition                    Initial Value    Approx d2E/dq
    -----------------------------------------------------------------
      1. B(C   1,C   0)                  1.4572         0.488178   
      2. B(C   3,C   0)                  1.4523         0.496995   
      3. B(H   4,C   0)                  1.0826         0.370036   
      4. B(C   5,C   1)                  1.4551         0.491849   
      5. B(H   6,C   1)                  1.0805         0.372934   
      6. B(C   7,C   5)                  1.4574         0.487842   
      7. B(H   8,C   5)                  1.0805         0.372858   
      8. B(C   9,C   7)                  1.4640         0.476014   
      9. B(C   9,C   3)                  1.4622         0.479305   
     10. B(C   9,Cl  2)                  1.7256         0.408580   
     11. B(H  10,C   7)                  1.0803         0.373138   
     12. B(O  11,C   3)                  1.2515         0.930838   
     13. A(C   1,C   0,C   3)          119.6738         0.399934   
     14. A(C   1,C   0,H   4)          120.1444         0.340555   
     15. A(C   3,C   0,H   4)          120.1818         0.341576   
     16. A(C   5,C   1,H   6)          120.5709         0.341427   
     17. A(C   0,C   1,C   5)          120.0925         0.399202   
     18. A(C   0,C   1,H   6)          119.3366         0.340999   
     19. A(C   9,C   3,O  11)          122.0165         0.442963   
     20. A(C   0,C   3,C   9)          121.0281         0.398646   
     21. A(C   0,C   3,O  11)          116.9554         0.445879   
     22. A(C   1,C   5,C   7)          120.0172         0.399154   
     23. A(C   7,C   5,H   8)          119.9310         0.340949   
     24. A(C   1,C   5,H   8)          120.0518         0.341416   
     25. A(C   5,C   7,H  10)          119.9030         0.340991   
     26. A(C   5,C   7,C   9)          120.4566         0.396865   
     27. A(C   9,C   7,H  10)          119.6405         0.339595   
     28. A(C   3,C   9,C   7)          118.7319         0.395637   
     29. A(Cl  2,C   9,C   7)          117.3127         0.401816   
     30. A(Cl  2,C   9,C   3)          123.9554         0.402304   
     31. D(H   6,C   1,C   0,C   3)    179.9994         0.016227   
     32. D(H   6,C   1,C   0,H   4)     -0.0003         0.016227   
     33. D(C   5,C   1,C   0,H   4)   -179.9999         0.016227   
     34. D(C   5,C   1,C   0,C   3)     -0.0002         0.016227   
     35. D(O  11,C   3,C   0,C   1)    179.9998         0.016822   
     36. D(C   9,C   3,C   0,C   1)     -0.0000         0.016822   
     37. D(C   9,C   3,C   0,H   4)    179.9997         0.016822   
     38. D(O  11,C   3,C   0,H   4)     -0.0004         0.016822   
     39. D(H   8,C   5,C   1,H   6)     -0.0000         0.016473   
     40. D(H   8,C   5,C   1,C   0)    179.9996         0.016473   
     41. D(C   7,C   5,C   1,H   6)   -179.9995         0.016473   
     42. D(C   7,C   5,C   1,C   0)      0.0001         0.016473   
     43. D(H  10,C   7,C   5,C   1)    179.9999         0.016204   
     44. D(C   9,C   7,C   5,H   8)   -179.9992         0.016204   
     45. D(C   9,C   7,C   5,C   1)      0.0003         0.016204   
     46. D(H  10,C   7,C   5,H   8)      0.0004         0.016204   
     47. D(C   3,C   9,C   7,H  10)    179.9999         0.015428   
     48. D(Cl  2,C   9,C   7,H  10)     -0.0010         0.015428   
     49. D(Cl  2,C   9,C   7,C   5)    179.9987         0.015428   
     50. D(C   7,C   9,C   3,O  11)   -179.9995         0.015641   
     51. D(C   7,C   9,C   3,C   0)      0.0003         0.015641   
     52. D(C   3,C   9,C   7,C   5)     -0.0005         0.015428   
     53. D(Cl  2,C   9,C   3,O  11)      0.0014         0.015641   
     54. D(Cl  2,C   9,C   3,C   0)   -179.9988         0.015641   
    -----------------------------------------------------------------

Number of atoms                         .... 12
Number of degrees of freedom            .... 54

         *************************************************************
         *                GEOMETRY OPTIMIZATION CYCLE   1            *
         *************************************************************
---------------------------------
CARTESIAN COORDINATES (ANGSTROEM)
---------------------------------
  C     -4.024449   -1.884272    1.977299
  C     -3.713738   -2.389538    0.646322
  Cl    -7.501759   -3.990843    2.819254
  C     -5.202263   -2.370508    2.674068
  H     -3.380272   -1.150048    2.444154
  C     -4.580368   -3.376409    0.019877
  H     -2.836119   -2.024040    0.132896
  C     -5.761082   -3.861088    0.723355
  H     -4.349350   -3.750623   -0.967100
  C     -6.084993   -3.361893    2.060997
  H     -6.403213   -4.593777    0.256533
  O     -5.420624   -1.902456    3.814002

----------------------------
CARTESIAN COORDINATES (A.U.)
----------------------------
  NO LB      ZA    FRAG     MASS         X           Y           Z
   0 C     6.0000    0    12.011   -7.605106   -3.560758    3.736554
   1 C     6.0000    0    12.011   -7.017948   -4.515572    1.221372
   2 Cl   17.0000    0    35.453  -14.176270   -7.541600    5.327618
   3 C     6.0000    0    12.011   -9.830852   -4.479611    5.053256
   4 H     1.0000    0     1.008   -6.387788   -2.173276    4.618782
   5 C     6.0000    0    12.011   -8.655641   -6.380488    0.037562
   6 H     1.0000    0     1.008   -5.359488   -3.824881    0.251137
   7 C     6.0000    0    12.011  -10.886867   -7.296399    1.366943
   8 H     1.0000    0     1.008   -8.219080   -7.087650   -1.827554
   9 C     6.0000    0    12.011  -11.498970   -6.353057    3.894720
  10 H     1.0000    0     1.008  -12.100319   -8.680980    0.484777
  11 O     8.0000    0    15.999  -10.243495   -3.595121    7.207419

--------------------------------
INTERNAL COORDINATES (ANGSTROEM)
--------------------------------
 C      0   0   0     0.000000000000     0.00000000     0.00000000
 C      1   0   0     1.457166713457     0.00000000     0.00000000
 Cl     1   2   0     4.151892873879   100.82917104     0.00000000
 C      1   2   3     1.452294152592   119.67375708     0.00000000
 H      1   2   3     1.082590633864   120.14442978   180.00072128
 C      2   1   3     1.455127233463   120.09250363     0.00000000
 H      2   1   3     1.080467562975   119.33656944   179.99896085
 C      6   2   1     1.457353965007   120.01715492     0.00000000
 H      6   2   1     1.080522573873   120.05184169   179.99956225
 C      4   1   2     1.462160224519   121.02812777     0.00000000
 H      8   6   2     1.080318550968   119.90296704   179.99991619
 O      4   1   2     1.251480613266   116.95541851   179.99983665

---------------------------
INTERNAL COORDINATES (A.U.)
---------------------------
 C      0   0   0     0.000000000000     0.00000000     0.00000000
 C      1   0   0     2.753646019899     0.00000000     0.00000000
 Cl     1   2   0     7.845940469010   100.82917104     0.00000000
 C      1   2   3     2.744438214294   119.67375708     0.00000000
 H      1   2   3     2.045799813151   120.14442978   180.00072128
 C      2   1   3     2.749791961256   120.09250363     0.00000000
 H      2   1   3     2.041787790608   119.33656944   179.99896085
 C      6   2   1     2.753999874047   120.01715492     0.00000000
 H      6   2   1     2.041891746140   120.05184169   179.99956225
 C      4   1   2     2.763082388254   121.02812777     0.00000000
 H      8   6   2     2.041506198725   119.90296704   179.99991619
 O      4   1   2     2.364955620985   116.95541851   179.99983665

---------------------
BASIS SET INFORMATION
---------------------
There are 4 groups of distinct atoms

 Group   1 Type C   : 11s6p2d1f contracted to 5s3p2d1f pattern {62111/411/11/1}
 Group   2 Type Cl  : 14s9p3d1f contracted to 5s5p2d1f pattern {73211/51111/21/1}
 Group   3 Type H   : 5s1p contracted to 3s1p pattern {311/1}
 Group   4 Type O   : 11s6p2d1f contracted to 5s3p2d1f pattern {62111/411/11/1}

Atom   0C    basis set group =>   1
Atom   1C    basis set group =>   1
Atom   2Cl   basis set group =>   2
Atom   3C    basis set group =>   1
Atom   4H    basis set group =>   3
Atom   5C    basis set group =>   1
Atom   6H    basis set group =>   3
Atom   7C    basis set group =>   1
Atom   8H    basis set group =>   3
Atom   9C    basis set group =>   1
Atom  10H    basis set group =>   3
Atom  11O    basis set group =>   4
---------------------------------
AUXILIARY/J BASIS SET INFORMATION
---------------------------------
There are 4 groups of distinct atoms

 Group   1 Type C   : 12s5p4d2f1g contracted to 6s4p3d1f1g pattern {711111/2111/211/2/1}
 Group   2 Type Cl  : 14s5p5d2f1g contracted to 8s4p3d1f1g pattern {71111111/2111/311/2/1}
 Group   3 Type H   : 5s2p1d contracted to 3s1p1d pattern {311/2/1}
 Group   4 Type O   : 12s5p4d2f1g contracted to 6s4p3d1f1g pattern {711111/2111/211/2/1}

Atom   0C    basis set group =>   1
Atom   1C    basis set group =>   1
Atom   2Cl   basis set group =>   2
Atom   3C    basis set group =>   1
Atom   4H    basis set group =>   3
Atom   5C    basis set group =>   1
Atom   6H    basis set group =>   3
Atom   7C    basis set group =>   1
Atom   8H    basis set group =>   3
Atom   9C    basis set group =>   1
Atom  10H    basis set group =>   3
Atom  11O    basis set group =>   4
------------------------------------------------------------------------------
                           ORCA GTO INTEGRAL CALCULATION
                           -- RI-GTO INTEGRALS CHOSEN --
------------------------------------------------------------------------------
------------------------------------------------------------------------------
                   ___                                                        
                  /   \      - P O W E R E D   B Y -                         
                 /     \                                                     
                 |  |  |   _    _      __       _____    __    __             
                 |  |  |  | |  | |    /  \     |  _  \  |  |  /  |          
                  \  \/   | |  | |   /    \    | | | |  |  | /  /          
                 / \  \   | |__| |  /  /\  \   | |_| |  |  |/  /          
                |  |  |   |  __  | /  /__\  \  |    /   |      \           
                |  |  |   | |  | | |   __   |  |    \   |  |\   \          
                \     /   | |  | | |  |  |  |  | |\  \  |  | \   \       
                 \___/    |_|  |_| |__|  |__|  |_| \__\ |__|  \__/        
                                                                              
                      - O R C A' S   B I G   F R I E N D -                    
                                      &                                       
                       - I N T E G R A L  F E E D E R -                       
                                                                              
 v1 FN, 2020, v2 2021                                                         
------------------------------------------------------------------------------


Reading SHARK input file inp.SHARKINP.tmp ... ok
----------------------
SHARK INTEGRAL PACKAGE
----------------------

Number of atoms                             ...     12
Number of basis functions                   ...    278
Number of shells                            ...    106
Maximum angular momentum                    ...      3
Integral batch strategy                     ... SHARK/LIBINT Hybrid
RI-J (if used) integral strategy            ... SPLIT-RIJ (Revised 2003 algorithm where possible)
Printlevel                                  ...      1
Contraction scheme used                     ... SEGMENTED contraction
Coulomb Range Separation                    ... NOT USED
Exchange Range Separation                   ... NOT USED
Finite Nucleus Model                        ... NOT USED
Auxiliary Coulomb fitting basis             ... AVAILABLE
   # of basis functions in Aux-J            ...    438
   # of shells in Aux-J                     ...    142
   Maximum angular momentum in Aux-J        ...      4
Auxiliary J/K fitting basis                 ... NOT available
Auxiliary Correlation fitting basis         ... NOT available
Auxiliary 'external' fitting basis          ... NOT available
Integral threshold                          ...     2.500000e-11
Primitive cut-off                           ...     2.500000e-12
Primitive pair pre-selection threshold      ...     2.500000e-12

Calculating pre-screening integrals         ... done (  0.1 sec) Dimension = 106
Organizing shell pair data                  ... done (  0.3 sec)
Shell pair information
Total number of shell pairs                 ...      5671
Shell pairs after pre-screening             ...      5190
Total number of primitive shell pairs       ...     18538
Primitive shell pairs kept                  ...     12578
          la=0 lb=0:   1188 shell pairs
          la=1 lb=0:   1428 shell pairs
          la=1 lb=1:    440 shell pairs
          la=2 lb=0:    774 shell pairs
          la=2 lb=1:    459 shell pairs
          la=2 lb=2:    132 shell pairs
          la=3 lb=0:    381 shell pairs
          la=3 lb=1:    226 shell pairs
          la=3 lb=2:    126 shell pairs
          la=3 lb=3:     36 shell pairs

Calculating one electron integrals          ... done (  0.0 sec)
Calculating RI/J V-Matrix + Cholesky decomp.... done (  0.3 sec)
Calculating Nuclear repulsion               ... done (  0.0 sec) ENN=    383.755593428687 Eh

SHARK setup successfully completed in   1.7 seconds

Maximum memory used throughout the entire GTOINT-calculation: 93.6 MB
-------------------------------------------------------------------------------
                                 ORCA SCF
-------------------------------------------------------------------------------

------------
SCF SETTINGS
------------
Hamiltonian:
 Density Functional     Method          .... DFT(GTOs)
 Exchange Functional    Exchange        .... PBE
   PBE kappa parameter   XKappa         ....  0.804000
   PBE mue parameter    XMuePBE         ....  0.219520
 Correlation Functional Correlation     .... PBE
   PBE beta parameter  CBetaPBE         ....  0.066725
 LDA part of GGA corr.  LDAOpt          .... PW91-LDA
 Gradients option       PostSCFGGA      .... off
   Density functional embedding theory  .... OFF
   NL short-range parameter             ....  6.400000
 RI-approximation to the Coulomb term is turned on
   Number of AuxJ basis functions       .... 438


General Settings:
 Integral files         IntName         .... inp
 Hartree-Fock type      HFTyp           .... RHF
 Total Charge           Charge          ....   -1
 Multiplicity           Mult            ....    1
 Number of Electrons    NEL             ....   66
 Basis Dimension        Dim             ....  278
 Nuclear Repulsion      ENuc            ....    383.7555934287 Eh

Convergence Acceleration:
 DIIS                   CNVDIIS         .... on
   Start iteration      DIISMaxIt       ....    12
   Startup error        DIISStart       ....  0.200000
   # of expansion vecs  DIISMaxEq       ....     5
   Bias factor          DIISBfac        ....   1.050
   Max. coefficient     DIISMaxC        ....  10.000
 Trust-Rad. Augm. Hess. CNVTRAH         .... auto
   Auto Start mean grad. ratio tolernc. ....  1.125000
   Auto Start start iteration           ....    20
   Auto Start num. interpolation iter.  ....    10
   Max. Number of Micro iterations      ....    16
   Max. Number of Macro iterations      .... Maxiter - #DIIS iter
   Number of Davidson start vectors     ....     2
   Converg. threshold I  (grad. norm)   ....   1.000e-05
   Converg. threshold II (energy diff.) ....   1.000e-08
   Grad. Scal. Fac. for Micro threshold ....   0.100
   Minimum threshold for Micro iter.    ....   0.010
   NR start threshold (gradient norm)   ....   0.001
   Initial trust radius                 ....   0.400
   Minimum AH scaling param. (alpha)    ....   1.000
   Maximum AH scaling param. (alpha)    .... 1000.000
   Orbital update algorithm             .... Taylor
   White noise on init. David. guess    .... on
   Maximum white noise                  ....   0.010
   Quad. conv. algorithm                .... NR
 SOSCF                  CNVSOSCF        .... on
   Start iteration      SOSCFMaxIt      ....   150
   Startup grad/error   SOSCFStart      ....  0.003300
 Level Shifting         CNVShift        .... on
   Level shift para.    LevelShift      ....    0.2500
   Turn off err/grad.   ShiftErr        ....    0.0010
 Zerner damping         CNVZerner       .... off
 Static damping         CNVDamp         .... on
   Fraction old density DampFac         ....    0.7000
   Max. Damping (<1)    DampMax         ....    0.9800
   Min. Damping (>=0)   DampMin         ....    0.0000
   Turn off err/grad.   DampErr         ....    0.1000
 Fernandez-Rico         CNVRico         .... off

SCF Procedure:
 Maximum # iterations   MaxIter         ....   125
 SCF integral mode      SCFMode         .... Direct
   Integral package                     .... SHARK and LIBINT hybrid scheme
 Reset frequency        DirectResetFreq ....    20
 Integral Threshold     Thresh          ....  2.500e-11 Eh
 Primitive CutOff       TCut            ....  2.500e-12 Eh

Convergence Tolerance:
 Convergence Check Mode ConvCheckMode   .... Total+1el-Energy
 Convergence forced     ConvForced      .... 0
 Energy Change          TolE            ....  1.000e-08 Eh
 1-El. energy change                    ....  1.000e-05 Eh
 Orbital Gradient       TolG            ....  1.000e-05
 Orbital Rotation angle TolX            ....  1.000e-05
 DIIS Error             TolErr          ....  5.000e-07


Diagonalization of the overlap matrix:
Smallest eigenvalue                        ... 1.728e-05
Time for diagonalization                   ...    0.012 sec
Threshold for overlap eigenvalues          ... 1.000e-08
Number of eigenvalues below threshold      ... 0
Time for construction of square roots      ...    0.098 sec
Total time needed                          ...    0.111 sec

Time for model grid setup =    0.363 sec

------------------------------
INITIAL GUESS: MODEL POTENTIAL
------------------------------
Loading Hartree-Fock densities                     ... done
Calculating cut-offs                               ... done
Initializing the effective Hamiltonian             ... done
Setting up the integral package (SHARK)            ... done
Starting the Coulomb interaction                   ... done (   0.4 sec)
Reading the grid                                   ... done
Mapping shells                                     ... done
Starting the XC term evaluation                    ... done (   0.4 sec)
  promolecular density results
     # of electrons  =     64.995708267
     EX              =    -67.279244524
     EC              =     -2.252919769
     EX+EC           =    -69.532164293
Transforming the Hamiltonian                       ... done (   0.0 sec)
Diagonalizing the Hamiltonian                      ... done (   0.0 sec)
Back transforming the eigenvectors                 ... done (   0.0 sec)
Now organizing SCF variables                       ... done
                      ------------------
                      INITIAL GUESS DONE (   1.2 sec)
                      ------------------
-------------------
DFT GRID GENERATION
-------------------

General Integration Accuracy     IntAcc      ... 4.388
Radial Grid Type                 RadialGrid  ... OptM3 with GC (2021)
Angular Grid (max. ang.)         AngularGrid ... 4 (Lebedev-302)
Angular grid pruning method      GridPruning ... 4 (adaptive)
Weight generation scheme         WeightScheme... Becke
Basis function cutoff            BFCut       ... 1.0000e-11
Integration weight cutoff        WCut        ... 1.0000e-14
Angular grids for H and He will be reduced by one unit
Partially contracted basis set               ... off
Rotationally invariant grid construction     ... off

Total number of grid points                  ...    62650
Total number of batches                      ...      986
Average number of points per batch           ...       63
Average number of grid points per atom       ...     5221
Time for grid setup =    0.919 sec


--------------------
CPCM SOLVATION MODEL
--------------------
CPCM parameters:
  Epsilon                                         ...      80.4000
  Refrac                                          ...       1.3300
  Rsolv                                           ...       1.3000
  Surface type                                    ... GAUSSIAN VDW
  Epsilon function type                           ...         CPCM
Radii:
 Radius for C  used is    3.8550 Bohr (=   2.0400 Ang.)
 Radius for Cl used is    3.9684 Bohr (=   2.1000 Ang.)
 Radius for H  used is    2.4944 Bohr (=   1.3200 Ang.)
 Radius for O  used is    3.4469 Bohr (=   1.8240 Ang.)
Calculating surface                               ...        done! (  0.0s)
GEPOL surface points                              ...          723
GEPOL Volume                                      ...     997.9962
GEPOL Surface-area                                ...     556.7046
Calculating surface distance matrix               ...        done! (  0.0s)
Performing Cholesky decomposition & store         ...        done! (  0.2s)
Overall time for CPCM initialization              ...                 0.2s
--------------
SCF ITERATIONS
--------------
ITER       Energy         Delta-E        Max-DP      RMS-DP      [F,P]     Damp
               ***  Starting incremental Fock matrix formation  ***
  0   -765.9185507932   0.000000000000 0.94005531  0.00742668  0.3357092 0.7000
  1   -766.0394850521  -0.120934258948 0.71707389  0.00569280  0.0999059 0.7000
                               ***Turning on DIIS***
  2   -766.0761770270  -0.036691974897 0.28373548  0.00380273  0.0229939 0.0000
  3   -766.1405574909  -0.064380463927 0.71083451  0.00543848  0.0493164 0.0000
  4   -766.1555826584  -0.015025167474 0.12489336  0.00104316  0.0282367 0.0000
  5   -766.1578554543  -0.002272795904 0.05752124  0.00050216  0.0058104 0.0000
                      *** Initiating the SOSCF procedure ***
                           *** Shutting down DIIS ***
                      *** Re-Reading the Fockian *** 
                      *** Removing any level shift *** 
ITER      Energy       Delta-E        Grad      Rot      Max-DP    RMS-DP
  6   -766.15799205  -0.0001365985  0.000605  0.000605  0.036382  0.000340
               *** Restarting incremental Fock matrix formation ***
  7   -766.15799329  -0.0000012367  0.000726  0.006841  0.021999  0.000183
  8   -766.15792613   0.0000671548  0.001900  0.004911  0.015888  0.000130
  9   -766.15800485  -0.0000787110  0.000158  0.000522  0.000760  0.000018
 10   -766.15800226   0.0000025879  0.000318  0.000361  0.000770  0.000013
 11   -766.15800571  -0.0000034537  0.000031  0.000165  0.001860  0.000015
 12   -766.15800555   0.0000001612  0.000077  0.000120  0.001279  0.000010
 13   -766.15800575  -0.0000002037  0.000008  0.000044  0.000054  0.000001
 14   -766.15800575   0.0000000061  0.000017  0.000032  0.000069  0.000001
                  ***Gradient check signals convergence***
              ***Rediagonalizing the Fockian in SOSCF/NRSCF***

               *****************************************************
               *                     SUCCESS                       *
               *           SCF CONVERGED AFTER  15 CYCLES          *
               *****************************************************


----------------
TOTAL SCF ENERGY
----------------

Total Energy       :         -766.15800576 Eh          -20848.21924 eV

Components:
Nuclear Repulsion  :          383.75559343 Eh           10442.52058 eV
Electronic Energy  :        -1149.91359919 Eh          -31290.73982 eV
One Electron Energy:        -1824.94749298 Eh          -49659.34592 eV
Two Electron Energy:          675.03389379 Eh           18368.60609 eV
CPCM Dielectric    :           -0.09540813 Eh              -2.59619 eV

Virial components:
Potential Energy   :        -1529.97481191 Eh          -41632.73120 eV
Kinetic Energy     :          763.81680616 Eh           20784.51196 eV
Virial Ratio       :            2.00306513


DFT components:
N(Alpha)           :       32.999982288242 electrons
N(Beta)            :       32.999982288242 electrons
N(Total)           :       65.999964576483 electrons
E(X)               :      -68.190704092738 Eh       
E(C)               :       -2.295318462884 Eh       
E(XC)              :      -70.486022555622 Eh       
DFET-embed. en.    :        0.000000000000 Eh       
CPCM Solvation Model Properties:
Surface-charge          :            0.97017545
Charge-correction       :           -0.00422246 Eh              -0.11490 eV
Free-energy (cav+disp)  :  This term is not implemented in the current solvation scheme

---------------
SCF CONVERGENCE
---------------

  Last Energy change         ...   -8.6179e-09  Tolerance :   1.0000e-08
  Last MAX-Density change    ...    7.6260e-05  Tolerance :   1.0000e-07
  Last RMS-Density change    ...    1.0576e-06  Tolerance :   5.0000e-09
  Last Orbital Gradient      ...    2.3062e-06  Tolerance :   1.0000e-05
  Last Orbital Rotation      ...    1.2389e-05  Tolerance :   1.0000e-05

             **** THE GBW FILE WAS UPDATED (inp.gbw) ****
             **** DENSITY inp.scfp WAS UPDATED ****
             **** ENERGY FILE WAS UPDATED (inp.en.tmp) ****
             **** THE GBW FILE WAS UPDATED (inp.gbw) ****
             **** DENSITY inp.scfp WAS UPDATED ****
----------------
ORBITAL ENERGIES
----------------

  NO   OCC          E(Eh)            E(eV) 
   0   2.0000    -100.653889     -2738.9316 
   1   2.0000     -18.663950      -507.8719 
   2   2.0000      -9.915557      -269.8160 
   3   2.0000      -9.914616      -269.7904 
   4   2.0000      -9.885325      -268.9934 
   5   2.0000      -9.879127      -268.8247 
   6   2.0000      -9.870016      -268.5768 
   7   2.0000      -9.863129      -268.3894 
   8   2.0000      -9.167347      -249.4562 
   9   2.0000      -6.990339      -190.2168 
  10   2.0000      -6.980893      -189.9598 
  11   2.0000      -6.980439      -189.9474 
  12   2.0000      -0.885571       -24.0976 
  13   2.0000      -0.782313       -21.2878 
  14   2.0000      -0.713061       -19.4034 
  15   2.0000      -0.633188       -17.2299 
  16   2.0000      -0.608861       -16.5680 
  17   2.0000      -0.522827       -14.2268 
  18   2.0000      -0.495441       -13.4816 
  19   2.0000      -0.425741       -11.5850 
  20   2.0000      -0.396700       -10.7948 
  21   2.0000      -0.388631       -10.5752 
  22   2.0000      -0.359564        -9.7842 
  23   2.0000      -0.341274        -9.2865 
  24   2.0000      -0.335763        -9.1366 
  25   2.0000      -0.305177        -8.3043 
  26   2.0000      -0.298910        -8.1338 
  27   2.0000      -0.289984        -7.8909 
  28   2.0000      -0.259240        -7.0543 
  29   2.0000      -0.257956        -7.0193 
  30   2.0000      -0.198112        -5.3909 
  31   2.0000      -0.168095        -4.5741 
  32   2.0000      -0.145132        -3.9492 
  33   0.0000      -0.039140        -1.0651 
  34   0.0000      -0.001596        -0.0434 
  35   0.0000       0.014993         0.4080 
  36   0.0000       0.061886         1.6840 
  37   0.0000       0.077057         2.0968 
  38   0.0000       0.087335         2.3765 
  39   0.0000       0.103848         2.8258 
  40   0.0000       0.103862         2.8262 
  41   0.0000       0.108192         2.9441 
  42   0.0000       0.155469         4.2305 
  43   0.0000       0.164268         4.4700 
  44   0.0000       0.181072         4.9272 
  45   0.0000       0.189423         5.1544 
  46   0.0000       0.189789         5.1644 
  47   0.0000       0.211950         5.7675 
  48   0.0000       0.216974         5.9042 
  49   0.0000       0.232468         6.3258 
  50   0.0000       0.233128         6.3437 
  51   0.0000       0.238204         6.4819 
  52   0.0000       0.250839         6.8257 
  53   0.0000       0.287395         7.8204 
  54   0.0000       0.287523         7.8239 
  55   0.0000       0.294973         8.0266 
  56   0.0000       0.311866         8.4863 
  57   0.0000       0.313563         8.5325 
  58   0.0000       0.321466         8.7475 
  59   0.0000       0.332562         9.0495 
  60   0.0000       0.340234         9.2582 
  61   0.0000       0.346169         9.4197 
  62   0.0000       0.353566         9.6210 
  63   0.0000       0.385684        10.4950 
  64   0.0000       0.395498        10.7620 
  65   0.0000       0.400401        10.8955 
  66   0.0000       0.411639        11.2013 
  67   0.0000       0.414439        11.2775 
  68   0.0000       0.418490        11.3877 
  69   0.0000       0.430507        11.7147 
  70   0.0000       0.434122        11.8131 
  71   0.0000       0.449014        12.2183 
  72   0.0000       0.462963        12.5979 
  73   0.0000       0.476636        12.9699 
  74   0.0000       0.509425        13.8622 
  75   0.0000       0.523243        14.2382 
  76   0.0000       0.545594        14.8464 
  77   0.0000       0.565818        15.3967 
  78   0.0000       0.565991        15.4014 
  79   0.0000       0.574561        15.6346 
  80   0.0000       0.597427        16.2568 
  81   0.0000       0.605853        16.4861 
  82   0.0000       0.615492        16.7484 
  83   0.0000       0.658518        17.9192 
  84   0.0000       0.675812        18.3898 
  85   0.0000       0.703962        19.1558 
  86   0.0000       0.712732        19.3944 
  87   0.0000       0.715906        19.4808 
  88   0.0000       0.747015        20.3273 
  89   0.0000       0.759058        20.6550 
  90   0.0000       0.773137        21.0381 
  91   0.0000       0.822142        22.3716 
  92   0.0000       0.830616        22.6022 
  93   0.0000       0.847736        23.0681 
  94   0.0000       0.848833        23.0979 
  95   0.0000       0.852298        23.1922 
  96   0.0000       0.859710        23.3939 
  97   0.0000       0.963927        26.2298 
  98   0.0000       0.992346        27.0031 
  99   0.0000       0.997505        27.1435 
 100   0.0000       1.007565        27.4172 
 101   0.0000       1.036003        28.1911 
 102   0.0000       1.037442        28.2302 
 103   0.0000       1.047303        28.4986 
 104   0.0000       1.115273        30.3481 
 105   0.0000       1.121707        30.5232 
 106   0.0000       1.144162        31.1342 
 107   0.0000       1.145823        31.1794 
 108   0.0000       1.167010        31.7559 
 109   0.0000       1.195066        32.5194 
 110   0.0000       1.213020        33.0079 
 111   0.0000       1.226559        33.3764 
 112   0.0000       1.243059        33.8254 
 113   0.0000       1.257490        34.2181 
 114   0.0000       1.314504        35.7695 
 115   0.0000       1.348082        36.6832 
 116   0.0000       1.369424        37.2639 
 117   0.0000       1.395117        37.9631 
 118   0.0000       1.423844        38.7448 
 119   0.0000       1.441279        39.2192 
 120   0.0000       1.456306        39.6281 
 121   0.0000       1.474531        40.1240 
 122   0.0000       1.497905        40.7601 
 123   0.0000       1.510077        41.0913 
 124   0.0000       1.528778        41.6002 
 125   0.0000       1.557900        42.3926 
 126   0.0000       1.569477        42.7076 
 127   0.0000       1.582471        43.0612 
 128   0.0000       1.616445        43.9857 
 129   0.0000       1.669478        45.4288 
 130   0.0000       1.680195        45.7204 
 131   0.0000       1.696210        46.1562 
 132   0.0000       1.702388        46.3243 
 133   0.0000       1.717158        46.7262 
 134   0.0000       1.741335        47.3841 
 135   0.0000       1.750499        47.6335 
 136   0.0000       1.764250        48.0077 
 137   0.0000       1.780699        48.4553 
 138   0.0000       1.795515        48.8584 
 139   0.0000       1.830212        49.8026 
 140   0.0000       1.850182        50.3460 
 141   0.0000       1.863646        50.7124 
 142   0.0000       1.923222        52.3335 
 143   0.0000       1.927853        52.4595 
 144   0.0000       1.974755        53.7358 
 145   0.0000       1.989001        54.1235 
 146   0.0000       2.003472        54.5173 
 147   0.0000       2.013196        54.7819 
 148   0.0000       2.021454        55.0065 
 149   0.0000       2.033431        55.3325 
 150   0.0000       2.060304        56.0637 
 151   0.0000       2.069477        56.3133 
 152   0.0000       2.104328        57.2617 
 153   0.0000       2.116650        57.5970 
 154   0.0000       2.130722        57.9799 
 155   0.0000       2.147967        58.4491 
 156   0.0000       2.162339        58.8402 
 157   0.0000       2.170113        59.0518 
 158   0.0000       2.189311        59.5742 
 159   0.0000       2.196772        59.7772 
 160   0.0000       2.277857        61.9837 
 161   0.0000       2.308943        62.8295 
 162   0.0000       2.358469        64.1772 
 163   0.0000       2.371534        64.5327 
 164   0.0000       2.435339        66.2689 
 165   0.0000       2.454070        66.7786 
 166   0.0000       2.459237        66.9192 
 167   0.0000       2.489764        67.7499 
 168   0.0000       2.496667        67.9378 
 169   0.0000       2.506834        68.2144 
 170   0.0000       2.542762        69.1921 
 171   0.0000       2.553984        69.4975 
 172   0.0000       2.593544        70.5739 
 173   0.0000       2.598698        70.7142 
 174   0.0000       2.622447        71.3604 
 175   0.0000       2.627222        71.4904 
 176   0.0000       2.657013        72.3010 
 177   0.0000       2.687606        73.1335 
 178   0.0000       2.694489        73.3208 
 179   0.0000       2.710466        73.7555 
 180   0.0000       2.743439        74.6528 
 181   0.0000       2.779558        75.6356 
 182   0.0000       2.779611        75.6371 
 183   0.0000       2.782226        75.7082 
 184   0.0000       2.794190        76.0338 
 185   0.0000       2.837844        77.2217 
 186   0.0000       2.856859        77.7391 
 187   0.0000       2.876823        78.2823 
 188   0.0000       2.912559        79.2547 
 189   0.0000       2.959405        80.5295 
 190   0.0000       2.961933        80.5983 
 191   0.0000       2.989712        81.3542 
 192   0.0000       3.005237        81.7767 
 193   0.0000       3.040831        82.7452 
 194   0.0000       3.060560        83.2821 
 195   0.0000       3.061448        83.3062 
 196   0.0000       3.087051        84.0029 
 197   0.0000       3.092136        84.1413 
 198   0.0000       3.113742        84.7292 
 199   0.0000       3.130507        85.1854 
 200   0.0000       3.137012        85.3624 
 201   0.0000       3.163898        86.0940 
 202   0.0000       3.164167        86.1014 
 203   0.0000       3.194436        86.9250 
 204   0.0000       3.198501        87.0356 
 205   0.0000       3.215122        87.4879 
 206   0.0000       3.248828        88.4051 
 207   0.0000       3.276807        89.1664 
 208   0.0000       3.299659        89.7883 
 209   0.0000       3.320144        90.3457 
 210   0.0000       3.337595        90.8206 
 211   0.0000       3.339139        90.8626 
 212   0.0000       3.358543        91.3906 
 213   0.0000       3.368826        91.6704 
 214   0.0000       3.375058        91.8400 
 215   0.0000       3.397168        92.4416 
 216   0.0000       3.416423        92.9656 
 217   0.0000       3.445608        93.7598 
 218   0.0000       3.555345        96.7458 
 219   0.0000       3.579136        97.3932 
 220   0.0000       3.585301        97.5610 
 221   0.0000       3.645239        99.1920 
 222   0.0000       3.651377        99.3590 
 223   0.0000       3.666317        99.7656 
 224   0.0000       3.736418       101.6731 
 225   0.0000       3.842875       104.5699 
 226   0.0000       3.874007       105.4171 
 227   0.0000       3.882544       105.6494 
 228   0.0000       3.888795       105.8195 
 229   0.0000       3.898844       106.0929 
 230   0.0000       3.935662       107.0948 
 231   0.0000       3.963000       107.8387 
 232   0.0000       3.983171       108.3876 
 233   0.0000       4.005399       108.9924 
 234   0.0000       4.011959       109.1709 
 235   0.0000       4.019339       109.3718 
 236   0.0000       4.053039       110.2888 
 237   0.0000       4.083844       111.1270 
 238   0.0000       4.111105       111.8689 
 239   0.0000       4.136969       112.5726 
 240   0.0000       4.337160       118.0201 
 241   0.0000       4.388969       119.4299 
 242   0.0000       4.401596       119.7735 
 243   0.0000       4.415270       120.1456 
 244   0.0000       4.552680       123.8847 
 245   0.0000       4.604883       125.3052 
 246   0.0000       4.618717       125.6817 
 247   0.0000       4.742583       129.0523 
 248   0.0000       4.781466       130.1103 
 249   0.0000       4.833362       131.5225 
 250   0.0000       4.868439       132.4770 
 251   0.0000       4.987640       135.7206 
 252   0.0000       5.082381       138.2986 
 253   0.0000       5.139298       139.8474 
 254   0.0000       5.159741       140.4037 
 255   0.0000       5.227848       142.2570 
 256   0.0000       5.469418       148.8304 
 257   0.0000       5.477922       149.0618 
 258   0.0000       5.694002       154.9417 
 259   0.0000       5.960732       162.1998 
 260   0.0000       6.232849       169.6044 
 261   0.0000       6.302440       171.4981 
 262   0.0000       6.458518       175.7452 
 263   0.0000       6.499009       176.8470 
 264   0.0000       6.727697       183.0700 
 265   0.0000       6.966989       189.5814 
 266   0.0000       6.979313       189.9168 
 267   0.0000      10.553882       287.1857 
 268   0.0000      10.628760       289.2233 
 269   0.0000      11.157830       303.6200 
 270   0.0000      21.800185       593.2132 
 271   0.0000      22.110045       601.6449 
 272   0.0000      22.168929       603.2472 
 273   0.0000      22.199157       604.0698 
 274   0.0000      22.388091       609.2109 
 275   0.0000      22.964949       624.9080 
 276   0.0000      25.726210       700.0458 
 277   0.0000      43.584419      1185.9923 

                    ********************************
                    * MULLIKEN POPULATION ANALYSIS *
                    ********************************

-----------------------
MULLIKEN ATOMIC CHARGES
-----------------------
   0 C :   -0.299084
   1 C :   -0.154118
   2 Cl:   -0.173669
   3 C :    0.129138
   4 H :    0.099994
   5 C :   -0.251603
   6 H :    0.124332
   7 C :   -0.202109
   8 H :    0.123624
   9 C :    0.019332
  10 H :    0.126896
  11 O :   -0.542733
Sum of atomic charges:   -1.0000000

--------------------------------
MULLIKEN REDUCED ORBITAL CHARGES
--------------------------------
  0 C s       :     3.314046  s :     3.314046
      pz      :     0.919222  p :     2.909408
      px      :     0.975453
      py      :     1.014733
      dz2     :     0.016040  d :     0.069224
      dxz     :     0.018598
      dyz     :     0.014336
      dx2y2   :     0.008171
      dxy     :     0.012078
      f0      :     0.001090  f :     0.006406
      f+1     :     0.001401
      f-1     :     0.000698
      f+2     :     0.000785
      f-2     :     0.001139
      f+3     :     0.000741
      f-3     :     0.000552
  1 C s       :     3.223186  s :     3.223186
      pz      :     0.932958  p :     2.843728
      px      :     0.956413
      py      :     0.954357
      dz2     :     0.018208  d :     0.080899
      dxz     :     0.020561
      dyz     :     0.018694
      dx2y2   :     0.014724
      dxy     :     0.008712
      f0      :     0.001100  f :     0.006306
      f+1     :     0.000878
      f-1     :     0.001044
      f+2     :     0.000812
      f-2     :     0.000979
      f+3     :     0.000663
      f-3     :     0.000831
  2 Cls       :     5.881430  s :     5.881430
      pz      :     3.852939  p :    11.210816
      px      :     3.505250
      py      :     3.852628
      dz2     :     0.010620  d :     0.075437
      dxz     :     0.016713
      dyz     :     0.010684
      dx2y2   :     0.020661
      dxy     :     0.016759
      f0      :     0.000625  f :     0.005985
      f+1     :     0.000942
      f-1     :     0.000199
      f+2     :     0.000966
      f-2     :     0.001196
      f+3     :     0.000981
      f-3     :     0.001076
  3 C s       :     3.004887  s :     3.004887
      pz      :     0.854451  p :     2.671159
      px      :     0.921827
      py      :     0.894880
      dz2     :     0.044272  d :     0.178005
      dxz     :     0.048177
      dyz     :     0.038036
      dx2y2   :     0.024701
      dxy     :     0.022819
      f0      :     0.003086  f :     0.016811
      f+1     :     0.003910
      f-1     :     0.002962
      f+2     :     0.002282
      f-2     :     0.002045
      f+3     :     0.001378
      f-3     :     0.001149
  4 H s       :     0.877566  s :     0.877566
      pz      :     0.005787  p :     0.022440
      px      :     0.007543
      py      :     0.009110
  5 C s       :     3.243455  s :     3.243455
      pz      :     0.964684  p :     2.924467
      px      :     0.950997
      py      :     1.008787
      dz2     :     0.017557  d :     0.077408
      dxz     :     0.014210
      dyz     :     0.011578
      dx2y2   :     0.019057
      dxy     :     0.015006
      f0      :     0.000400  f :     0.006272
      f+1     :     0.001134
      f-1     :     0.000859
      f+2     :     0.000898
      f-2     :     0.001020
      f+3     :     0.001030
      f-3     :     0.000932
  6 H s       :     0.853490  s :     0.853490
      pz      :     0.006329  p :     0.022177
      px      :     0.010132
      py      :     0.005716
  7 C s       :     3.264030  s :     3.264030
      pz      :     0.923411  p :     2.848407
      px      :     0.957941
      py      :     0.967056
      dz2     :     0.022845  d :     0.083189
      dxz     :     0.020418
      dyz     :     0.016426
      dx2y2   :     0.007922
      dxy     :     0.015577
      f0      :     0.001159  f :     0.006483
      f+1     :     0.001323
      f-1     :     0.000677
      f+2     :     0.000781
      f-2     :     0.001094
      f+3     :     0.000931
      f-3     :     0.000517
  8 H s       :     0.853688  s :     0.853688
      pz      :     0.011454  p :     0.022688
      px      :     0.005025
      py      :     0.006210
  9 C s       :     3.209721  s :     3.209721
      pz      :     0.812189  p :     2.629825
      px      :     0.851891
      py      :     0.965745
      dz2     :     0.029764  d :     0.131867
      dxz     :     0.031894
      dyz     :     0.023369
      dx2y2   :     0.024512
      dxy     :     0.022328
      f0      :     0.001169  f :     0.009255
      f+1     :     0.001721
      f-1     :     0.001242
      f+2     :     0.001311
      f-2     :     0.001389
      f+3     :     0.001190
      f-3     :     0.001233
 10 H s       :     0.850835  s :     0.850835
      pz      :     0.005931  p :     0.022269
      px      :     0.007548
      py      :     0.008790
 11 O s       :     3.752437  s :     3.752437
      pz      :     1.410709  p :     4.761173
      px      :     1.731712
      py      :     1.618753
      dz2     :     0.009697  d :     0.027507
      dxz     :     0.006782
      dyz     :     0.007955
      dx2y2   :     0.001457
      dxy     :     0.001616
      f0      :     0.000507  f :     0.001616
      f+1     :     0.000322
      f-1     :     0.000385
      f+2     :     0.000174
      f-2     :     0.000183
      f+3     :     0.000025
      f-3     :     0.000022


                     *******************************
                     * LOEWDIN POPULATION ANALYSIS *
                     *******************************

----------------------
LOEWDIN ATOMIC CHARGES
----------------------
   0 C :   -0.190032
   1 C :   -0.188197
   2 Cl:    0.341701
   3 C :   -0.474256
   4 H :    0.132050
   5 C :   -0.232739
   6 H :    0.132472
   7 C :   -0.192790
   8 H :    0.132101
   9 C :   -0.478821
  10 H :    0.133371
  11 O :   -0.114860

-------------------------------
LOEWDIN REDUCED ORBITAL CHARGES
-------------------------------
  0 C s       :     2.808476  s :     2.808476
      pz      :     1.026454  p :     3.017887
      px      :     1.000193
      py      :     0.991239
      dz2     :     0.081597  d :     0.329437
      dxz     :     0.094961
      dyz     :     0.066953
      dx2y2   :     0.034229
      dxy     :     0.051697
      f0      :     0.005393  f :     0.034232
      f+1     :     0.007736
      f-1     :     0.005056
      f+2     :     0.004865
      f-2     :     0.004340
      f+3     :     0.003282
      f-3     :     0.003560
  1 C s       :     2.808877  s :     2.808877
      pz      :     1.023962  p :     2.981606
      px      :     0.981127
      py      :     0.976517
      dz2     :     0.085530  d :     0.362971
      dxz     :     0.094863
      dyz     :     0.080979
      dx2y2   :     0.057759
      dxy     :     0.043840
      f0      :     0.005686  f :     0.034742
      f+1     :     0.006128
      f-1     :     0.006593
      f+2     :     0.004230
      f-2     :     0.004215
      f+3     :     0.003309
      f-3     :     0.004583
  2 Cls       :     5.541171  s :     5.541171
      pz      :     3.749838  p :    10.980169
      px      :     3.463704
      py      :     3.766627
      dz2     :     0.018144  d :     0.123999
      dxz     :     0.028730
      dyz     :     0.016655
      dx2y2   :     0.033135
      dxy     :     0.027336
      f0      :     0.001160  f :     0.012959
      f+1     :     0.002349
      f-1     :     0.000491
      f+2     :     0.002052
      f-2     :     0.002449
      f+3     :     0.002332
      f-3     :     0.002125
  3 C s       :     2.749757  s :     2.749757
      pz      :     0.939124  p :     2.824185
      px      :     0.972017
      py      :     0.913044
      dz2     :     0.197808  d :     0.789739
      dxz     :     0.215622
      dyz     :     0.181608
      dx2y2   :     0.099220
      dxy     :     0.095481
      f0      :     0.021711  f :     0.110575
      f+1     :     0.026695
      f-1     :     0.021094
      f+2     :     0.013446
      f-2     :     0.010389
      f+3     :     0.008215
      f-3     :     0.009026
  4 H s       :     0.804750  s :     0.804750
      pz      :     0.016566  p :     0.063200
      px      :     0.021293
      py      :     0.025342
  5 C s       :     2.802419  s :     2.802419
      pz      :     0.999680  p :     3.049931
      px      :     1.029696
      py      :     1.020555
      dz2     :     0.079008  d :     0.346044
      dxz     :     0.067083
      dyz     :     0.053485
      dx2y2   :     0.074248
      dxy     :     0.072219
      f0      :     0.002275  f :     0.034345
      f+1     :     0.007032
      f-1     :     0.004652
      f+2     :     0.005860
      f-2     :     0.004912
      f+3     :     0.003911
      f-3     :     0.005704
  6 H s       :     0.805058  s :     0.805058
      pz      :     0.017927  p :     0.062470
      px      :     0.028451
      py      :     0.016092
  7 C s       :     2.813125  s :     2.813125
      pz      :     1.013111  p :     2.985098
      px      :     1.007536
      py      :     0.964452
      dz2     :     0.094324  d :     0.360089
      dxz     :     0.094022
      dyz     :     0.074040
      dx2y2   :     0.034837
      dxy     :     0.062866
      f0      :     0.005879  f :     0.034479
      f+1     :     0.007790
      f-1     :     0.004839
      f+2     :     0.004804
      f-2     :     0.003869
      f+3     :     0.004014
      f-3     :     0.003283
  8 H s       :     0.804006  s :     0.804006
      pz      :     0.032055  p :     0.063893
      px      :     0.014315
      py      :     0.017523
  9 C s       :     2.828490  s :     2.828490
      pz      :     1.036980  p :     3.044703
      px      :     0.972790
      py      :     1.034934
      dz2     :     0.119407  d :     0.552640
      dxz     :     0.134474
      dyz     :     0.098737
      dx2y2   :     0.098811
      dxy     :     0.101211
      f0      :     0.006411  f :     0.052988
      f+1     :     0.011014
      f-1     :     0.007468
      f+2     :     0.007597
      f-2     :     0.006732
      f+3     :     0.006241
      f-3     :     0.007525
 10 H s       :     0.803441  s :     0.803441
      pz      :     0.016936  p :     0.063188
      px      :     0.021340
      py      :     0.024912
 11 O s       :     3.410251  s :     3.410251
      pz      :     1.481153  p :     4.632097
      px      :     1.612018
      py      :     1.538926
      dz2     :     0.022798  d :     0.066820
      dxz     :     0.017743
      dyz     :     0.019347
      dx2y2   :     0.003596
      dxy     :     0.003335
      f0      :     0.001551  f :     0.005693
      f+1     :     0.001228
      f-1     :     0.001549
      f+2     :     0.000669
      f-2     :     0.000593
      f+3     :     0.000045
      f-3     :     0.000058


                      *****************************
                      * MAYER POPULATION ANALYSIS *
                      *****************************

  NA   - Mulliken gross atomic population
  ZA   - Total nuclear charge
  QA   - Mulliken gross atomic charge
  VA   - Mayer's total valence
  BVA  - Mayer's bonded valence
  FA   - Mayer's free valence

  ATOM       NA         ZA         QA         VA         BVA        FA
  0 C      6.2991     6.0000    -0.2991     3.7487     3.7487    -0.0000
  1 C      6.1541     6.0000    -0.1541     3.8196     3.8196    -0.0000
  2 Cl    17.1737    17.0000    -0.1737     1.1999     1.1999     0.0000
  3 C      5.8709     6.0000     0.1291     4.3191     4.3191     0.0000
  4 H      0.9000     1.0000     0.1000     1.0028     1.0028    -0.0000
  5 C      6.2516     6.0000    -0.2516     3.8796     3.8796     0.0000
  6 H      0.8757     1.0000     0.1243     0.9608     0.9608     0.0000
  7 C      6.2021     6.0000    -0.2021     3.8916     3.8916     0.0000
  8 H      0.8764     1.0000     0.1236     0.9628     0.9628     0.0000
  9 C      5.9807     6.0000     0.0193     3.3042     3.3042     0.0000
 10 H      0.8731     1.0000     0.1269     0.9755     0.9755     0.0000
 11 O      8.5427     8.0000    -0.5427     1.9726     1.9726     0.0000

  Mayer bond orders larger than 0.100000
B(  0-C ,  1-C ) :   1.4017 B(  0-C ,  3-C ) :   1.2471 B(  0-C ,  4-H ) :   0.9721 
B(  1-C ,  5-C ) :   1.3555 B(  1-C ,  6-H ) :   0.9606 B(  2-Cl,  7-C ) :   0.1009 
B(  2-Cl,  9-C ) :   0.9121 B(  3-C ,  9-C ) :   1.0314 B(  3-C , 11-O ) :   1.8721 
B(  5-C ,  7-C ) :   1.3809 B(  5-C ,  8-H ) :   0.9690 B(  7-C ,  9-C ) :   1.3061 
B(  7-C , 10-H ) :   0.9617 

-------
TIMINGS
-------

Total SCF time: 0 days 0 hours 0 min 49 sec 

Total time                  ....      49.853 sec
Sum of individual times     ....      47.081 sec  ( 94.4%)

Fock matrix formation       ....      44.187 sec  ( 88.6%)
  Split-RI-J                ....       8.255 sec  ( 18.7% of F)
  XC integration            ....      22.111 sec  ( 50.0% of F)
    Basis function eval.    ....       6.341 sec  ( 28.7% of XC)
    Density eval.           ....       5.401 sec  ( 24.4% of XC)
    XC-Functional eval.     ....       0.862 sec  (  3.9% of XC)
    XC-Potential eval.      ....       6.850 sec  ( 31.0% of XC)
Diagonalization             ....       0.104 sec  (  0.2%)
Density matrix formation    ....       0.013 sec  (  0.0%)
Population analysis         ....       0.085 sec  (  0.2%)
Initial guess               ....       0.857 sec  (  1.7%)
Orbital Transformation      ....       0.000 sec  (  0.0%)
Orbital Orthonormalization  ....       0.000 sec  (  0.0%)
DIIS solution               ....       0.230 sec  (  0.5%)
SOSCF solution              ....       0.322 sec  (  0.6%)
Grid generation             ....       1.282 sec  (  2.6%)

Maximum memory used throughout the entire SCF-calculation: 114.6 MB


-------------------------------------------------------------------------------
                          DFT DISPERSION CORRECTION                            
                                                                               
                              DFTD3 V3.1  Rev 1                                
                          USING Becke-Johnson damping                          
-------------------------------------------------------------------------------
The PBE functional is recognized
Active option DFTDOPT                   ...         4   

molecular C6(AA) [au] = 2527.475006 


            DFT-D V3
 parameters
 s6 scaling factor         :     1.0000 
 a1 scaling factor         :     0.4289 
 s8 scaling factor         :     0.7875 
 a2 scaling factor         :     4.4407 
 ad hoc parameters k1-k3   :    16.0000     1.3333    -4.0000 

 Edisp/kcal,au: -8.357000114157  -0.013317725976 
 E6   /kcal   :  -5.682499456 
 E8   /kcal   :  -2.674500658 
 % E8         :  32.003118604 

-------------------------   ----------------
Dispersion correction           -0.013317726
-------------------------   ----------------


-------------------------   --------------------
FINAL SINGLE POINT ENERGY      -766.171323482448
-------------------------   --------------------

------------------------------------------------------------------------------
                         ORCA SCF GRADIENT CALCULATION
------------------------------------------------------------------------------

Gradient of the Kohn-Sham DFT energy:
Kohn-Sham wavefunction type      ... RKS
Hartree-Fock exchange scaling    ...    0.000
Number of operators              ...    1
Number of atoms                  ...   12
Basis set dimensions             ...  278
Integral neglect threshold       ... 2.5e-11
Integral primitive cutoff        ... 2.5e-12
SHARK Integral package           ... ON

Nuc. rep. gradient       (SHARK) ... done (  0.0 sec)
HCore & Overlap gradient (SHARK) ... done (  0.3 sec)
RI-J gradient            (SHARK) ... done (  2.5 sec)
Exchange-correlation gradient    ... done
Dispersion correction            ... done

------------------
CARTESIAN GRADIENT
------------------

   1   C   :    0.006525329    0.041526882    0.066260579
   2   C   :    0.038941898    0.010733336   -0.032591982
   3   Cl  :    0.003483213   -0.002483809   -0.009078470
   4   C   :   -0.004897971   -0.000479394    0.005588737
   5   H   :   -0.000220241   -0.003126437   -0.005314500
   6   C   :    0.010735865   -0.014060771   -0.039774863
   7   H   :   -0.006216753   -0.001627051    0.005369710
   8   C   :   -0.028986872   -0.035580663   -0.025431359
   9   H   :   -0.000494550    0.002941846    0.005969405
  10   C   :   -0.039371921    0.007913566    0.066999456
  11   H   :    0.004595798    0.005107502    0.003105101
  12   O   :    0.015906204   -0.010865007   -0.041101815

Difference to translation invariance:
           :   -0.0000000001   -0.0000000000    0.0000000001

Difference to rotation invariance:
           :   -0.0003533798   -0.0004618769    0.0004507502

Norm of the cartesian gradient     ...    0.1484159273
RMS gradient                       ...    0.0247359879
MAX gradient                       ...    0.0669994564

-------
TIMINGS
-------

Total SCF gradient time            ...       12.763 sec

One electron gradient       ....       0.331 sec  (  2.6%)
RI-J Coulomb gradient       ....       2.521 sec  ( 19.8%)
XC gradient                 ....       8.333 sec  ( 65.3%)
CPCM gradient               ....       0.579 sec  (  4.5%)
   A-Matrix (El+Nuc)        ....       0.030 sec  (  0.2%)
   Potential                ....       0.549 sec  (  4.3%)

Maximum memory used throughout the entire SCFGRAD-calculation: 116.6 MB
------------------------------------------------------------------------------
                         ORCA GEOMETRY RELAXATION STEP
------------------------------------------------------------------------------

Reading the OPT-File                    .... done
Getting information on internals        .... done
Copying old internal coords+grads       .... done
Making the new internal coordinates     .... (new redundants).... done
Validating the new internal coordinates .... (new redundants).... done
Calculating the B-matrix                .... done
Calculating the G,G- and P matrices     .... done
Transforming gradient to internals      .... done
Projecting the internal gradient        .... done
Number of atoms                         ....  12
Number of internal coordinates          ....  54
Current Energy                          ....  -766.171323482 Eh
Current gradient norm                   ....     0.148415927 Eh/bohr
Maximum allowed component of the step   ....  0.300
Current trust radius                    ....  0.300
Evaluating the initial hessian          ....  (Almloef) done
Projecting the Hessian                  .... done
Forming the augmented Hessian           .... done
Diagonalizing the augmented Hessian     .... done
Last element of RFO vector              ....  0.976134309
Lowest eigenvalues of augmented Hessian:
 -0.024891319  0.015537127  0.015704068  0.015826906  0.016154923
Length of the computed step             ....  0.222477277
The final length of the internal step   ....  0.222477277
Converting the step to cartesian space:
 Initial RMS(Int)=    0.0302753227
Transforming coordinates:
 Iter   0:  RMS(Cart)=    0.0426295328 RMS(Int)=    1.7102439958
 Iter   1:  RMS(Cart)=    0.0007075374 RMS(Int)=    0.8550309435
 Iter   2:  RMS(Cart)=    0.0000218392 RMS(Int)=    0.0000142254
 Iter   3:  RMS(Cart)=    0.0000007380 RMS(Int)=    0.0000005112
 Iter   4:  RMS(Cart)=    0.0000000309 RMS(Int)=    0.0000000177
done
Storing new coordinates                 .... done

                                .--------------------.
          ----------------------|Geometry convergence|-------------------------
          Item                value                   Tolerance       Converged
          ---------------------------------------------------------------------
          RMS gradient        0.0155467270            0.0001000000      NO
          MAX gradient        0.0462021931            0.0003000000      NO
          RMS step            0.0302753227            0.0020000000      NO
          MAX step            0.0920855461            0.0040000000      NO
          ........................................................
          Max(Bonds)      0.0487      Max(Angles)    4.19
          Max(Dihed)        0.05      Max(Improp)    0.00
          ---------------------------------------------------------------------

The optimization has not yet converged - more geometry cycles are needed


    ---------------------------------------------------------------------------
                         Redundant Internal Coordinates
                            (Angstroem and degrees)

        Definition                    Value    dE/dq     Step     New-Value
    ----------------------------------------------------------------------------
     1. B(C   1,C   0)                1.4572  0.045183 -0.0467    1.4105   
     2. B(C   3,C   0)                1.4523  0.007793 -0.0076    1.4446   
     3. B(H   4,C   0)                1.0826 -0.004543  0.0061    1.0887   
     4. B(C   5,C   1)                1.4551  0.039892 -0.0412    1.4139   
     5. B(H   6,C   1)                1.0805 -0.008152  0.0108    1.0913   
     6. B(C   7,C   5)                1.4574  0.044381 -0.0461    1.4113   
     7. B(H   8,C   5)                1.0805 -0.006577  0.0088    1.0893   
     8. B(C   9,C   7)                1.4640  0.046202 -0.0487    1.4153   
     9. B(C   9,C   3)                1.4622  0.014033 -0.0144    1.4478   
    10. B(C   9,Cl  2)                1.7256 -0.005944  0.0073    1.7329   
    11. B(H  10,C   7)                1.0803 -0.007537  0.0100    1.0903   
    12. B(O  11,C   3)                1.2515 -0.044277  0.0245    1.2760   
    13. A(C   1,C   0,C   3)          119.67 -0.012216    1.71    121.38   
    14. A(C   1,C   0,H   4)          120.14  0.001830   -0.19    119.96   
    15. A(C   3,C   0,H   4)          120.18  0.010386   -1.52    118.66   
    16. A(C   5,C   1,H   6)          120.57  0.003779   -0.51    120.06   
    17. A(C   0,C   1,C   5)          120.09 -0.003659    0.41    120.51   
    18. A(C   0,C   1,H   6)          119.34 -0.000121    0.10    119.43   
    19. A(C   9,C   3,O  11)          122.02 -0.004385    0.66    122.67   
    20. A(C   0,C   3,C   9)          121.03  0.032433   -4.19    116.84   
    21. A(C   0,C   3,O  11)          116.96 -0.028048    3.53    120.49   
    22. A(C   1,C   5,C   7)          120.02  0.001727   -0.37    119.64   
    23. A(C   7,C   5,H   8)          119.93  0.000281    0.01    119.94   
    24. A(C   1,C   5,H   8)          120.05 -0.002007    0.37    120.42   
    25. A(C   5,C   7,H  10)          119.90  0.001178   -0.13    119.77   
    26. A(C   5,C   7,C   9)          120.46 -0.002730    0.32    120.78   
    27. A(C   9,C   7,H  10)          119.64  0.001552   -0.19    119.45   
    28. A(C   3,C   9,C   7)          118.73 -0.015555    2.13    120.86   
    29. A(Cl  2,C   9,C   7)          117.31 -0.005392    0.70    118.02   
    30. A(Cl  2,C   9,C   3)          123.96  0.020946   -2.83    121.13   
    31. D(H   6,C   1,C   0,C   3)    180.00 -0.000005    0.01    180.01   
    32. D(H   6,C   1,C   0,H   4)     -0.00 -0.000025    0.03      0.03   
    33. D(C   5,C   1,C   0,H   4)   -180.00 -0.000010    0.01   -179.99   
    34. D(C   5,C   1,C   0,C   3)     -0.00  0.000009   -0.01     -0.01   
    35. D(O  11,C   3,C   0,C   1)    180.00  0.000000   -0.00    180.00   
    36. D(C   9,C   3,C   0,C   1)     -0.00  0.000013   -0.02     -0.02   
    37. D(C   9,C   3,C   0,H   4)    180.00  0.000033   -0.05    179.95   
    38. D(O  11,C   3,C   0,H   4)     -0.00  0.000020   -0.03     -0.03   
    39. D(H   8,C   5,C   1,H   6)     -0.00 -0.000013    0.02      0.02   
    40. D(H   8,C   5,C   1,C   0)    180.00 -0.000027    0.04    180.04   
    41. D(C   7,C   5,C   1,H   6)   -180.00 -0.000011    0.01   -179.98   
    42. D(C   7,C   5,C   1,C   0)      0.00 -0.000026    0.04      0.04   
    43. D(H  10,C   7,C   5,C   1)    180.00  0.000002   -0.00    180.00   
    44. D(C   9,C   7,C   5,H   8)   -180.00  0.000021   -0.03   -180.03   
    45. D(C   9,C   7,C   5,C   1)      0.00  0.000019   -0.03     -0.03   
    46. D(H  10,C   7,C   5,H   8)      0.00  0.000004   -0.01     -0.01   
    47. D(C   3,C   9,C   7,H  10)    180.00  0.000020   -0.03    179.97   
    48. D(Cl  2,C   9,C   7,H  10)     -0.00  0.000030   -0.04     -0.04   
    49. D(Cl  2,C   9,C   7,C   5)    180.00  0.000014   -0.02    179.98   
    50. D(C   7,C   9,C   3,O  11)   -180.00 -0.000006    0.01   -179.99   
    51. D(C   7,C   9,C   3,C   0)      0.00 -0.000020    0.03      0.03   
    52. D(C   3,C   9,C   7,C   5)     -0.00  0.000003   -0.00     -0.01   
    53. D(Cl  2,C   9,C   3,O  11)      0.00 -0.000017    0.02      0.03   
    54. D(Cl  2,C   9,C   3,C   0)   -180.00 -0.000030    0.04   -179.96   
    ----------------------------------------------------------------------------

         *************************************************************
         *                GEOMETRY OPTIMIZATION CYCLE   2            *
         *************************************************************
---------------------------------
CARTESIAN COORDINATES (ANGSTROEM)
---------------------------------
  C     -4.042891   -1.914364    1.947648
  C     -3.747188   -2.406731    0.659419
  Cl    -7.463653   -3.971033    2.802326
  C     -5.202983   -2.368944    2.678854
  H     -3.390515   -1.175737    2.410312
  C     -4.586763   -3.365880    0.047708
  H     -2.862252   -2.041378    0.135622
  C     -5.728972   -3.831784    0.733216
  H     -4.356953   -3.745786   -0.946965
  C     -6.043835   -3.350564    2.026447
  H     -6.378077   -4.571389    0.263655
  O     -5.454146   -1.911906    3.843414

----------------------------
CARTESIAN COORDINATES (A.U.)
----------------------------
  NO LB      ZA    FRAG     MASS         X           Y           Z
   0 C     6.0000    0    12.011   -7.639956   -3.617623    3.680521
   1 C     6.0000    0    12.011   -7.081160   -4.548063    1.246122
   2 Cl   17.0000    0    35.453  -14.104261   -7.504165    5.295628
   3 C     6.0000    0    12.011   -9.832213   -4.476655    5.062301
   4 H     1.0000    0     1.008   -6.407145   -2.221821    4.554829
   5 C     6.0000    0    12.011   -8.667726   -6.360591    0.090155
   6 H     1.0000    0     1.008   -5.408872   -3.857645    0.256289
   7 C     6.0000    0    12.011  -10.826189   -7.241023    1.385578
   8 H     1.0000    0     1.008   -8.233448   -7.078509   -1.789504
   9 C     6.0000    0    12.011  -11.421194   -6.331648    3.829429
  10 H     1.0000    0     1.008  -12.052819   -8.638672    0.498236
  11 O     8.0000    0    15.999  -10.306843   -3.612979    7.263001

--------------------------------
INTERNAL COORDINATES (ANGSTROEM)
--------------------------------
 C      0   0   0     0.000000000000     0.00000000     0.00000000
 C      1   0   0     1.410460042436     0.00000000     0.00000000
 Cl     1   2   0     4.081909100608   101.01371519     0.00000000
 C      1   2   3     1.444687083471   121.38468601     0.00000000
 H      1   2   3     1.088678524644   119.95757769   180.04999044
 C      2   1   3     1.413874850518   120.49576080   359.96451375
 H      2   1   3     1.091310763754   119.44001841   179.98457950
 C      6   2   1     1.411251338199   119.63072133     0.03581103
 H      6   2   1     1.089272844157   120.42397610   180.03769768
 C      8   6   2     1.415328986619   120.77363003   359.97323700
 H      8   6   2     1.090339332397   119.77405133   179.99634327
 O      4   1   2     1.275996374249   120.48350412   179.99952846

---------------------------
INTERNAL COORDINATES (A.U.)
---------------------------
 C      0   0   0     0.000000000000     0.00000000     0.00000000
 C      1   0   0     2.665383203044     0.00000000     0.00000000
 Cl     1   2   0     7.713690303710   101.01371519     0.00000000
 C      1   2   3     2.730062936973   121.38468601     0.00000000
 H      1   2   3     2.057304259459   119.95757769   180.04999044
 C      2   1   3     2.671836255118   120.49576080   359.96451375
 H      2   1   3     2.062278470496   119.44001841   179.98457950
 C      6   2   1     2.666878535326   119.63072133     0.03581103
 H      6   2   1     2.058427360574   120.42397610   180.03769768
 C      8   6   2     2.674584174110   120.77363003   359.97323700
 H      8   6   2     2.060442731274   119.77405133   179.99634327
 O      4   1   2     2.411283695208   120.48350412   179.99952846

------------------------------------------------------------------------------
                   ___                                                        
                  /   \      - P O W E R E D   B Y -                         
                 /     \                                                     
                 |  |  |   _    _      __       _____    __    __             
                 |  |  |  | |  | |    /  \     |  _  \  |  |  /  |          
                  \  \/   | |  | |   /    \    | | | |  |  | /  /          
                 / \  \   | |__| |  /  /\  \   | |_| |  |  |/  /          
                |  |  |   |  __  | /  /__\  \  |    /   |      \           
                |  |  |   | |  | | |   __   |  |    \   |  |\   \          
                \     /   | |  | | |  |  |  |  | |\  \  |  | \   \       
[...]
 228   0.0000       3.952257       107.5464 
 229   0.0000       3.964848       107.8890 
 230   0.0000       4.001183       108.8777 
 231   0.0000       4.021074       109.4190 
 232   0.0000       4.039468       109.9195 
 233   0.0000       4.093848       111.3993 
 234   0.0000       4.122158       112.1696 
 235   0.0000       4.128336       112.3377 
 236   0.0000       4.162331       113.2628 
 237   0.0000       4.170512       113.4854 
 238   0.0000       4.185098       113.8823 
 239   0.0000       4.233554       115.2009 
 240   0.0000       4.408284       119.9555 
 241   0.0000       4.455328       121.2356 
 242   0.0000       4.489820       122.1742 
 243   0.0000       4.516758       122.9072 
 244   0.0000       4.601549       125.2145 
 245   0.0000       4.642853       126.3385 
 246   0.0000       4.679058       127.3236 
 247   0.0000       4.748440       129.2116 
 248   0.0000       4.845382       131.8495 
 249   0.0000       4.939977       134.4236 
 250   0.0000       4.980345       135.5221 
 251   0.0000       5.062317       137.7527 
 252   0.0000       5.135892       139.7547 
 253   0.0000       5.163235       140.4988 
 254   0.0000       5.188772       141.1937 
 255   0.0000       5.239066       142.5622 
 256   0.0000       5.452832       148.3791 
 257   0.0000       5.489729       149.3831 
 258   0.0000       5.632534       153.2690 
 259   0.0000       5.929856       161.3596 
 260   0.0000       6.222186       169.3143 
 261   0.0000       6.292904       171.2386 
 262   0.0000       6.456326       175.6856 
 263   0.0000       6.509194       177.1242 
 264   0.0000       6.719641       182.8507 
 265   0.0000       6.942599       188.9177 
 266   0.0000       6.967067       189.5835 
 267   0.0000      10.556759       287.2640 
 268   0.0000      10.634586       289.3818 
 269   0.0000      11.143414       303.2277 
 270   0.0000      21.746859       591.7621 
 271   0.0000      22.285514       606.4197 
 272   0.0000      22.326428       607.5330 
 273   0.0000      22.405887       609.6952 
 274   0.0000      22.540678       613.3630 
 275   0.0000      23.017916       626.3493 
 276   0.0000      25.529373       694.6896 
 277   0.0000      43.577322      1185.7992 

                    ********************************
                    * MULLIKEN POPULATION ANALYSIS *
                    ********************************

-----------------------
MULLIKEN ATOMIC CHARGES
-----------------------
   0 C :   -0.245082
   1 C :   -0.161814
   2 Cl:   -0.213514
   3 C :    0.065453
   4 H :    0.083247
   5 C :   -0.208053
   6 H :    0.117535
   7 C :   -0.230304
   8 H :    0.119489
   9 C :    0.117548
  10 H :    0.122526
  11 O :   -0.567032
Sum of atomic charges:   -1.0000000

--------------------------------
MULLIKEN REDUCED ORBITAL CHARGES
--------------------------------
  0 C s       :     3.276181  s :     3.276181
      pz      :     0.917017  p :     2.888754
      px      :     0.969861
      py      :     1.001876
      dz2     :     0.016552  d :     0.073547
      dxz     :     0.021019
      dyz     :     0.015410
      dx2y2   :     0.009035
      dxy     :     0.011532
      f0      :     0.001220  f :     0.006600
      f+1     :     0.001460
      f-1     :     0.000660
      f+2     :     0.000872
      f-2     :     0.001222
      f+3     :     0.000699
      f-3     :     0.000468
  1 C s       :     3.201349  s :     3.201349
      pz      :     0.934271  p :     2.861799
      px      :     0.968864
      py      :     0.958664
      dz2     :     0.019955  d :     0.091886
      dxz     :     0.023497
      dyz     :     0.022634
      dx2y2   :     0.016885
      dxy     :     0.008916
      f0      :     0.001142  f :     0.006779
      f+1     :     0.000991
      f-1     :     0.001136
      f+2     :     0.000964
      f-2     :     0.000988
      f+3     :     0.000666
      f-3     :     0.000892
  2 Cls       :     5.890493  s :     5.890493
      pz      :     3.840501  p :    11.251001
      px      :     3.533404
      py      :     3.877096
      dz2     :     0.009280  d :     0.066727
      dxz     :     0.015848
      dyz     :     0.010044
      dx2y2   :     0.017374
      dxy     :     0.014180
      f0      :     0.000583  f :     0.005293
      f+1     :     0.000829
      f-1     :     0.000175
      f+2     :     0.000925
      f-2     :     0.001097
      f+3     :     0.000805
      f-3     :     0.000879
  3 C s       :     2.993429  s :     2.993429
      pz      :     0.876761  p :     2.765319
      px      :     0.957023
      py      :     0.931535
      dz2     :     0.043481  d :     0.159855
      dxz     :     0.038887
      dyz     :     0.034155
      dx2y2   :     0.021356
      dxy     :     0.021976
      f0      :     0.002884  f :     0.015944
      f+1     :     0.003801
      f-1     :     0.002903
      f+2     :     0.002373
      f-2     :     0.001906
      f+3     :     0.001060
      f-3     :     0.001018
  4 H s       :     0.894852  s :     0.894852
      pz      :     0.005608  p :     0.021901
      px      :     0.007419
      py      :     0.008874
  5 C s       :     3.199404  s :     3.199404
      pz      :     0.955783  p :     2.917175
      px      :     0.957300
      py      :     1.004091
      dz2     :     0.020474  d :     0.084735
      dxz     :     0.014002
      dyz     :     0.012141
      dx2y2   :     0.020613
      dxy     :     0.017506
      f0      :     0.000360  f :     0.006739
      f+1     :     0.001350
      f-1     :     0.000999
      f+2     :     0.000978
      f-2     :     0.000995
      f+3     :     0.001062
      f-3     :     0.000996
  6 H s       :     0.861022  s :     0.861022
      pz      :     0.005992  p :     0.021442
      px      :     0.009977
      py      :     0.005473
  7 C s       :     3.250295  s :     3.250295
      pz      :     0.940750  p :     2.879187
      px      :     0.966940
      py      :     0.971498
      dz2     :     0.025502  d :     0.093820
      dxz     :     0.024748
      dyz     :     0.017342
      dx2y2   :     0.008979
      dxy     :     0.017249
      f0      :     0.001212  f :     0.007002
      f+1     :     0.001554
      f-1     :     0.000647
      f+2     :     0.000885
      f-2     :     0.001153
      f+3     :     0.001023
      f-3     :     0.000528
  8 H s       :     0.858452  s :     0.858452
      pz      :     0.011350  p :     0.022059
      px      :     0.004748
      py      :     0.005961
  9 C s       :     3.170214  s :     3.170214
      pz      :     0.782296  p :     2.564255
      px      :     0.834339
      py      :     0.947621
      dz2     :     0.030845  d :     0.138513
      dxz     :     0.035081
      dyz     :     0.026243
      dx2y2   :     0.024970
      dxy     :     0.021373
      f0      :     0.001328  f :     0.009470
      f+1     :     0.001732
      f-1     :     0.001355
      f+2     :     0.001514
      f-2     :     0.001432
      f+3     :     0.001006
      f-3     :     0.001102
 10 H s       :     0.855837  s :     0.855837
      pz      :     0.005530  p :     0.021638
      px      :     0.007507
      py      :     0.008601
 11 O s       :     3.768616  s :     3.768616
      pz      :     1.404605  p :     4.770379
      px      :     1.727247
      py      :     1.638526
      dz2     :     0.009787  d :     0.026531
      dxz     :     0.006429
      dyz     :     0.007537
      dx2y2   :     0.001260
      dxy     :     0.001519
      f0      :     0.000476  f :     0.001506
      f+1     :     0.000305
      f-1     :     0.000368
      f+2     :     0.000148
      f-2     :     0.000167
      f+3     :     0.000023
      f-3     :     0.000019


                     *******************************
                     * LOEWDIN POPULATION ANALYSIS *
                     *******************************

----------------------
LOEWDIN ATOMIC CHARGES
----------------------
   0 C :   -0.186713
   1 C :   -0.197983
   2 Cl:    0.291358
   3 C :   -0.450874
   4 H :    0.136960
   5 C :   -0.225518
   6 H :    0.143822
   7 C :   -0.203551
   8 H :    0.141017
   9 C :   -0.436086
  10 H :    0.145937
  11 O :   -0.158368

-------------------------------
LOEWDIN REDUCED ORBITAL CHARGES
-------------------------------
  0 C s       :     2.785446  s :     2.785446
      pz      :     1.038348  p :     3.003307
      px      :     0.988774
      py      :     0.976185
      dz2     :     0.086129  d :     0.359473
      dxz     :     0.105125
      dyz     :     0.074379
      dx2y2   :     0.035919
      dxy     :     0.057920
      f0      :     0.006537  f :     0.038487
      f+1     :     0.009251
      f-1     :     0.005573
      f+2     :     0.005623
      f-2     :     0.004955
      f+3     :     0.003227
      f-3     :     0.003321
  1 C s       :     2.775934  s :     2.775934
      pz      :     1.031767  p :     2.975226
      px      :     0.969057
      py      :     0.974402
      dz2     :     0.095806  d :     0.404524
      dxz     :     0.104405
      dyz     :     0.090848
      dx2y2   :     0.064114
      dxy     :     0.049351
      f0      :     0.007018  f :     0.042299
      f+1     :     0.007679
      f-1     :     0.008222
      f+2     :     0.005246
      f-2     :     0.005066
      f+3     :     0.003839
      f-3     :     0.005228
  2 Cls       :     5.566542  s :     5.566542
      pz      :     3.745479  p :    11.021833
      px      :     3.483339
      py      :     3.793015
      dz2     :     0.016079  d :     0.109122
      dxz     :     0.026312
      dyz     :     0.015498
      dx2y2   :     0.027569
      dxy     :     0.023665
      f0      :     0.001070  f :     0.011146
      f+1     :     0.002024
      f-1     :     0.000413
      f+2     :     0.001867
      f-2     :     0.002195
      f+3     :     0.001810
      f-3     :     0.001767
  3 C s       :     2.742505  s :     2.742505
      pz      :     0.931646  p :     2.825772
      px      :     0.977653
      py      :     0.916473
      dz2     :     0.196601  d :     0.781992
      dxz     :     0.215990
      dyz     :     0.181107
      dx2y2   :     0.095603
      dxy     :     0.092691
      f0      :     0.019171  f :     0.100605
      f+1     :     0.024069
      f-1     :     0.019702
      f+2     :     0.013348
      f-2     :     0.009547
      f+3     :     0.006999
      f-3     :     0.007768
  4 H s       :     0.803395  s :     0.803395
      pz      :     0.015571  p :     0.059645
      px      :     0.020269
      py      :     0.023804
  5 C s       :     2.772534  s :     2.772534
      pz      :     0.986105  p :     3.027917
      px      :     1.031866
      py      :     1.009946
      dz2     :     0.089252  d :     0.383209
      dxz     :     0.073359
      dyz     :     0.059741
      dx2y2   :     0.082576
      dxy     :     0.078281
      f0      :     0.002659  f :     0.041859
      f+1     :     0.008981
      f-1     :     0.005725
      f+2     :     0.007409
      f-2     :     0.005884
      f+3     :     0.004533
      f-3     :     0.006668
  6 H s       :     0.797941  s :     0.797941
      pz      :     0.016467  p :     0.058237
      px      :     0.026707
      py      :     0.015064
  7 C s       :     2.777782  s :     2.777782
      pz      :     1.026939  p :     2.981725
      px      :     1.003305
      py      :     0.951482
      dz2     :     0.107185  d :     0.401446
      dxz     :     0.102572
      dyz     :     0.081474
      dx2y2   :     0.038096
      dxy     :     0.072119
      f0      :     0.007458  f :     0.042598
      f+1     :     0.009925
      f-1     :     0.005941
      f+2     :     0.005923
      f-2     :     0.004725
      f+3     :     0.004805
      f-3     :     0.003821
  8 H s       :     0.798690  s :     0.798690
      pz      :     0.030449  p :     0.060293
      px      :     0.013351
      py      :     0.016493
  9 C s       :     2.807369  s :     2.807369
      pz      :     1.049101  p :     3.004261
      px      :     0.937214
      py      :     1.017945
      dz2     :     0.119841  d :     0.567887
      dxz     :     0.146120
      dyz     :     0.107146
      dx2y2   :     0.098321
      dxy     :     0.096459
      f0      :     0.007590  f :     0.056569
      f+1     :     0.011766
      f-1     :     0.008979
      f+2     :     0.008675
      f-2     :     0.007186
      f+3     :     0.005566
      f-3     :     0.006807
 10 H s       :     0.794877  s :     0.794877
      pz      :     0.015324  p :     0.059186
      px      :     0.020482
      py      :     0.023381
 11 O s       :     3.436509  s :     3.436509
      pz      :     1.467308  p :     4.656394
      px      :     1.627059
      py      :     1.562026
      dz2     :     0.021676  d :     0.060549
      dxz     :     0.015601
      dyz     :     0.017329
      dx2y2   :     0.002999
      dxy     :     0.002944
      f0      :     0.001386  f :     0.004915
      f+1     :     0.001078
      f-1     :     0.001337
      f+2     :     0.000529
      f-2     :     0.000498
      f+3     :     0.000040
      f-3     :     0.000048


                      *****************************
                      * MAYER POPULATION ANALYSIS *
                      *****************************

  NA   - Mulliken gross atomic population
  ZA   - Total nuclear charge
  QA   - Mulliken gross atomic charge
  VA   - Mayer's total valence
  BVA  - Mayer's bonded valence
  FA   - Mayer's free valence

  ATOM       NA         ZA         QA         VA         BVA        FA
  0 C      6.2451     6.0000    -0.2451     3.6975     3.6975     0.0000
  1 C      6.1618     6.0000    -0.1618     3.8558     3.8558     0.0000
  2 Cl    17.2135    17.0000    -0.2135     1.1490     1.1490    -0.0000
  3 C      5.9345     6.0000     0.0655     4.4020     4.4020     0.0000
  4 H      0.9168     1.0000     0.0832     0.9994     0.9994    -0.0000
  5 C      6.2081     6.0000    -0.2081     3.8956     3.8956     0.0000
  6 H      0.8825     1.0000     0.1175     0.9629     0.9629     0.0000
  7 C      6.2303     6.0000    -0.2303     3.9864     3.9864     0.0000
  8 H      0.8805     1.0000     0.1195     0.9650     0.9650    -0.0000
  9 C      5.8825     6.0000     0.1175     3.1924     3.1924    -0.0000
 10 H      0.8775     1.0000     0.1225     0.9838     0.9838    -0.0000
 11 O      8.5670     8.0000    -0.5670     1.9726     1.9726    -0.0000

  Mayer bond orders larger than 0.100000
B(  0-C ,  1-C ) :   1.4187 B(  0-C ,  3-C ) :   1.2366 B(  0-C ,  4-H ) :   0.9723 
B(  1-C ,  5-C ) :   1.3647 B(  1-C ,  6-H ) :   0.9630 B(  2-Cl,  7-C ) :   0.1136 
B(  2-Cl,  9-C ) :   0.8313 B(  3-C ,  9-C ) :   1.0172 B(  3-C , 11-O ) :   1.9257 
B(  5-C ,  7-C ) :   1.3901 B(  5-C ,  8-H ) :   0.9707 B(  7-C ,  9-C ) :   1.3678 
B(  7-C , 10-H ) :   0.9605 

-------
TIMINGS
-------

Total SCF time: 0 days 0 hours 0 min 13 sec 

Total time                  ....      13.283 sec
Sum of individual times     ....      11.706 sec  ( 88.1%)

Fock matrix formation       ....      10.698 sec  ( 80.5%)
  Split-RI-J                ....       2.063 sec  ( 19.3% of F)
  XC integration            ....       5.314 sec  ( 49.7% of F)
    Basis function eval.    ....       1.589 sec  ( 29.9% of XC)
    Density eval.           ....       1.361 sec  ( 25.6% of XC)
    XC-Functional eval.     ....       0.213 sec  (  4.0% of XC)
    XC-Potential eval.      ....       1.413 sec  ( 26.6% of XC)
Diagonalization             ....       0.014 sec  (  0.1%)
Density matrix formation    ....       0.004 sec  (  0.0%)
Population analysis         ....       0.062 sec  (  0.5%)
Initial guess               ....       0.019 sec  (  0.1%)
Orbital Transformation      ....       0.000 sec  (  0.0%)
Orbital Orthonormalization  ....       0.014 sec  (  0.1%)
DIIS solution               ....       0.004 sec  (  0.0%)
SOSCF solution              ....       0.061 sec  (  0.5%)
Grid generation             ....       0.843 sec  (  6.3%)

Maximum memory used throughout the entire SCF-calculation: 114.7 MB


-------------------------------------------------------------------------------
                          DFT DISPERSION CORRECTION                            
                                                                               
                              DFTD3 V3.1  Rev 1                                
                          USING Becke-Johnson damping                          
-------------------------------------------------------------------------------
The PBE functional is recognized
Active option DFTDOPT                   ...         4   

molecular C6(AA) [au] = 2518.707616 


            DFT-D V3
 parameters
 s6 scaling factor         :     1.0000 
 a1 scaling factor         :     0.4289 
 s8 scaling factor         :     0.7875 
 a2 scaling factor         :     4.4407 
 ad hoc parameters k1-k3   :    16.0000     1.3333    -4.0000 

 Edisp/kcal,au: -8.481518010953  -0.013516157854 
 E6   /kcal   :  -5.766697398 
 E8   /kcal   :  -2.714820613 
 % E8         :  32.008664129 

-------------------------   ----------------
Dispersion correction           -0.013516158
-------------------------   ----------------


-------------------------   --------------------
FINAL SINGLE POINT ENERGY      -766.191362957571
-------------------------   --------------------

                                *** OPTIMIZATION RUN DONE ***

                            ***************************************
                            *     ORCA property calculations      *
                            ***************************************

                                    ---------------------
                                    Active property flags
                                    ---------------------
   (+) Dipole Moment


------------------------------------------------------------------------------
                       ORCA ELECTRIC PROPERTIES CALCULATION
------------------------------------------------------------------------------

Dipole Moment Calculation                       ... on
Quadrupole Moment Calculation                   ... off
Polarizability Calculation                      ... off
GBWName                                         ... inp.gbw
Electron density                                ... inp.scfp
The origin for moment calculation is the CENTER OF MASS  = (-10.681052, -5.768864  3.858419)

-------------
DIPOLE MOMENT
-------------
                                X             Y             Z
Electronic contribution:     -7.52558      -2.93081       4.78062
Nuclear contribution   :      7.65996       1.84059      -6.93159
                        -----------------------------------------
Total Dipole Moment    :      0.13439      -1.09021      -2.15098
                        -----------------------------------------
Magnitude (a.u.)       :      2.41523
Magnitude (Debye)      :      6.13902



--------------------
Rotational spectrum 
--------------------
 
Rotational constants in cm-1:     0.099502     0.050973     0.033706 
Rotational constants in MHz :  2983.006530  1528.141387  1010.487341 

 Dipole components along the rotational axes: 
x,y,z [a.u.] :     0.946111    -2.222204     0.000636 
x,y,z [Debye]:     2.404822    -5.648394     0.001616 

 

Timings for individual modules:

Sum of individual times         ...      400.626 sec (=   6.677 min)
GTO integral calculation        ...       10.421 sec (=   0.174 min)   2.6 %
SCF iterations                  ...      285.394 sec (=   4.757 min)  71.2 %
SCF Gradient evaluation         ...      103.862 sec (=   1.731 min)  25.9 %
Geometry relaxation             ...        0.948 sec (=   0.016 min)   0.2 %
                             ****ORCA TERMINATED NORMALLY****
TOTAL RUN TIME: 0 days 0 hours 6 minutes 44 seconds 991 msec
