4
 energy: -10.995563388383 gnorm: 0.065726192151 xtb: 6.7.1 (edcfbbe)
C           -3.16079519796804        2.35885132827168       -0.00001013903536
O           -3.33644156581216        3.60894918440611        0.00000210189188
O           -2.07246379360998        1.71978390347331       -0.00000582994533
H           -4.10294450513803        1.72861963039847       -0.00002713303231
4
 energy: -10.997590717888 gnorm: 0.028337032875 xtb: 6.7.1 (edcfbbe)
C           -3.15119248389121        2.36533646598075       -0.00000996426344
O           -3.33285297147415        3.59343743729894        0.00000196394395
O           -2.08534065123555        1.72899022262886       -0.00000586334624
H           -4.10325895592730        1.72843992064103       -0.00002713645540
4
 energy: -10.998136665310 gnorm: 0.010234854168 xtb: 6.7.1 (edcfbbe)
C           -3.14004773076634        2.37285745082774       -0.00000976209470
O           -3.33270877644914        3.58780592620566        0.00000189726180
O           -2.09047097331423        1.73124137938735       -0.00000589693770
H           -4.10941758199850        1.72429929012884       -0.00002723835052
4
 energy: -10.998270897060 gnorm: 0.004775441808 xtb: 6.7.1 (edcfbbe)
C           -3.13400382182443        2.37691896187433       -0.00000965288868
O           -3.33437184923973        3.58956393693182        0.00000189053483
O           -2.08951019517483        1.72902485989963       -0.00000592072764
H           -4.11475919628923        1.72069628784379       -0.00002731703963
4
 energy: -10.998302289822 gnorm: 0.000436955569 xtb: 6.7.1 (edcfbbe)
C           -3.13060607714457        2.37918744619408       -0.00000959176629
O           -3.33550928172323        3.59173680808476        0.00000188817920
O           -2.08795279328590        1.72714653712679       -0.00000594026299
H           -4.11857691037451        1.71813325514395       -0.00002735627104
4
 energy: -10.998302581603 gnorm: 0.000191101660 xtb: 6.7.1 (edcfbbe)
C           -3.13030437327869        2.37938075424256       -0.00000958649702
O           -3.33536785657071        3.59202064206533        0.00000187933072
O           -2.08763038016611        1.72717290024491       -0.00000595010527
H           -4.11934245251270        1.71762974999678       -0.00002734284956
