 Entering Gaussian System
 *********************************************
 Gaussian 98:
 frequency output generated by the xtb code
 *********************************************
                         Standard orientation:
 --------------------------------------------------------------------
  Center     Atomic     Atomic              Coordinates (Angstroms)
  Number     Number      Type              X           Y           Z
 --------------------------------------------------------------------
    1          6             0       -5.231694   -6.379311    2.973767
    2          6             0       -5.072870   -5.133663    3.562704
    3          1             0       -5.900429   -7.107629    3.412324
    4          6             0       -4.676064   -8.026053    1.154343
    5          6             0       -4.228565   -4.193798    3.022322
    6          1             0       -5.623500   -4.894708    4.466125
    7          6             0       -3.482587   -4.455428    1.840986
    8          1             0       -4.107956   -3.220200    3.486513
    9          6             0       -3.675275   -5.741019    1.270766
   10          8             0       -2.688529   -3.585107    1.321728
   11          6             0       -4.524018   -6.682949    1.815579
   12          1             0       -5.378493   -8.647545    1.704604
   13          1             0       -5.036861   -7.904890    0.133548
   14          1             0       -3.714032   -8.535435    1.110165
   15          1             0       -3.118288   -5.967388    0.366337
 --------------------------------------------------------------------
     1 basis functions        1 primitive gaussians
     1 alpha electrons        1 beta electrons
 
 Harmonic frequencies (cm**-1), IR intensities (km*mol⁻¹),
 Raman scattering activities (A**4/amu), Raman depolarization ratios,
 reduced masses (AMU), force constants (mDyne/A) and normal coordinates:
                      1                      2                      3
                        a                      a                      a 
 Frequencies --   -19.9534               193.0179               203.3738
 Red. masses --     1.3075                10.5753                10.2772
 Frc consts  --     0.0000                 0.0000                 0.0000
 IR Inten    --     0.7634                 1.7050                 5.6151
 Raman Activ --     0.0000                 0.0000                 0.0000
 Depolar     --     0.0000                 0.0000                 0.0000
 Atom AN      X      Y      Z        X      Y      Z        X      Y      Z
   1   6    -0.03   0.01  -0.02    -0.03   0.01  -0.02     0.39  -0.19   0.29
   2   6    -0.06   0.03  -0.05     0.01  -0.01   0.01    -0.01   0.01  -0.01
   3   1    -0.01   0.01  -0.01     0.05  -0.02   0.03     0.21  -0.10   0.16
   4   6    -0.02   0.01  -0.01     0.28  -0.13   0.21    -0.17   0.08  -0.13
   5   6    -0.04   0.02  -0.03     0.03  -0.01   0.02    -0.41   0.19  -0.30
   6   1    -0.03   0.01  -0.02     0.04  -0.02   0.03    -0.01   0.01  -0.01
   7   6     0.02  -0.01   0.01    -0.10   0.05  -0.07    -0.06   0.03  -0.04
   8   1    -0.02   0.01  -0.01     0.08  -0.04   0.06    -0.21   0.10  -0.16
   9   6     0.06  -0.03   0.04    -0.48   0.23  -0.35    -0.08   0.04  -0.06
  10   8     0.05  -0.02   0.04     0.32  -0.15   0.23     0.28  -0.13   0.20
  11   6     0.04  -0.02   0.03    -0.19   0.09  -0.14     0.10  -0.05   0.07
  12   1     0.40  -0.19   0.30     0.16  -0.08   0.12    -0.10   0.05  -0.07
  13   1    -0.55  -0.00   0.19     0.06  -0.18   0.05    -0.04   0.11  -0.03
  14   1     0.09   0.23  -0.53     0.14   0.08   0.10    -0.09  -0.05  -0.06
  15   1     0.03  -0.02   0.03    -0.18   0.08  -0.13    -0.05   0.02  -0.04
                      4                      5                      6
                        a                      a                      a 
 Frequencies --   297.7980               404.8434               455.8650
 Red. masses --    10.1544                 9.1761                11.4535
 Frc consts  --     0.0000                 0.0000                 0.0000
 IR Inten    --     5.7688                 0.0441                 9.2465
 Raman Activ --     0.0000                 0.0000                 0.0000
 Depolar     --     0.0000                 0.0000                 0.0000
 Atom AN      X      Y      Z        X      Y      Z        X      Y      Z
   1   6    -0.14   0.02   0.20     0.18  -0.08   0.13    -0.17  -0.02   0.22
   2   6    -0.03   0.08   0.09    -0.39   0.19  -0.29     0.00   0.05   0.03
   3   1    -0.05   0.02   0.08     0.03  -0.01   0.02    -0.05   0.00   0.07
   4   6     0.36   0.22  -0.35    -0.03   0.01  -0.02     0.09   0.17  -0.01
   5   6    -0.00   0.07   0.05     0.29  -0.14   0.21     0.10  -0.30  -0.32
   6   1     0.00   0.05   0.03    -0.29   0.14  -0.21     0.05   0.11   0.01
   7   6    -0.05  -0.03   0.04     0.15  -0.07   0.11     0.13  -0.19  -0.30
   8   1     0.00   0.02   0.01     0.05  -0.03   0.04     0.08  -0.06  -0.15
   9   6    -0.17  -0.03   0.20    -0.21   0.10  -0.16     0.01  -0.22  -0.15
  10   8     0.05  -0.36  -0.30    -0.08   0.04  -0.06    -0.06   0.38   0.33
  11   6    -0.15  -0.01   0.20     0.27  -0.13   0.20    -0.14   0.05   0.22
  12   1     0.13  -0.09  -0.24    -0.05   0.02  -0.04     0.04  -0.04  -0.08
  13   1     0.17   0.18  -0.11    -0.02   0.11   0.01     0.06   0.11  -0.01
  14   1     0.17   0.18  -0.11    -0.05  -0.07  -0.06     0.06   0.11  -0.01
  15   1    -0.06  -0.03   0.06    -0.21   0.10  -0.16    -0.06  -0.20  -0.05
                      7                      8                      9
                        a                      a                      a 
 Frequencies --   498.7033               523.4163               545.5115
 Red. masses --    11.6908                11.9179                10.1344
 Frc consts  --     0.0000                 0.0000                 0.0000
 IR Inten    --     8.4287                 7.6253                 1.7254
 Raman Activ --     0.0000                 0.0000                 0.0000
 Depolar     --     0.0000                 0.0000                 0.0000
 Atom AN      X      Y      Z        X      Y      Z        X      Y      Z
   1   6     0.19   0.31  -0.05     0.15   0.19  -0.08    -0.25   0.12  -0.18
   2   6     0.15   0.35   0.02    -0.16   0.05   0.25     0.10  -0.05   0.07
   3   1     0.03   0.14   0.05     0.07  -0.02  -0.10    -0.10   0.05  -0.08
   4   6     0.04  -0.29  -0.24     0.06   0.34   0.14     0.00  -0.00   0.00
   5   6     0.10   0.29   0.05    -0.11  -0.15   0.05    -0.02   0.01  -0.01
   6   1     0.02   0.06   0.01    -0.06  -0.01   0.07     0.10  -0.05   0.08
   7   6    -0.15  -0.21   0.07    -0.15  -0.29   0.01    -0.35   0.16  -0.26
   8   1     0.11   0.11  -0.08     0.03  -0.02  -0.06     0.15  -0.07   0.11
   9   6    -0.04  -0.20  -0.07     0.22  -0.06  -0.34    -0.13   0.06  -0.10
  10   8    -0.28  -0.04   0.35    -0.21  -0.38   0.03     0.13  -0.06   0.10
  11   6    -0.04  -0.23  -0.10     0.19   0.28  -0.07     0.49  -0.23   0.36
  12   1     0.02  -0.13  -0.10     0.01   0.13   0.07    -0.08   0.04  -0.06
  13   1     0.03  -0.05  -0.07     0.01   0.08   0.04    -0.03   0.20   0.03
  14   1     0.03  -0.05  -0.07     0.01   0.08   0.04    -0.08  -0.15  -0.12
  15   1     0.01  -0.01  -0.02     0.07   0.02  -0.09     0.05  -0.02   0.04
                     10                     11                     12
                        a                      a                      a 
 Frequencies --   655.5762               746.3347               760.2300
 Red. masses --     9.9042                11.6995                 3.8191
 Frc consts  --     0.0000                 0.0000                 0.0000
 IR Inten    --     8.3694                 8.6672                33.0140
 Raman Activ --     0.0000                 0.0000                 0.0000
 Depolar     --     0.0000                 0.0000                 0.0000
 Atom AN      X      Y      Z        X      Y      Z        X      Y      Z
   1   6     0.24  -0.11   0.17     0.02   0.20   0.10    -0.17   0.08  -0.12
   2   6    -0.27   0.13  -0.20    -0.35   0.12   0.55    -0.15   0.07  -0.11
   3   1     0.12  -0.06   0.09     0.02  -0.00  -0.03     0.50  -0.24   0.37
   4   6    -0.03   0.01  -0.02    -0.03  -0.35  -0.19     0.01  -0.01   0.01
   5   6     0.21  -0.10   0.15    -0.15  -0.19   0.08    -0.12   0.06  -0.09
   6   1     0.04  -0.02   0.03    -0.09   0.04   0.15     0.25  -0.12   0.18
   7   6    -0.45   0.21  -0.33     0.12   0.11  -0.09     0.25  -0.12   0.18
   8   1     0.23  -0.11   0.17    -0.02  -0.03  -0.00     0.27  -0.13   0.20
   9   6     0.19  -0.09   0.14     0.11   0.01  -0.14    -0.09   0.05  -0.07
  10   8     0.10  -0.05   0.07     0.25   0.20  -0.21    -0.08   0.04  -0.06
  11   6    -0.18   0.08  -0.13     0.02  -0.04  -0.05     0.04  -0.02   0.03
  12   1     0.00  -0.00   0.00    -0.00  -0.11  -0.07    -0.03   0.01  -0.02
  13   1     0.00  -0.04  -0.01    -0.00  -0.10  -0.05    -0.01   0.06   0.01
  14   1     0.01   0.03   0.02    -0.01  -0.10  -0.06    -0.02  -0.04  -0.03
  15   1     0.21  -0.10   0.15     0.03  -0.01  -0.04     0.17  -0.08   0.13
                     13                     14                     15
                        a                      a                      a 
 Frequencies --   815.5479               855.2442               903.0952
 Red. masses --     4.5980                 3.1566                 2.9677
 Frc consts  --     0.0000                 0.0000                 0.0000
 IR Inten    --     4.7717                 0.2985                 0.0064
 Raman Activ --     0.0000                 0.0000                 0.0000
 Depolar     --     0.0000                 0.0000                 0.0000
 Atom AN      X      Y      Z        X      Y      Z        X      Y      Z
   1   6    -0.26   0.12  -0.19    -0.02   0.01  -0.02    -0.06   0.03  -0.04
   2   6     0.04  -0.02   0.03     0.09  -0.04   0.07     0.26  -0.12   0.19
   3   1     0.42  -0.20   0.31     0.09  -0.04   0.07     0.18  -0.09   0.13
   4   6     0.00  -0.00   0.00     0.01  -0.00   0.00    -0.02   0.01  -0.02
   5   6     0.22  -0.10   0.16     0.18  -0.09   0.13    -0.14   0.07  -0.10
   6   1    -0.04   0.02  -0.03    -0.21   0.10  -0.16    -0.56   0.27  -0.42
   7   6    -0.18   0.08  -0.13    -0.00   0.00  -0.00    -0.06   0.03  -0.04
   8   1    -0.35   0.17  -0.26    -0.31   0.15  -0.23     0.33  -0.16   0.25
   9   6     0.18  -0.09   0.13    -0.26   0.13  -0.19     0.06  -0.03   0.05
  10   8     0.05  -0.03   0.04    -0.01   0.00  -0.01     0.00  -0.00   0.00
  11   6     0.01  -0.01   0.01    -0.01   0.00  -0.00    -0.04   0.02  -0.03
  12   1    -0.00   0.00  -0.00    -0.01   0.01  -0.01     0.01  -0.00   0.01
  13   1    -0.00  -0.00  -0.00    -0.00   0.03   0.01     0.00  -0.04  -0.01
  14   1     0.00   0.00   0.00    -0.01  -0.02  -0.02     0.01   0.03   0.02
  15   1    -0.29   0.14  -0.21     0.55  -0.26   0.40    -0.02   0.01  -0.02
                     16                     17                     18
                        a                      a                      a 
 Frequencies --   956.8422               979.1158              1025.0106
 Red. masses --     8.7887                 9.9050                 5.1607
 Frc consts  --     0.0000                 0.0000                 0.0000
 IR Inten    --     0.7489                25.8722                 1.1281
 Raman Activ --     0.0000                 0.0000                 0.0000
 Depolar     --     0.0000                 0.0000                 0.0000
 Atom AN      X      Y      Z        X      Y      Z        X      Y      Z
   1   6     0.01   0.11   0.05    -0.41  -0.29   0.37     0.03  -0.01  -0.04
   2   6     0.01   0.08   0.04     0.06   0.03  -0.06    -0.07   0.01   0.09
   3   1    -0.00   0.04   0.02    -0.12  -0.05   0.13    -0.01   0.03   0.03
   4   6     0.10  -0.08  -0.19     0.07  -0.15  -0.19     0.25   0.25  -0.19
   5   6     0.09  -0.39  -0.37     0.05   0.24   0.08    -0.03   0.15   0.13
   6   1     0.10   0.22   0.01     0.09   0.17  -0.01    -0.08  -0.14   0.03
   7   6    -0.04   0.01   0.06    -0.03   0.03   0.06     0.04  -0.07  -0.09
   8   1     0.09  -0.08  -0.17     0.01   0.06   0.03     0.02   0.05   0.01
   9   6    -0.10   0.32   0.35     0.28   0.05  -0.35    -0.17  -0.24   0.07
  10   8    -0.14  -0.17   0.09    -0.07  -0.10   0.03     0.08   0.12  -0.03
  11   6     0.09   0.08  -0.06     0.08   0.21   0.03    -0.02  -0.13  -0.05
  12   1    -0.02   0.20   0.15    -0.01   0.10   0.08    -0.01   0.48   0.33
  13   1    -0.09  -0.19  -0.03    -0.07  -0.18  -0.04    -0.14  -0.24  -0.01
  14   1    -0.07  -0.20  -0.01    -0.06  -0.18  -0.03    -0.10  -0.25   0.03
  15   1     0.03   0.22   0.10     0.11   0.08  -0.09    -0.15  -0.29   0.01
                     19                     20                     21
                        a                      a                      a 
 Frequencies --  1029.9962              1122.0836              1183.6079
 Red. masses --     4.4923                 4.5006                 2.1652
 Frc consts  --     0.0000                 0.0000                 0.0000
 IR Inten    --     6.0175                 9.9412                58.4975
 Raman Activ --     0.0000                 0.0000                 0.0000
 Depolar     --     0.0000                 0.0000                 0.0000
 Atom AN      X      Y      Z        X      Y      Z        X      Y      Z
   1   6     0.03  -0.01   0.02    -0.09  -0.33  -0.09    -0.05  -0.00   0.06
   2   6     0.02  -0.01   0.02    -0.12   0.07   0.21    -0.03  -0.08  -0.01
   3   1    -0.02   0.01  -0.01     0.06  -0.35  -0.31    -0.15   0.38   0.45
   4   6     0.33  -0.15   0.24    -0.04   0.02   0.06     0.01   0.09   0.04
   5   6    -0.01   0.00  -0.00     0.13   0.25  -0.01    -0.03  -0.04   0.01
   6   1    -0.04   0.01  -0.03    -0.06  -0.04   0.06    -0.19  -0.41  -0.01
   7   6     0.01  -0.01   0.01     0.01  -0.10  -0.07    -0.04  -0.09  -0.01
   8   1    -0.00   0.00  -0.00     0.43   0.23  -0.44     0.22   0.08  -0.25
   9   6     0.03  -0.02   0.03    -0.05   0.10   0.13     0.07   0.05  -0.06
  10   8    -0.00   0.00  -0.00     0.01   0.03   0.00     0.08   0.08  -0.05
  11   6    -0.27   0.13  -0.20     0.02  -0.03  -0.04    -0.06  -0.18  -0.04
  12   1    -0.17   0.09  -0.12    -0.00  -0.04  -0.03    -0.00   0.05   0.03
  13   1    -0.09   0.52   0.18     0.01   0.03   0.01     0.01   0.04   0.01
  14   1    -0.15  -0.42  -0.35     0.01   0.04   0.01     0.01   0.04   0.01
  15   1    -0.04   0.02  -0.03     0.01   0.09   0.04     0.20   0.40  -0.01
                     22                     23                     24
                        a                      a                      a 
 Frequencies --  1194.0288              1262.7504              1297.5633
 Red. masses --     5.8578                 6.0765                 8.6665
 Frc consts  --     0.0000                 0.0000                 0.0000
 IR Inten    --    66.3061                 4.2437                24.9885
 Raman Activ --     0.0000                 0.0000                 0.0000
 Depolar     --     0.0000                 0.0000                 0.0000
 Atom AN      X      Y      Z        X      Y      Z        X      Y      Z
   1   6     0.04   0.10   0.01    -0.00  -0.01  -0.01     0.04  -0.32  -0.27
   2   6     0.03  -0.09  -0.11    -0.08  -0.16   0.00     0.01   0.18   0.10
   3   1     0.00   0.07   0.05    -0.07   0.18   0.20    -0.10   0.23   0.29
   4   6    -0.04  -0.24  -0.10    -0.03   0.05   0.07    -0.04  -0.01   0.05
   5   6    -0.00  -0.00   0.00    -0.01  -0.08  -0.04    -0.18   0.00   0.25
   6   1    -0.20  -0.47  -0.04     0.13   0.27   0.00     0.11   0.29   0.04
   7   6     0.07   0.03  -0.07    -0.15   0.33   0.41     0.15  -0.21  -0.34
   8   1     0.13   0.05  -0.14     0.26   0.08  -0.30    -0.02   0.01   0.04
   9   6     0.06   0.23   0.07     0.01  -0.12  -0.09     0.11   0.39   0.10
  10   8    -0.10  -0.13   0.05     0.04  -0.00  -0.06    -0.06  -0.07   0.04
  11   6     0.05   0.43   0.21     0.14  -0.07  -0.23     0.00  -0.09  -0.06
  12   1    -0.00  -0.11  -0.07     0.00  -0.03  -0.02    -0.01  -0.00   0.01
  13   1    -0.01  -0.08  -0.03     0.04   0.07   0.01     0.03   0.06   0.01
  14   1    -0.02  -0.08  -0.03     0.03   0.08  -0.00     0.02   0.06   0.00
  15   1    -0.21  -0.43   0.01    -0.17  -0.41  -0.04    -0.11  -0.20   0.02
                     25                     26                     27
                        a                      a                      a 
 Frequencies --  1362.2645              1392.3631              1452.1237
 Red. masses --    10.3805                 3.3009                10.6480
 Frc consts  --     0.0000                 0.0000                 0.0000
 IR Inten    --   367.3054                 2.6696               153.2297
 Raman Activ --     0.0000                 0.0000                 0.0000
 Depolar     --     0.0000                 0.0000                 0.0000
 Atom AN      X      Y      Z        X      Y      Z        X      Y      Z
   1   6    -0.12  -0.09   0.11     0.00  -0.02  -0.02     0.04  -0.04  -0.07
   2   6    -0.13   0.09   0.24    -0.01   0.01   0.03     0.18   0.30  -0.05
   3   1    -0.05   0.00   0.07    -0.01   0.04   0.04     0.05  -0.13  -0.14
   4   6    -0.04   0.05   0.09     0.02   0.39   0.22     0.09   0.12  -0.04
   5   6     0.29   0.14  -0.30     0.01   0.01  -0.01    -0.14  -0.23   0.04
   6   1    -0.16  -0.23   0.07    -0.00   0.01   0.01    -0.04  -0.12  -0.02
   7   6     0.24   0.32  -0.12     0.02   0.01  -0.02     0.08   0.35   0.11
   8   1    -0.17  -0.05   0.20    -0.01  -0.00   0.01     0.07  -0.02  -0.10
   9   6    -0.00   0.02   0.02    -0.01   0.01   0.02     0.24   0.17  -0.22
  10   8    -0.24  -0.24   0.16    -0.01  -0.01   0.01    -0.09  -0.14   0.03
  11   6     0.13  -0.21  -0.31     0.01  -0.04  -0.04    -0.36  -0.38   0.24
  12   1    -0.01   0.02   0.02     0.07  -0.36  -0.34     0.01   0.02  -0.00
  13   1     0.05   0.10   0.01     0.08  -0.51  -0.07    -0.16  -0.01   0.05
  14   1     0.04   0.10  -0.00    -0.22  -0.37  -0.29    -0.03  -0.07   0.15
  15   1    -0.04  -0.09  -0.01    -0.00   0.00   0.00     0.02  -0.07  -0.07
                     28                     29                     30
                        a                      a                      a 
 Frequencies --  1482.5267              1489.9547              1501.3445
 Red. masses --     1.5718                 4.4321                 8.3151
 Frc consts  --     0.0000                 0.0000                 0.0000
 IR Inten    --     1.4997                81.4837               336.7469
 Raman Activ --     0.0000                 0.0000                 0.0000
 Depolar     --     0.0000                 0.0000                 0.0000
 Atom AN      X      Y      Z        X      Y      Z        X      Y      Z
   1   6     0.00   0.00   0.00    -0.08  -0.04   0.09    -0.10  -0.16   0.04
   2   6    -0.00  -0.00  -0.00     0.15   0.27  -0.03     0.10   0.32   0.06
   3   1    -0.00   0.00  -0.00     0.01  -0.10  -0.08    -0.04  -0.03   0.03
   4   6     0.17  -0.08   0.12    -0.12  -0.06   0.13     0.05   0.06  -0.03
   5   6    -0.00   0.00   0.00    -0.04  -0.13  -0.03     0.10  -0.06  -0.17
   6   1     0.00   0.00   0.00    -0.06  -0.15  -0.01    -0.09  -0.17   0.01
   7   6     0.00   0.00  -0.00    -0.18  -0.13   0.16    -0.34  -0.32   0.26
   8   1     0.00   0.00  -0.00    -0.04  -0.06   0.02    -0.13  -0.09   0.12
   9   6    -0.00  -0.00  -0.00     0.08   0.13  -0.02     0.03   0.13   0.04
  10   8    -0.00  -0.00   0.00     0.09   0.09  -0.07     0.17   0.18  -0.12
  11   6     0.03  -0.01   0.02    -0.00  -0.10  -0.06     0.14  -0.01  -0.19
  12   1    -0.54   0.26  -0.40    -0.05   0.22   0.21     0.03  -0.16  -0.15
  13   1    -0.32  -0.32   0.09     0.48  -0.07  -0.17    -0.29   0.07   0.11
  14   1     0.20   0.38  -0.18     0.05   0.14  -0.50    -0.02  -0.06   0.31
  15   1     0.00   0.00   0.00    -0.05  -0.12  -0.01    -0.08  -0.15   0.01
                     31                     32                     33
                        a                      a                      a 
 Frequencies --  1555.1117              1606.3620              2986.8464
 Red. masses --    10.9875                11.5044                 1.7538
 Frc consts  --     0.0000                 0.0000                 0.0000
 IR Inten    --    32.7261               421.8675               157.3675
 Raman Activ --     0.0000                 0.0000                 0.0000
 Depolar     --     0.0000                 0.0000                 0.0000
 Atom AN      X      Y      Z        X      Y      Z        X      Y      Z
   1   6    -0.17   0.37   0.47    -0.10  -0.16   0.03     0.00   0.01   0.00
   2   6     0.07  -0.17  -0.21     0.25   0.41  -0.07    -0.07   0.03   0.11
   3   1     0.04  -0.14  -0.15    -0.03  -0.02   0.02    -0.03  -0.04   0.02
   4   6     0.01   0.07   0.04    -0.02  -0.03   0.01    -0.01  -0.00   0.01
   5   6    -0.19  -0.03   0.23    -0.29  -0.26   0.23    -0.03  -0.18  -0.08
   6   1     0.04  -0.01  -0.05    -0.03  -0.10  -0.02     0.26  -0.11  -0.43
   7   6     0.09  -0.13  -0.21     0.17   0.22  -0.09    -0.00  -0.01  -0.00
   8   1     0.07   0.03  -0.08     0.06  -0.01  -0.09     0.08   0.66   0.31
   9   6     0.05   0.23   0.08    -0.25  -0.38   0.09     0.05  -0.02  -0.08
  10   8    -0.01  -0.01   0.01    -0.03  -0.04   0.02    -0.00   0.00   0.00
  11   6     0.13  -0.28  -0.36     0.27   0.26  -0.20     0.00  -0.00  -0.00
  12   1     0.01  -0.05  -0.04     0.01  -0.05  -0.04     0.01   0.01  -0.01
  13   1    -0.07   0.05   0.04    -0.02   0.02   0.01    -0.01   0.00  -0.02
  14   1     0.01   0.02   0.09     0.01   0.01   0.03     0.01  -0.01   0.00
  15   1    -0.05  -0.10   0.00     0.04   0.12   0.03    -0.19   0.07   0.30
                     34                     35                     36
                        a                      a                      a 
 Frequencies --  2991.7205              2993.3284              3005.5029
 Red. masses --     1.9337                 1.7900                 1.6893
 Frc consts  --     0.0000                 0.0000                 0.0000
 IR Inten    --    64.1302               469.5462               358.3887
 Raman Activ --     0.0000                 0.0000                 0.0000
 Depolar     --     0.0000                 0.0000                 0.0000
 Atom AN      X      Y      Z        X      Y      Z        X      Y      Z
   1   6    -0.00   0.00  -0.00    -0.01  -0.01   0.00    -0.03  -0.03   0.02
   2   6     0.00  -0.00  -0.00    -0.06   0.03   0.11     0.06  -0.03  -0.10
   3   1    -0.00  -0.00  -0.00     0.01   0.01  -0.00     0.11   0.12  -0.07
   4   6    -0.22   0.10  -0.16     0.01  -0.00  -0.03     0.09  -0.02  -0.15
   5   6     0.00  -0.00  -0.00    -0.00  -0.02  -0.01    -0.01  -0.10  -0.05
   6   1    -0.00   0.00   0.00     0.23  -0.10  -0.38    -0.22   0.10   0.36
   7   6     0.00   0.00  -0.00    -0.01  -0.01   0.01    -0.01  -0.01   0.00
   8   1    -0.00   0.00   0.00     0.01   0.09   0.04     0.04   0.34   0.16
   9   6     0.00  -0.00  -0.00    -0.12   0.04   0.19    -0.01   0.01   0.02
  10   8     0.00  -0.00   0.00     0.00   0.00  -0.00     0.00   0.00  -0.00
  11   6    -0.00   0.00  -0.00     0.00   0.01   0.00     0.00  -0.01  -0.00
  12   1    -0.04   0.02  -0.03    -0.01  -0.01   0.01    -0.06  -0.07   0.04
  13   1     0.20  -0.08   0.63     0.03  -0.01   0.09     0.20  -0.08   0.49
  14   1     0.61  -0.31  -0.05    -0.07   0.04  -0.00    -0.46   0.24  -0.01
  15   1    -0.01   0.00   0.01     0.43  -0.17  -0.69     0.04  -0.02  -0.07
                     37                     38                     39
                        a                      a                      a 
 Frequencies --  3009.5462              3027.9699              3042.8905
 Red. masses --     1.7465                 1.5906                 1.8384
 Frc consts  --     0.0000                 0.0000                 0.0000
 IR Inten    --   117.5166                37.3113               191.5368
 Raman Activ --     0.0000                 0.0000                 0.0000
 Depolar     --     0.0000                 0.0000                 0.0000
 Atom AN      X      Y      Z        X      Y      Z        X      Y      Z
   1   6     0.05   0.05  -0.03    -0.03  -0.03   0.02    -0.16  -0.17   0.10
   2   6    -0.06   0.03   0.11    -0.00   0.00   0.01    -0.04   0.02   0.07
   3   1    -0.18  -0.20   0.12     0.09   0.10  -0.06     0.55   0.60  -0.36
   4   6     0.08  -0.01  -0.12     0.14   0.15  -0.10    -0.02  -0.02   0.01
   5   6     0.01   0.12   0.06     0.00  -0.00  -0.00     0.01   0.05   0.02
   6   1     0.23  -0.10  -0.38     0.01  -0.00  -0.02     0.13  -0.06  -0.21
   7   6     0.01   0.01  -0.01    -0.00  -0.00  -0.00     0.01   0.01  -0.00
   8   1    -0.05  -0.40  -0.19     0.00   0.00   0.00    -0.02  -0.16  -0.08
   9   6     0.04  -0.02  -0.06     0.00  -0.00  -0.00     0.02  -0.01  -0.03
  10   8    -0.00  -0.00   0.00     0.00   0.00  -0.00    -0.00  -0.00   0.00
  11   6     0.00  -0.00  -0.01     0.01   0.00  -0.00    -0.00  -0.01  -0.01
  12   1    -0.08  -0.08   0.06    -0.61  -0.52   0.49     0.09   0.08  -0.07
  13   1     0.16  -0.06   0.39    -0.02   0.04  -0.13     0.01  -0.01   0.04
  14   1    -0.37   0.19  -0.01     0.13  -0.03  -0.02    -0.04   0.02   0.00
  15   1    -0.14   0.06   0.24    -0.01   0.00   0.01    -0.07   0.03   0.12
