15
 energy: -22.879938628903 gnorm: 0.163973998530 xtb: 6.7.1 (edcfbbe)
C           -5.26693600000000       -6.40375400000000        3.00469900000000
C           -5.10631100000000       -5.09693100000000        3.63195700000000
H           -5.93815700000000       -7.12476300000000        3.44856800000000
C           -4.67231700000000       -8.05716300000000        1.13165400000000
C           -4.20494500000000       -4.11079200000000        3.04794500000000
H           -5.65247300000000       -4.84888900000000        4.52990200000000
C           -3.47754000000000       -4.44992100000000        1.84527800000000
H           -4.08324100000000       -3.13855100000000        3.50608800000000
C           -3.62221200000000       -5.73777000000000        1.20166500000000
O           -2.70985700000000       -3.60351100000000        1.34275900000000
C           -4.52499200000000       -6.73026300000000        1.78765000000000
H           -5.37543700000000       -8.70239100000000        1.66843300000000
H           -5.04297500000000       -7.94129300000000        0.10776300000000
H           -3.70878900000000       -8.57608000000000        1.09245300000000
H           -3.07261100000000       -5.95344400000000        0.29460600000000
15
 energy: -22.903889498140 gnorm: 0.047786647967 xtb: 6.7.1 (edcfbbe)
C           -5.23472738499331       -6.37488873650209        2.98098143270023
C           -5.08160052139110       -5.11702237091378        3.58519365173882
H           -5.90660071077170       -7.09800974166881        3.42422119339194
C           -4.67476783096823       -8.03821208557806        1.14654308376864
C           -4.22283477070254       -4.16645053407328        3.03602352457566
H           -5.63225167695458       -4.87387835269757        4.48651494400130
C           -3.48558170490102       -4.45399992929672        1.84579972562601
H           -4.10063877226447       -3.19312313698868        3.49677016589510
C           -3.66275282679023       -5.74223207016402        1.25170498568882
O           -2.69615792996984       -3.59103849376727        1.33352472091577
C           -4.52505274774984       -6.69841288925044        1.80751478166595
H           -5.37536038099982       -8.68105054211264        1.68179748602605
H           -5.03680290238245       -7.92840028402034        0.12137744000566
H           -3.71440039924552       -8.55728921202344        1.09749381316443
H           -3.10926243991536       -5.96150762094287        0.34595905083562
15
 energy: -22.906003885085 gnorm: 0.010605499125 xtb: 6.7.1 (edcfbbe)
C           -5.22837360895291       -6.37476275690844        2.97176901550693
C           -5.07127155530638       -5.13315374775559        3.55997315718899
H           -5.89837798536238       -7.10225632074442        3.41303135405089
C           -4.67568684384275       -8.02425030683830        1.15573206246685
C           -4.23009477186959       -4.19511750223284        3.02403124054042
H           -5.62243702654818       -4.89433220155732        4.46340175242183
C           -3.48424349976012       -4.45820490739656        1.84335076905160
H           -4.10725263114068       -3.22079202299742        3.48627658317722
C           -3.67874947750212       -5.74314911979088        1.27174376859728
O           -2.68951395687627       -3.58847082296510        1.32485730905589
C           -4.52485484084561       -6.68106426900725        1.81653930186013
H           -5.37714610152212       -8.65282156078417        1.70147033190060
H           -5.03588808985201       -7.90639832278091        0.13301390146102
H           -3.71312030659868       -8.53516578530176        1.10953493269906
H           -3.12178230402020       -5.96557635293902        0.36669452002130
15
 energy: -22.906092074727 gnorm: 0.002136992318 xtb: 6.7.1 (edcfbbe)
C           -5.23138350920492       -6.37912799440142        2.97373242597139
C           -5.07269784934904       -5.13380398689184        3.56263496017626
H           -5.90071703335521       -7.10714482752992        3.41307971511004
C           -4.67611257825916       -8.02569854591788        1.15479767734709
C           -4.22864110831058       -4.19340791344799        3.02267425598490
H           -5.62407978142544       -4.89486067559989        4.46568448469808
C           -3.48430559578691       -4.45486411525666        1.83999820497021
H           -4.10616761927486       -3.22001253885067        3.48648375297130
C           -3.67577489952726       -5.74125082283003        1.27027274536548
O           -2.68805896124515       -3.58582612662168        1.32257616014570
C           -4.52426725744721       -6.68306201526404        1.81575679153740
H           -5.37830082666204       -8.64949095014362        1.70380417293689
H           -5.03680622089205       -7.90534092430030        0.13336028001474
H           -3.71370014881112       -8.53533694147016        1.11013208248367
H           -3.11777961044904       -5.96628762147390        0.36643229028684
15
 energy: -22.906096373042 gnorm: 0.000787871998 xtb: 6.7.1 (edcfbbe)
C           -5.23167026136100       -6.37934249481241        2.97373782176228
C           -5.07285498483655       -5.13369488817840        3.56267707405976
H           -5.90040303294971       -7.10766508548483        3.41229036990005
C           -4.67602591312118       -8.02607858599117        1.15431283862991
C           -4.22855364454978       -4.19382524575483        3.02229974067837
H           -5.62348952419260       -4.89474457316013        4.46609666456498
C           -3.48257011422042       -4.45544916007128        1.84096596097240
H           -4.10795050223003       -3.22022681532001        3.48649261582289
C           -3.67524949423980       -5.74104026958600        1.27074317954195
O           -2.68851495114521       -3.58512270183810        1.32171189464633
C           -4.52398921271502       -6.68297542609171        1.81555103527079
H           -5.37845286662911       -8.64757505788851        1.70457036955094
H           -5.03681987648066       -7.90491573960531        0.13351678247573
H           -3.71399041553292       -8.53545512208622        1.11013753190272
H           -3.11825820579600       -5.96740483413110        0.36631612022090
