      -----------------------------------------------------------      
     |                   =====================                   |     
     |                           x T B                           |     
     |                   =====================                   |     
     |                         S. Grimme                         |     
     |          Mulliken Center for Theoretical Chemistry        |     
     |                    University of Bonn                     |     
      -----------------------------------------------------------      

   * xtb version 6.5.0 (97a52f5) compiled by 'conda@d2599ee0d4f4' on 2022-05-15

   xtb is free software: you can redistribute it and/or modify it under
   the terms of the GNU Lesser General Public License as published by
   the Free Software Foundation, either version 3 of the License, or
   (at your option) any later version.
   
   xtb is distributed in the hope that it will be useful,
   but WITHOUT ANY WARRANTY; without even the implied warranty of
   MERCHANTABILITY or FITNESS FOR A PARTICULAR PURPOSE.  See the
   GNU Lesser General Public License for more details.
   
   Cite this work as:
   * C. Bannwarth, E. Caldeweyher, S. Ehlert, A. Hansen, P. Pracht,
     J. Seibert, S. Spicher, S. Grimme, WIREs Comput. Mol. Sci., 2020, 11,
     e01493. DOI: 10.1002/wcms.1493
   
   for GFN2-xTB:
   * C. Bannwarth, S. Ehlert and S. Grimme., J. Chem. Theory Comput., 2019,
     15, 1652-1671. DOI: 10.1021/acs.jctc.8b01176
   for GFN1-xTB:
   * S. Grimme, C. Bannwarth, P. Shushkov, J. Chem. Theory Comput., 2017,
     13, 1989-2009. DOI: 10.1021/acs.jctc.7b00118
   for GFN0-xTB:
   * P. Pracht, E. Caldeweyher, S. Ehlert, S. Grimme, ChemRxiv, 2019, preprint.
     DOI: 10.26434/chemrxiv.8326202.v1
   for GFN-FF:
   * S. Spicher and S. Grimme, Angew. Chem. Int. Ed., 2020, 59, 15665-15673.
     DOI: 10.1002/anie.202004239
   
   for ALPB and GBSA implicit solvation:
   * S. Ehlert, M. Stahn, S. Spicher, S. Grimme, J. Chem. Theory Comput.,
     2021, 17, 4250-4261. DOI: 10.1021/acs.jctc.1c00471
   
   for DFT-D4:
   * E. Caldeweyher, C. Bannwarth and S. Grimme, J. Chem. Phys., 2017,
     147, 034112. DOI: 10.1063/1.4993215
   * E. Caldeweyher, S. Ehlert, A. Hansen, H. Neugebauer, S. Spicher,
     C. Bannwarth and S. Grimme, J. Chem. Phys., 2019, 150, 154122.
     DOI: 10.1063/1.5090222
   * E. Caldeweyher, J.-M. Mewes, S. Ehlert and S. Grimme, Phys. Chem. Chem. Phys.
     2020, 22, 8499-8512. DOI: 10.1039/D0CP00502A
   
   for sTDA-xTB:
   * S. Grimme and C. Bannwarth, J. Chem. Phys., 2016, 145, 054103.
     DOI: 10.1063/1.4959605
   
   in the mass-spec context:
   * V. Asgeirsson, C. Bauer and S. Grimme, Chem. Sci., 2017, 8, 4879.
     DOI: 10.1039/c7sc00601b
   * J. Koopman and S. Grimme, ACS Omega 2019, 4, 12, 15120-15133.
     DOI: 10.1021/acsomega.9b02011
   
   for metadynamics refer to:
   * S. Grimme, J. Chem. Theory Comput., 2019, 155, 2847-2862
     DOI: 10.1021/acs.jctc.9b00143
   
   for SPH calculations refer to:
   * S. Spicher and S. Grimme, J. Chem. Theory Comput., 2021, 17, 1701-1714
     DOI: 10.1021/acs.jctc.0c01306
   
   with help from (in alphabetical order)
   P. Atkinson, C. Bannwarth, F. Bohle, G. Brandenburg, E. Caldeweyher
   M. Checinski, S. Dohm, S. Ehlert, S. Ehrlich, I. Gerasimov, C. Hölzer
   A. Katbashev, J. Koopman, C. Lavigne, S. Lehtola, F. März, M. Müller,
   F. Musil, H. Neugebauer, J. Pisarek, C. Plett, P. Pracht, F. Pultar,
   J. Seibert, P. Shushkov, S. Spicher, M. Stahn, M. Steiner, T. Strunk,
   J. Stückrath, T. Rose, and J. Unsleber
   
 * started run on 2025/10/19 at 22:38:33.389     

           -------------------------------------------------
          |                Calculation Setup                |
           -------------------------------------------------

          program call               : xtb xyz.xyz --charge -1 --opt
          hostname                   : fs7
          coordinate file            : xyz.xyz
          omp threads                :                     2

   ID    Z sym.   atoms
    1    8 O      1
    2    1 H      2

molecular fragmentation (1/2 indicates fragments):
12
# atoms in fragment 1/2:     1     1
 fragment masses (1/2) :       16.00        1.01
CMA distance (Bohr)    :   3.779
constraining FC (au)   :  0.0500

           -------------------------------------------------
          |                 G F N 2 - x T B                 |
           -------------------------------------------------

        Reference                      10.1021/acs.jctc.8b01176
      * Hamiltonian:
        H0-scaling (s, p, d)           1.850000    2.230000    2.230000
        zeta-weighting                 0.500000
      * Dispersion:
        s8                             2.700000
        a1                             0.520000
        a2                             5.000000
        s9                             5.000000
      * Repulsion:
        kExp                           1.500000    1.000000
        rExp                           1.000000
      * Coulomb:
        alpha                          2.000000
        third order                    shell-resolved
        anisotropic                    true
        a3                             3.000000
        a5                             4.000000
        cn-shift                       1.200000
        cn-exp                         4.000000
        max-rad                        5.000000

q/qsh data taken from xtbrestart
CAMM data taken from xtbrestart

          ...................................................
          :                      SETUP                      :
          :.................................................:
          :  # basis functions                   5          :
          :  # atomic orbitals                   5          :
          :  # shells                            3          :
          :  # electrons                         8          :
          :  max. iterations                   250          :
          :  Hamiltonian                  GFN2-xTB          :
          :  restarted?                       true          :
          :  GBSA solvation                  false          :
          :  PC potential                    false          :
          :  electronic temp.          300.0000000     K    :
          :  accuracy                    1.0000000          :
          :  -> integral cutoff          0.2500000E+02      :
          :  -> integral neglect         0.1000000E-07      :
          :  -> SCF convergence          0.1000000E-05 Eh   :
          :  -> wf. convergence          0.1000000E-03 e    :
          :  Broyden damping             0.4000000          :
          ...................................................

 iter      E             dE          RMSdq      gap      omega  full diag
   1     -4.5493897 -0.454939E+01  0.188E-08    1.10       0.0  T
   2     -4.5493897  0.888178E-15  0.147E-08    1.10  100000.0  T
   3     -4.5493897 -0.177636E-14  0.138E-08    1.10  100000.0  T

   *** convergence criteria satisfied after 3 iterations ***

         #    Occupation            Energy/Eh            Energy/eV
      -------------------------------------------------------------
         1        2.0000           -0.3257458              -8.8640
         2        2.0000           -0.1510497              -4.1103
         3        2.0000           -0.1166403              -3.1739
         4        2.0000           -0.1166403              -3.1739 (HOMO)
         5                         -0.0762496              -2.0749 (LUMO)
      -------------------------------------------------------------
                  HL-Gap            0.0403907 Eh            1.0991 eV
             Fermi-level           -0.0961283 Eh           -2.6158 eV

 SCC (total)                   0 d,  0 h,  0 min,  0.001 sec
 SCC setup                      ...        0 min,  0.000 sec (  8.474%)
 Dispersion                     ...        0 min,  0.000 sec (  2.021%)
 classical contributions        ...        0 min,  0.000 sec (  3.755%)
 integral evaluation            ...        0 min,  0.000 sec (  8.353%)
 iterations                     ...        0 min,  0.001 sec ( 61.530%)
 molecular gradient             ...        0 min,  0.000 sec ( 10.041%)
 printout                       ...        0 min,  0.000 sec (  4.579%)

         :::::::::::::::::::::::::::::::::::::::::::::::::::::
         ::                     SUMMARY                     ::
         :::::::::::::::::::::::::::::::::::::::::::::::::::::
         :: total energy              -4.549389522632 Eh    ::
         :: gradient norm              0.066062624440 Eh/a0 ::
         :: HOMO-LUMO gap              1.099085554823 eV    ::
         ::.................................................::
         :: SCC energy                -4.549389696962 Eh    ::
         :: -> isotropic ES            0.196564828111 Eh    ::
         :: -> anisotropic ES          0.004682485498 Eh    ::
         :: -> anisotropic XC         -0.000416144883 Eh    ::
         :: -> dispersion             -0.000563225463 Eh    ::
         :: repulsion energy           0.000000174330 Eh    ::
         :: add. restraining           0.000000000000 Eh    ::
         :: total charge              -0.999999998828 e     ::
         :::::::::::::::::::::::::::::::::::::::::::::::::::::

      ----------------------------------------------------------- 
     |                   =====================                   |
     |                        A N C O P T                        |
     |                   =====================                   |
     |               Approximate Normal Coordinate               |
     |                Rational Function Optimizer                |
      ----------------------------------------------------------- 

          ...................................................
          :                      SETUP                      :
          :.................................................:
          :   optimization level            normal          :
          :   max. optcycles                   200          :
          :   ANC micro-cycles                  20          :
          :   degrees of freedom                 1          :
          :.................................................:
          :   RF solver                   davidson          :
          :   write xtbopt.log                true          :
          :   linear (good luck)              true          :
          :   energy convergence         0.5000000E-05 Eh   :
          :   grad. convergence          0.1000000E-02 Eh/α :
          :   maximium RF displ.         1.0000000          :
          :   Hlow (freq-cutoff)         0.1000000E-01      :
          :   Hmax (freq-cutoff)         5.0000000          :
          :   S6 in model hess.         20.0000000          :
          ...................................................

generating ANC from model Hessian ...
Using Lindh-Hessian (1995)
 Shifting diagonal of input Hessian by    0.0000000000000000     
 Lowest  eigenvalues of input Hessian
    0.000000    0.000000    0.000000    0.000000    0.000000    0.017316
 Highest eigenvalues
    0.000000    0.000000    0.000000    0.000000    0.000000    0.017316


........................................................................
.............................. CYCLE    1 ..............................
........................................................................
   1     -4.5493897 -0.454939E+01  0.287E-09    1.10       0.0  T
   2     -4.5493897  0.000000E+00  0.232E-09    1.10  100000.0  T
   3     -4.5493897 -0.888178E-15  0.152E-09    1.10  100000.0  T
     SCC iter.                  ...        0 min,  0.000 sec
     gradient                   ...        0 min,  0.000 sec
 * total energy  :    -4.5493895 Eh     change        0.0000000E+00 Eh
   gradient norm :     0.0660626 Eh/α   predicted     0.0000000E+00 (    NaN%)
   displ. norm   :     0.8774935 α      lambda       -0.5796952E-01
   maximum displ.:     0.8774935 α      in ANC's #1, #1, #1, ...

........................................................................
.............................. CYCLE    2 ..............................
........................................................................
   1     -4.6313750 -0.463137E+01  0.505E+00    5.12       0.0  T
   2     -4.6373089 -0.593390E-02  0.206E+00    4.61       1.0  T
   3     -4.6374303 -0.121404E-03  0.780E-01    4.49       1.0  T
   4     -4.6374402 -0.988499E-05  0.265E-02    4.51       2.7  T
   5     -4.6374405 -0.353475E-06  0.396E-03    4.51      17.9  T
   6     -4.6374405 -0.655449E-08  0.125E-03    4.51      56.4  T
   7     -4.6374405 -0.879022E-09  0.156E-04    4.51     454.4  T
   8     -4.6374405 -0.660982E-11  0.247E-07    4.51  100000.0  T
     SCC iter.                  ...        0 min,  0.000 sec
     gradient                   ...        0 min,  0.000 sec
 * total energy  :    -4.6370815 Eh     change       -0.8769194E-01 Eh
   gradient norm :     0.1241807 Eh/α   predicted    -0.5130288E-01 ( -41.50%)
   displ. norm   :     0.9327062 α      lambda       -0.1158241E+00
   maximum displ.:     0.9327062 α      in ANC's #1, #1, #1, ...

........................................................................
.............................. CYCLE    3 ..............................
........................................................................
   1     -4.7165032 -0.471650E+01  0.636E+00   46.29       0.0  T
   2     -4.7180872 -0.158399E-02  0.370E+00   45.96       1.0  T
   3     -4.7190985 -0.101131E-02  0.514E-01   45.40       1.0  T
   4     -4.7190993 -0.767482E-06  0.395E-01   45.62       1.0  T
   5     -4.7191154 -0.160733E-04  0.667E-02   45.49       1.1  T
   6     -4.7191156 -0.224079E-06  0.229E-03   45.50      30.8  T
   7     -4.7191156 -0.539898E-09  0.360E-05   45.50    1964.1  T
   8     -4.7191156 -0.879297E-13  0.889E-06   45.50    7955.4  T
     SCC iter.                  ...        0 min,  0.000 sec
     gradient                   ...        0 min,  0.000 sec
 * total energy  :    -4.4442708 Eh     change        0.1928107E+00 Eh
   gradient norm :     1.7316499 Eh/α   predicted    -0.1082921E+00 (-156.16%)
   displ. norm   :     0.5787693 α      lambda       -0.1002226E+01
   maximum displ.:     0.5787693 α      in ANC's #1, #1, #1, ...

........................................................................
.............................. CYCLE    4 ..............................
........................................................................
   1     -4.6719497 -0.467195E+01  0.547E+00    8.74       0.0  T
   2     -4.6802198 -0.827004E-02  0.227E+00    9.41       1.0  T
   3     -4.6812466 -0.102682E-02  0.782E-01    9.69       1.0  T
   4     -4.6813067 -0.601132E-04  0.155E-01    9.64       1.0  T
   5     -4.6813111 -0.441966E-05  0.863E-02    9.60       1.0  T
   6     -4.6813131 -0.192658E-05  0.177E-03    9.62      39.9  T
   7     -4.6813131 -0.824441E-09  0.566E-05    9.62    1248.7  T
   8     -4.6813131 -0.746070E-12  0.652E-06    9.62   10851.1  T
     SCC iter.                  ...        0 min,  0.000 sec
     gradient                   ...        0 min,  0.000 sec
 * total energy  :    -4.6759421 Eh     change       -0.2316713E+00 Eh
   gradient norm :     0.0759338 Eh/α   predicted    -0.6689725E+00 ( 188.76%)
   displ. norm   :     0.0242989 α      lambda       -0.1845108E-02
   maximum displ.:     0.0242989 α      in ANC's #1, #1, #1, ...

........................................................................
.............................. CYCLE    5 ..............................
........................................................................
   1     -4.6840746 -0.468407E+01  0.211E-01   10.21       0.0  T
   2     -4.6840846 -0.998208E-05  0.969E-02   10.19       1.0  T
   3     -4.6840862 -0.163050E-05  0.295E-02   10.18       2.4  T
   4     -4.6840863 -0.913602E-07  0.519E-03   10.18      13.6  T
   5     -4.6840863 -0.607742E-08  0.740E-04   10.18      95.5  T
   6     -4.6840863 -0.135934E-09  0.334E-07   10.18  100000.0  T
     SCC iter.                  ...        0 min,  0.000 sec
     gradient                   ...        0 min,  0.000 sec
 * total energy  :    -4.6776725 Eh     change       -0.1730443E-02 Eh
   gradient norm :     0.0662519 Eh/α   predicted    -0.9230977E-03 ( -46.66%)
   displ. norm   :     0.1619145 α      lambda       -0.1072715E-01
   maximum displ.:     0.1619145 α      in ANC's #1, #1, #1, ...

........................................................................
.............................. CYCLE    6 ..............................
........................................................................
   1     -4.7003787 -0.470038E+01  0.133E+00   15.29       0.0  T
   2     -4.7006526 -0.273873E-03  0.675E-01   15.16       1.0  T
   3     -4.7007242 -0.716712E-04  0.165E-01   15.05       1.0  T
   4     -4.7007273 -0.303449E-05  0.300E-02   15.08       2.4  T
   5     -4.7007274 -0.838171E-07  0.136E-02   15.07       5.2  T
   6     -4.7007274 -0.374140E-07  0.109E-04   15.08     646.7  T
   7     -4.7007274 -0.310063E-11  0.638E-06   15.08   11077.2  T
     SCC iter.                  ...        0 min,  0.000 sec
     gradient                   ...        0 min,  0.000 sec
 * total energy  :    -4.6803724 Eh     change       -0.2699897E-02 Eh
   gradient norm :     0.0515956 Eh/α   predicted    -0.5504189E-02 ( 103.87%)
   displ. norm   :     0.0705362 α      lambda       -0.3639359E-02
   maximum displ.:     0.0705362 α      in ANC's #1, #1, #1, ...

........................................................................
.............................. CYCLE    7 ..............................
........................................................................
   1     -4.6938385 -0.469384E+01  0.610E-01   12.56       0.0  T
   2     -4.6939125 -0.739730E-04  0.293E-01   12.63       1.0  T
   3     -4.6939275 -0.150611E-04  0.817E-02   12.67       1.0  T
   4     -4.6939283 -0.733378E-06  0.149E-02   12.66       4.7  T
   5     -4.6939283 -0.341916E-07  0.376E-03   12.66      18.8  T
   6     -4.6939283 -0.251438E-08  0.115E-05   12.66    6134.8  T
   7     -4.6939283 -0.319744E-13  0.110E-06   12.66   64350.4  T
     SCC iter.                  ...        0 min,  0.000 sec
     gradient                   ...        0 min,  0.000 sec
 * total energy  :    -4.6815479 Eh     change       -0.1175508E-02 Eh
   gradient norm :     0.0137545 Eh/α   predicted    -0.1828734E-02 (  55.57%)
   displ. norm   :     0.0148427 α      lambda       -0.2041561E-03
   maximum displ.:     0.0148427 α      in ANC's #1, #1, #1, ...

........................................................................
.............................. CYCLE    8 ..............................
........................................................................
   1     -4.6954200 -0.469542E+01  0.126E-01   13.15       0.0  T
   2     -4.6954230 -0.296974E-05  0.616E-02   13.14       1.1  T
   3     -4.6954236 -0.647613E-06  0.166E-02   13.13       4.3  T
   4     -4.6954236 -0.305916E-07  0.299E-03   13.13      23.6  T
   5     -4.6954236 -0.135068E-08  0.345E-04   13.13     204.8  T
   6     -4.6954236 -0.195142E-10  0.816E-08   13.13  100000.0  T
     SCC iter.                  ...        0 min,  0.000 sec
     gradient                   ...        0 min,  0.000 sec
 * total energy  :    -4.6816673 Eh     change       -0.1194168E-03 Eh
   gradient norm :     0.0021663 Eh/α   predicted    -0.1020996E-03 ( -14.50%)
   displ. norm   :     0.0027747 α      lambda       -0.6008697E-05
   maximum displ.:     0.0027747 α      in ANC's #1, #1, #1, ...

........................................................................
.............................. CYCLE    9 ..............................
........................................................................
   1     -4.6956994 -0.469570E+01  0.236E-02   13.22       0.0  T
   2     -4.6956995 -0.104074E-06  0.115E-02   13.22       6.1  T
   3     -4.6956996 -0.227428E-07  0.311E-03   13.22      22.8  T
   4     -4.6956996 -0.106968E-08  0.560E-04   13.22     126.3  T
   5     -4.6956996 -0.471339E-10  0.552E-06   13.22   12811.4  T
     SCC iter.                  ...        0 min,  0.000 sec
     gradient                   ...        0 min,  0.000 sec
 * total energy  :    -4.6816702 Eh     change       -0.2853957E-05 Eh
   gradient norm :     0.0001155 Eh/α   predicted    -0.3005460E-05 (   5.31%)
   displ. norm   :     0.0002107 α      lambda       -0.1510531E-07
   maximum displ.:     0.0002107 α      in ANC's #1, #1, #1, ...

   *** GEOMETRY OPTIMIZATION CONVERGED AFTER 9 ITERATIONS ***

------------------------------------------------------------------------
 total energy gain   :        -0.1322807 Eh      -83.0074 kcal/mol
 total RMSD          :         0.9650064 a0        0.5107 Å
 total power (kW/mol):       -38.5892039 (step)********** (real)
------------------------------------------------------------------------

 ANCopt (total)                0 d,  0 h,  0 min,  0.005 sec
 optimizer setup                ...        0 min,  0.000 sec (  1.144%)
 model hessian                  ...        0 min,  0.000 sec (  0.375%)
 ANC generation                 ...        0 min,  0.000 sec (  0.495%)
 coordinate transformation      ...        0 min,  0.000 sec (  0.485%)
 single point calculation       ...        0 min,  0.003 sec ( 70.375%)
 optimization log               ...        0 min,  0.001 sec ( 16.459%)
 hessian update                 ...        0 min,  0.000 sec (  0.628%)
 rational function              ...        0 min,  0.000 sec (  3.596%)

================
 final structure:
================
2
 xtb: 6.5.0 (97a52f5)
O            0.51065938266266        0.00000000000000        0.00000000000000
H            1.48934061733734        0.00000000000000        0.00000000000000

 Bond Distances (Angstroems)
 ---------------------------
O1-H2=0.9787         H2-O1=0.9787         
 O  H  Rav=0.9787 sigma=0.0000  Rmin=0.9787  Rmax=0.9787     1

 selected bond angles (degree)
 --------------------


 selected dihedral angles (degree)
 ---------------------------------


 CMA Distance (Angstroems)
 ---------------------------
R(CMA):  0.9787
           -------------------------------------------------
          |                Final Singlepoint                |
           -------------------------------------------------

          ...................................................
          :                      SETUP                      :
          :.................................................:
          :  # basis functions                   5          :
          :  # atomic orbitals                   5          :
          :  # shells                            3          :
          :  # electrons                         8          :
          :  max. iterations                   250          :
          :  Hamiltonian                  GFN2-xTB          :
          :  restarted?                      false          :
          :  GBSA solvation                  false          :
          :  PC potential                    false          :
          :  electronic temp.          300.0000000     K    :
          :  accuracy                    1.0000000          :
          :  -> integral cutoff          0.2500000E+02      :
          :  -> integral neglect         0.1000000E-07      :
          :  -> SCF convergence          0.1000000E-05 Eh   :
          :  -> wf. convergence          0.1000000E-03 e    :
          :  Broyden damping             0.4000000          :
          ...................................................

 iter      E             dE          RMSdq      gap      omega  full diag
   1     -4.6956996 -0.469570E+01  0.270E-09   13.22       0.0  T
   2     -4.6956996  0.888178E-15  0.164E-09   13.22  100000.0  T
   3     -4.6956996  0.000000E+00  0.178E-10   13.22  100000.0  T

   *** convergence criteria satisfied after 3 iterations ***

         #    Occupation            Energy/Eh            Energy/eV
      -------------------------------------------------------------
         1        2.0000           -0.2718043              -7.3962
         2        2.0000           -0.1365506              -3.7157
         3        2.0000           -0.0114774              -0.3123
         4        2.0000           -0.0114774              -0.3123 (HOMO)
         5                          0.4742883              12.9060 (LUMO)
      -------------------------------------------------------------
                  HL-Gap            0.4857657 Eh           13.2184 eV
             Fermi-level            0.2314055 Eh            6.2969 eV

 SCC (total)                   0 d,  0 h,  0 min,  0.000 sec
 SCC setup                      ...        0 min,  0.000 sec ( 13.162%)
 Dispersion                     ...        0 min,  0.000 sec (  2.563%)
 classical contributions        ...        0 min,  0.000 sec (  1.289%)
 integral evaluation            ...        0 min,  0.000 sec ( 15.568%)
 iterations                     ...        0 min,  0.000 sec ( 36.603%)
 molecular gradient             ...        0 min,  0.000 sec ( 17.972%)
 printout                       ...        0 min,  0.000 sec (  9.860%)

         :::::::::::::::::::::::::::::::::::::::::::::::::::::
         ::                     SUMMARY                     ::
         :::::::::::::::::::::::::::::::::::::::::::::::::::::
         :: total energy              -4.681670186300 Eh    ::
         :: gradient norm              0.000115432340 Eh/a0 ::
         :: HOMO-LUMO gap             13.218358249826 eV    ::
         ::.................................................::
         :: SCC energy                -4.695699565613 Eh    ::
         :: -> isotropic ES            0.282566821154 Eh    ::
         :: -> anisotropic ES         -0.005859158709 Eh    ::
         :: -> anisotropic XC         -0.001909826156 Eh    ::
         :: -> dispersion             -0.000151282806 Eh    ::
         :: repulsion energy           0.014029379313 Eh    ::
         :: add. restraining           0.000000000000 Eh    ::
         :: total charge              -1.000000000000 e     ::
         :::::::::::::::::::::::::::::::::::::::::::::::::::::

           -------------------------------------------------
          |                Property Printout                |
           -------------------------------------------------

    * Orbital Energies and Occupations

         #    Occupation            Energy/Eh            Energy/eV
      -------------------------------------------------------------
         1        2.0000           -0.2718043              -7.3962
         2        2.0000           -0.1365506              -3.7157
         3        2.0000           -0.0114774              -0.3123
         4        2.0000           -0.0114774              -0.3123 (HOMO)
         5                          0.4742883              12.9060 (LUMO)
      -------------------------------------------------------------
                  HL-Gap            0.4857657 Eh           13.2184 eV
             Fermi-level            0.2314055 Eh            6.2969 eV

     #   Z          covCN         q      C6AA      α(0)
     1   8 O        0.803    -1.026    39.392     8.413
     2   1 H        0.803     0.026     2.693     2.578

 Mol. C6AA /au·bohr⁶  :         62.286577
 Mol. C8AA /au·bohr⁸  :       1143.028598
 Mol. α(0) /au        :         10.991152


Wiberg/Mayer (AO) data.
largest (>0.10) Wiberg bond orders for each atom

 ---------------------------------------------------------------------------
     #   Z sym  total        # sym  WBO       # sym  WBO       # sym  WBO
 ---------------------------------------------------------------------------
     1   8 O    0.999 --     2 H    0.999
     2   1 H    0.999 --     1 O    0.999
 ---------------------------------------------------------------------------

Topologies differ in total number of bonds
Writing topology from bond orders to xtbtopo.mol

molecular dipole:
                 x           y           z       tot (Debye)
 q only:       -0.917       0.000       0.000
   full:       -0.674       0.000       0.000       1.713
molecular quadrupole (traceless):
                xx          xy          yy          xz          yz          zz
 q only:       -0.750       0.000       0.375       0.000       0.000       0.375
  q+dip:       -0.098       0.000       0.049       0.000       0.000       0.049
   full:        0.358       0.000      -0.179       0.000      -0.000      -0.179

           -------------------------------------------------
          |                Geometry Summary                 |
           -------------------------------------------------

      molecular mass/u    :       17.0073457
   center of mass at/Å    :        0.5686610       0.0000000       0.0000000
  moments of inertia/u·Å² :        0.0000000E+00   0.9082071E+00   0.9082071E+00
rotational constants/cm⁻¹ :             Infinity   0.1856144E+02   0.1856144E+02


optimized geometry written to: xtbopt.xyz


           -------------------------------------------------
          | TOTAL ENERGY               -4.681670186300 Eh   |
          | GRADIENT NORM               0.000115432340 Eh/α |
          | HOMO-LUMO GAP              13.218358249826 eV   |
           -------------------------------------------------
########################################################################
[WARNING] Runtime exception occurred
-1- restart_readRestart: Number of electron missmatch in restart file.
########################################################################

------------------------------------------------------------------------
 * finished run on 2025/10/19 at 22:38:33.498     
------------------------------------------------------------------------
 total:
 * wall-time:     0 d,  0 h,  0 min,  0.109 sec
 *  cpu-time:     0 d,  0 h,  0 min,  0.042 sec
 * ratio c/w:     0.384 speedup
 SCF:
 * wall-time:     0 d,  0 h,  0 min,  0.001 sec
 *  cpu-time:     0 d,  0 h,  0 min,  0.005 sec
 * ratio c/w:     4.732 speedup
 ANC optimizer:
 * wall-time:     0 d,  0 h,  0 min,  0.006 sec
 *  cpu-time:     0 d,  0 h,  0 min,  0.009 sec
 * ratio c/w:     1.616 speedup

