2
 energy: -4.549389522632 gnorm: 0.066062624393 xtb: 6.5.0 (97a52f5)
O            0.00000000000000        0.00000000000000        0.00000000000000
H            2.00000000000000        0.00000000000000        0.00000000000000
2
 energy: -4.637081458832 gnorm: 0.124180666798 xtb: 6.5.0 (97a52f5)
O            0.32834472504499        0.00000000000000        0.00000000000000
H            1.67165527495501        0.00000000000000        0.00000000000000
2
 energy: -4.444270800054 gnorm: 1.731649946778 xtb: 6.5.0 (97a52f5)
O            0.67734921640033        0.00000000000000        0.00000000000000
H            1.32265078359967        0.00000000000000        0.00000000000000
2
 energy: -4.675942067156 gnorm: 0.075933845592 xtb: 6.5.0 (97a52f5)
O            0.46078255744004        0.00000000000000        0.00000000000000
H            1.53921744255996        0.00000000000000        0.00000000000000
2
 energy: -4.677672510533 gnorm: 0.066251933275 xtb: 6.5.0 (97a52f5)
O            0.46987482197761        0.00000000000000        0.00000000000000
H            1.53012517802239        0.00000000000000        0.00000000000000
2
 energy: -4.680372407637 gnorm: 0.051595645907 xtb: 6.5.0 (97a52f5)
O            0.53046077610978        0.00000000000000        0.00000000000000
H            1.46953922389022        0.00000000000000        0.00000000000000
2
 energy: -4.681547915543 gnorm: 0.013754483454 xtb: 6.5.0 (97a52f5)
O            0.50406720124559        0.00000000000000        0.00000000000000
H            1.49593279875441        0.00000000000000        0.00000000000000
2
 energy: -4.681667332343 gnorm: 0.002166311214 xtb: 6.5.0 (97a52f5)
O            0.50962113035030        0.00000000000000        0.00000000000000
H            1.49037886964970        0.00000000000000        0.00000000000000
2
 energy: -4.681670186300 gnorm: 0.000115502087 xtb: 6.5.0 (97a52f5)
O            0.51065938266266        0.00000000000000        0.00000000000000
H            1.48934061733734        0.00000000000000        0.00000000000000
