2
 energy: -4.681670186300 gnorm: 0.000115432340 xtb: 6.5.0 (97a52f5)
O            0.51065938266266        0.00000000000000        0.00000000000000
H            1.48934061733734        0.00000000000000        0.00000000000000
