 Entering Gaussian System
 *********************************************
 Gaussian 98:
 frequency output generated by the xtb code
 *********************************************
                         Standard orientation:
 --------------------------------------------------------------------
  Center     Atomic     Atomic              Coordinates (Angstroms)
  Number     Number      Type              X           Y           Z
 --------------------------------------------------------------------
    1          8             0       -2.953859   -4.487690    2.788577
    2          8             0       -4.170088   -5.220914    2.546543
    3          1             0       -2.396054   -4.776365    2.050622
 --------------------------------------------------------------------
     1 basis functions        1 primitive gaussians
     1 alpha electrons        1 beta electrons
 
 Harmonic frequencies (cm**-1), IR intensities (km*mol⁻¹),
 Raman scattering activities (A**4/amu), Raman depolarization ratios,
 reduced masses (AMU), force constants (mDyne/A) and normal coordinates:
                      1                      2                      3
                        a                      a                      a 
 Frequencies --  1072.4278              1188.5768              3481.0400
 Red. masses --    15.9676                 2.4148                 1.9029
 Frc consts  --     0.0000                 0.0000                 0.0000
 IR Inten    --     6.5331               101.8459                32.9769
 Raman Activ --     0.0000                 0.0000                 0.0000
 Depolar     --     0.0000                 0.0000                 0.0000
 Atom AN      X      Y      Z        X      Y      Z        X      Y      Z
   1   8    -0.59  -0.37  -0.13     0.01  -0.12  -0.17     0.13  -0.08  -0.19
   2   8     0.59   0.36   0.12    -0.19  -0.01   0.11     0.01   0.01   0.00
   3   1     0.02   0.03   0.03     0.74   0.54   0.27    -0.55   0.30   0.74
