      -----------------------------------------------------------      
     |                   =====================                   |     
     |                           x T B                           |     
     |                   =====================                   |     
     |                         S. Grimme                         |     
     |          Mulliken Center for Theoretical Chemistry        |     
     |                    University of Bonn                     |     
      -----------------------------------------------------------      

   * xtb version 6.7.1 (edcfbbe) compiled by 'albert@albert-system' on 2024-07-22

   xtb is free software: you can redistribute it and/or modify it under
   the terms of the GNU Lesser General Public License as published by
   the Free Software Foundation, either version 3 of the License, or
   (at your option) any later version.
   
   xtb is distributed in the hope that it will be useful,
   but WITHOUT ANY WARRANTY; without even the implied warranty of
   MERCHANTABILITY or FITNESS FOR A PARTICULAR PURPOSE.  See the
   GNU Lesser General Public License for more details.
   
   Cite this work as:
   * C. Bannwarth, E. Caldeweyher, S. Ehlert, A. Hansen, P. Pracht,
     J. Seibert, S. Spicher, S. Grimme, WIREs Comput. Mol. Sci., 2020, 11,
     e01493. DOI: 10.1002/wcms.1493
   
   for GFN2-xTB:
   * C. Bannwarth, S. Ehlert and S. Grimme., J. Chem. Theory Comput., 2019,
     15, 1652-1671. DOI: 10.1021/acs.jctc.8b01176
   for GFN1-xTB:
   * S. Grimme, C. Bannwarth, P. Shushkov, J. Chem. Theory Comput., 2017,
     13, 1989-2009. DOI: 10.1021/acs.jctc.7b00118
   for GFN0-xTB:
   * P. Pracht, E. Caldeweyher, S. Ehlert, S. Grimme, ChemRxiv, 2019, preprint.
     DOI: 10.26434/chemrxiv.8326202.v1
   for GFN-FF:
   * S. Spicher and S. Grimme, Angew. Chem. Int. Ed., 2020, 59, 15665-15673.
     DOI: 10.1002/anie.202004239
   
   for ALPB and GBSA implicit solvation:
   * S. Ehlert, M. Stahn, S. Spicher, S. Grimme, J. Chem. Theory Comput.,
     2021, 17, 4250-4261. DOI: 10.1021/acs.jctc.1c00471
   
   for ddCOSMO and CPCM-X implicit solvation:
   * M. Stahn, S. Ehlert, S. Grimme, J. Phys. Chem. A,
     2023, XX, XXXX-XXXX. DOI: 10.1021/acs.jpca.3c04382
   
   for DFT-D4:
   * E. Caldeweyher, C. Bannwarth and S. Grimme, J. Chem. Phys., 2017,
     147, 034112. DOI: 10.1063/1.4993215
   * E. Caldeweyher, S. Ehlert, A. Hansen, H. Neugebauer, S. Spicher,
     C. Bannwarth and S. Grimme, J. Chem. Phys., 2019, 150, 154122.
     DOI: 10.1063/1.5090222
   * E. Caldeweyher, J.-M. Mewes, S. Ehlert and S. Grimme, Phys. Chem. Chem. Phys.
     2020, 22, 8499-8512. DOI: 10.1039/D0CP00502A
   
   for sTDA-xTB:
   * S. Grimme and C. Bannwarth, J. Chem. Phys., 2016, 145, 054103.
     DOI: 10.1063/1.4959605
   
   in the mass-spec context:
   * V. Asgeirsson, C. Bauer and S. Grimme, Chem. Sci., 2017, 8, 4879.
     DOI: 10.1039/c7sc00601b
   * J. Koopman and S. Grimme, ACS Omega 2019, 4, 12, 15120-15133.
     DOI: 10.1021/acsomega.9b02011
   
   for metadynamics refer to:
   * S. Grimme, J. Chem. Theory Comput., 2019, 155, 2847-2862
     DOI: 10.1021/acs.jctc.9b00143
   
   for SPH calculations refer to:
   * S. Spicher and S. Grimme, J. Chem. Theory Comput., 2021, 17, 1701-1714
     DOI: 10.1021/acs.jctc.0c01306
   
   for ONIOM refer to:
   * C. Plett, A. Katbashev, S. Ehlert, S. Grimme, M. Bursch,
     Phys. Chem. Chem. Phys., 2023, 25, 17860-17868. DOI: 10.1039/D3CP02178E
   
   for DIPRO refer to:
   * J. Kohn, N. Gildemeister, S. Grimme, D. Fazzi, A. Hansen,
     J. Chem. Phys., 2023, just accepted.
   
   for PTB refer to:
   * S. Grimme, M. Mueller, A. Hansen, J. Chem. Phys., 2023, 158, 124111.
     DOI: 10.1063/5.0137838
   
   with help from (in alphabetical order)
   P. Atkinson, C. Bannwarth, F. Bohle, G. Brandenburg, E. Caldeweyher
   M. Checinski, S. Dohm, S. Ehlert, S. Ehrlich, I. Gerasimov, C. Hölzer
   A. Katbashev, J. Kohn, J. Koopman, C. Lavigne, S. Lehtola, F. März, M. Müller,
   F. Musil, H. Neugebauer, J. Pisarek, C. Plett, P. Pracht, F. Pultar,
   J. Seibert, P. Shushkov, S. Spicher, M. Stahn, M. Steiner, T. Strunk,
   J. Stückrath, T. Rose, and J. Unsleber
   
 * started run on 2025/10/18 at 04:59:56.801     
   ID    Z sym.   atoms
    1    8 O      1, 2
    2    1 H      3

           -------------------------------------------------
          |                Calculation Setup                |
           -------------------------------------------------

          program call               : xtb xyz.xyz --alpb water --charge -1 --ohess
          hostname                   : m003
          coordinate file            : xyz.xyz
          omp threads                :                     2


           -------------------------------------------------
          |                 G F N 2 - x T B                 |
           -------------------------------------------------

        Reference                      10.1021/acs.jctc.8b01176
      * Hamiltonian:
        H0-scaling (s, p, d)           1.850000    2.230000    2.230000
        zeta-weighting                 0.500000
      * Dispersion:
        s8                             2.700000
        a1                             0.520000
        a2                             5.000000
        s9                             5.000000
      * Repulsion:
        kExp                           1.500000    1.000000
        rExp                           1.000000
      * Coulomb:
        alpha                          2.000000
        third order                    shell-resolved
        anisotropic                    true
        a3                             3.000000
        a5                             4.000000
        cn-shift                       1.200000
        cn-exp                         4.000000
        max-rad                        5.000000

      * Solvation model:               ALPB
        Solvent                        water
        Parameter file                 internal GFN2-xTB/ALPB
        Dielectric constant                8.0200E+01
        Reference state                gsolv [1 M gas/solution]
        Free energy shift                  1.0808E-03 Eh       6.7819E-01 kcal/mol
        Temperature                        2.9815E+02 K
        Density                            1.0000E+00 kg/L
        Solvent mass                       1.8000E+01 g/mol
        Interaction kernel             P16
        Born radius scaling (c1)           1.4744E+00
        Born radii integrator          GBOBC
        Born offset                        0.0000E+00 a0       0.0000E+00 AA
        H-bond correction              true
        Ion screening                  false
        Surface tension                    1.0000E-05 Eh       1.5569E+01 dyn/cm
        Grid points                               230 per atom

          ...................................................
          :                      SETUP                      :
          :.................................................:
          :  # basis functions                   9          :
          :  # atomic orbitals                   9          :
          :  # shells                            5          :
          :  # electrons                        14          :
          :  max. iterations                   250          :
          :  Hamiltonian                  GFN2-xTB          :
          :  restarted?                      false          :
          :  GBSA solvation                   true          :
          :  PC potential                    false          :
          :  electronic temp.          300.0000000     K    :
          :  accuracy                    1.0000000          :
          :  -> integral cutoff          0.2500000E+02      :
          :  -> integral neglect         0.1000000E-07      :
          :  -> SCF convergence          0.1000000E-05 Eh   :
          :  -> wf. convergence          0.1000000E-03 e    :
          :  Broyden damping             0.4000000          :
          :  net charge                         -1          :
          :  unpaired electrons                  0          :
          ...................................................

 iter      E             dE          RMSdq      gap      omega  full diag
   1     -8.8559297 -0.885593E+01  0.689E+00    7.84       0.0  T
   2     -8.8624478 -0.651807E-02  0.410E+00    7.69       1.0  T
   3     -8.8632853 -0.837518E-03  0.871E-01    7.46       1.0  T
   4     -8.8635179 -0.232563E-03  0.119E-01    7.55       1.0  T
   5     -8.8635251 -0.725432E-05  0.731E-02    7.54       1.0  T
   6     -8.8635287 -0.354547E-05  0.221E-02    7.55       2.6  T
   7     -8.8635293 -0.679387E-06  0.378E-03    7.55      15.3  T
   8     -8.8635293 -0.717136E-08  0.210E-03    7.55      27.5  T
   9     -8.8635293 -0.142098E-08  0.155E-04    7.55     372.8  T
  10     -8.8635293 -0.107949E-10  0.161E-05    7.55    3583.5  T

   *** convergence criteria satisfied after 10 iterations ***

         #    Occupation            Energy/Eh            Energy/eV
      -------------------------------------------------------------
         1        2.0000           -0.6552428             -17.8301
         2        2.0000           -0.5928884             -16.1333
         3        2.0000           -0.5260089             -14.3134
         4        2.0000           -0.4727647             -12.8646
         5        2.0000           -0.4566779             -12.4268
         6        2.0000           -0.3332320              -9.0677
         7        2.0000           -0.3150628              -8.5733 (HOMO)
         8                         -0.0376233              -1.0238 (LUMO)
         9                          0.1840142               5.0073
      -------------------------------------------------------------
                  HL-Gap            0.2774395 Eh            7.5495 eV
             Fermi-level           -0.1763430 Eh           -4.7985 eV

 SCC (total)                   0 d,  0 h,  0 min,  0.033 sec
 SCC setup                      ...        0 min,  0.000 sec (  0.556%)
 Dispersion                     ...        0 min,  0.000 sec (  0.118%)
 classical contributions        ...        0 min,  0.000 sec (  0.087%)
 integral evaluation            ...        0 min,  0.000 sec (  0.388%)
 iterations                     ...        0 min,  0.033 sec ( 98.037%)
 molecular gradient             ...        0 min,  0.000 sec (  0.523%)
 printout                       ...        0 min,  0.000 sec (  0.211%)

         :::::::::::::::::::::::::::::::::::::::::::::::::::::
         ::                     SUMMARY                     ::
         :::::::::::::::::::::::::::::::::::::::::::::::::::::
         :: total energy              -8.847475169720 Eh    ::
         :: total w/o Gsasa/hb        -8.844079516490 Eh    ::
         :: gradient norm              0.045488487327 Eh/a0 ::
         :: HOMO-LUMO gap              7.549514249358 eV    ::
         ::.................................................::
         :: SCC energy                -8.863529339380 Eh    ::
         :: -> isotropic ES            0.287067893159 Eh    ::
         :: -> anisotropic ES         -0.022149061335 Eh    ::
         :: -> anisotropic XC         -0.009374689187 Eh    ::
         :: -> dispersion             -0.000472934146 Eh    ::
         :: -> Gsolv                  -0.149264332138 Eh    ::
         ::    -> Gelec               -0.145868678908 Eh    ::
         ::    -> Gsasa                0.005051456809 Eh    ::
         ::    -> Ghb                 -0.009527869737 Eh    ::
         ::    -> Gshift               0.001080759698 Eh    ::
         :: repulsion energy           0.016054169660 Eh    ::
         :: add. restraining           0.000000000000 Eh    ::
         :: total charge              -1.000000000000 e     ::
         :::::::::::::::::::::::::::::::::::::::::::::::::::::

      ----------------------------------------------------------- 
     |                   =====================                   |
     |                        A N C O P T                        |
     |                   =====================                   |
     |               Approximate Normal Coordinate               |
     |                Rational Function Optimizer                |
      ----------------------------------------------------------- 
      ----------------------------------------------------------- 
     |                   =====================                   |
     |                        A N C O P T                        |
     |                   =====================                   |
     |               Approximate Normal Coordinate               |
     |                Rational Function Optimizer                |
      ----------------------------------------------------------- 

          ...................................................
          :                      SETUP                      :
          :.................................................:
          :   optimization level            normal          :
          :   max. optcycles                   200          :
          :   ANC micro-cycles                  20          :
          :   degrees of freedom                 3          :
          :.................................................:
          :   RF solver                   davidson          :
          :   write xtbopt.log                true          :
          :   linear?                        false          :
          :   energy convergence         0.5000000E-05 Eh   :
          :   grad. convergence          0.1000000E-02 Eh/α :
          :   maxmium RF displ.          1.0000000          :
          :   Hlow (freq-cutoff)         0.1000000E-01      :
          :   Hmax (freq-cutoff)         5.0000000          :
          :   S6 in model hess.         20.0000000          :
          ...................................................

generating ANC from exact Hessian ...
Using Lindh-Hessian (1995)
 Shifting diagonal of input Hessian by   0.000000000000000E+000
 Lowest  eigenvalues of input Hessian
    0.000000    0.000000    0.000000    0.000000    0.000000    0.000000
    0.218364    1.045245    1.372963
 Highest eigenvalues
    0.000000    0.000000    0.000000    0.218364    1.045245    1.372963
 

........................................................................
.............................. CYCLE    1 ..............................
........................................................................

 iter      E             dE          RMSdq      gap      omega  full diag
   1     -8.8635293 -0.886353E+01  0.950E-06    7.55       0.0  T
   2     -8.8635293 -0.301981E-13  0.562E-06    7.55   10277.7  T
   3     -8.8635293 -0.355271E-14  0.198E-06    7.55   29186.2  T
     SCC iter.                  ...        0 min,  0.000 sec
     gradient                   ...        0 min,  0.000 sec
 * total energy  :    -8.8474752 Eh     change       -0.1563194E-12 Eh
   gradient norm :     0.0454884 Eh/α   predicted     0.0000000E+00 (-100.00%)
   displ. norm   :     0.0757335 α      lambda       -0.2590628E-02
   maximum displ.:     0.0651963 α      in ANC's #1, #2, #3, ...

........................................................................
.............................. CYCLE    2 ..............................
........................................................................

 iter      E             dE          RMSdq      gap      omega  full diag
   1     -8.8648214 -0.886482E+01  0.241E-01    7.18       0.0  T
   2     -8.8648226 -0.118918E-05  0.147E-01    7.18       1.0  T
   3     -8.8648232 -0.635195E-06  0.915E-03    7.18       6.3  T
   4     -8.8648233 -0.272440E-07  0.438E-03    7.18      13.2  T
   5     -8.8648233 -0.348534E-08  0.465E-04    7.18     124.1  T
   6     -8.8648233 -0.639488E-10  0.273E-04    7.18     211.8  T
     SCC iter.                  ...        0 min,  0.000 sec
     gradient                   ...        0 min,  0.000 sec
 * total energy  :    -8.8493266 Eh     change       -0.1851394E-02 Eh
   gradient norm :     0.0183383 Eh/α   predicted    -0.1302744E-02 ( -29.63%)
   displ. norm   :     0.0702358 α      lambda       -0.9429556E-03
   maximum displ.:     0.0652401 α      in ANC's #1, #2, #3, ...

........................................................................
.............................. CYCLE    3 ..............................
........................................................................

 iter      E             dE          RMSdq      gap      omega  full diag
   1     -8.8652607 -0.886526E+01  0.171E-01    6.93       0.0  T
   2     -8.8652615 -0.719242E-06  0.105E-01    6.93       1.0  T
   3     -8.8652619 -0.487505E-06  0.739E-03    6.93       7.8  T
   4     -8.8652620 -0.143216E-07  0.349E-03    6.93      16.5  T
   5     -8.8652620 -0.391783E-08  0.583E-04    6.93      99.1  T
   6     -8.8652620 -0.215621E-09  0.368E-04    6.93     157.0  T
     SCC iter.                  ...        0 min,  0.000 sec
     gradient                   ...        0 min,  0.000 sec
 * total energy  :    -8.8498312 Eh     change       -0.5046064E-03 Eh
   gradient norm :     0.0043064 Eh/α   predicted    -0.4738045E-03 (  -6.10%)
   displ. norm   :     0.0090142 α      lambda       -0.2315391E-04
   maximum displ.:     0.0081951 α      in ANC's #1, #3, #2, ...

........................................................................
.............................. CYCLE    4 ..............................
........................................................................

 iter      E             dE          RMSdq      gap      omega  full diag
   1     -8.8656364 -0.886564E+01  0.159E-02    6.92       0.0  T
   2     -8.8656364 -0.924005E-08  0.972E-03    6.92       5.9  T
   3     -8.8656364 -0.826570E-08  0.107E-03    6.92      54.1  T
   4     -8.8656364 -0.104441E-08  0.304E-04    6.92     190.1  T
   5     -8.8656364 -0.127420E-09  0.504E-05    6.92    1145.4  T
     SCC iter.                  ...        0 min,  0.000 sec
     gradient                   ...        0 min,  0.000 sec
 * total energy  :    -8.8498461 Eh     change       -0.1491473E-04 Eh
   gradient norm :     0.0015924 Eh/α   predicted    -0.1157854E-04 ( -22.37%)
   displ. norm   :     0.0045838 α      lambda       -0.3528028E-05
   maximum displ.:     0.0035631 α      in ANC's #1, #3, #2, ...

........................................................................
.............................. CYCLE    5 ..............................
........................................................................

 iter      E             dE          RMSdq      gap      omega  full diag
   1     -8.8659462 -0.886595E+01  0.106E-02    6.93       0.0  T
   2     -8.8659462 -0.705461E-08  0.650E-03    6.93       8.9  T
   3     -8.8659462 -0.480814E-08  0.914E-04    6.93      63.2  T
   4     -8.8659462 -0.524807E-09  0.460E-04    6.93     125.6  T
     SCC iter.                  ...        0 min,  0.000 sec
     gradient                   ...        0 min,  0.000 sec
 * total energy  :    -8.8498475 Eh     change       -0.1389443E-05 Eh
   gradient norm :     0.0007855 Eh/α   predicted    -0.1762279E-05 (  26.83%)
   displ. norm   :     0.0015161 α      lambda       -0.5597437E-06
   maximum displ.:     0.0011812 α      in ANC's #1, #3, #2, ...

   *** GEOMETRY OPTIMIZATION CONVERGED AFTER 5 ITERATIONS ***

------------------------------------------------------------------------
 total energy gain   :        -0.0023723 Eh       -1.4886 kcal/mol
 total RMSD          :         0.0902240 a0        0.0477 Å
 total power (kW/mol):        -1.2456970 (step)-1740.7982 (real)
------------------------------------------------------------------------

 ANCopt (total)                0 d,  0 h,  0 min,  0.004 sec
 optimizer setup                ...        0 min,  0.000 sec (  5.041%)
 model hessian                  ...        0 min,  0.000 sec (  2.006%)
 ANC generation                 ...        0 min,  0.000 sec (  1.368%)
 coordinate transformation      ...        0 min,  0.000 sec (  0.830%)
 single point calculation       ...        0 min,  0.003 sec ( 75.329%)
 optimization log               ...        0 min,  0.000 sec (  3.686%)
 hessian update                 ...        0 min,  0.000 sec (  0.750%)
 rational function              ...        0 min,  0.000 sec (  4.735%)

================
 final structure:
================
3
 xtb: 6.7.1 (edcfbbe)
O           -2.95384498590147       -4.48771015877158        2.78855863332138
O           -4.17006938158289       -5.22093988699235        2.54651897051680
H           -2.39603563251564       -4.77638095423607        2.05060539616182
 
 Bond Distances (Angstroems)
 ---------------------------
O1-O2=1.4406         O1-H3=0.9690         O2-O1=1.4406         H3-O1=0.9690         
 O  H  Rav=0.9690 sigma=0.0000  Rmin=0.9690  Rmax=0.9690     1
 O  O  Rav=1.4406 sigma=0.0000  Rmin=1.4406  Rmax=1.4406     1
 
 selected bond angles (degree)
 --------------------
H3-O1-O2=101.91                
 
 selected dihedral angles (degree)
 ---------------------------------

           -------------------------------------------------
          |                Final Singlepoint                |
           -------------------------------------------------

          ...................................................
          :                      SETUP                      :
          :.................................................:
          :  # basis functions                   9          :
          :  # atomic orbitals                   9          :
          :  # shells                            5          :
          :  # electrons                        14          :
          :  max. iterations                   250          :
          :  Hamiltonian                  GFN2-xTB          :
          :  restarted?                      false          :
          :  GBSA solvation                   true          :
          :  PC potential                    false          :
          :  electronic temp.          300.0000000     K    :
          :  accuracy                    1.0000000          :
          :  -> integral cutoff          0.2500000E+02      :
          :  -> integral neglect         0.1000000E-07      :
          :  -> SCF convergence          0.1000000E-05 Eh   :
          :  -> wf. convergence          0.1000000E-03 e    :
          :  Broyden damping             0.4000000          :
          :  net charge                         -1          :
          :  unpaired electrons                  0          :
          ...................................................

 iter      E             dE          RMSdq      gap      omega  full diag
   1     -8.8659462 -0.886595E+01  0.123E-04    6.93       0.0  T
   2     -8.8659462 -0.688871E-11  0.905E-05    6.93     638.0  T
   3     -8.8659462 -0.987832E-11  0.213E-05    6.93    2711.3  T

   *** convergence criteria satisfied after 3 iterations ***

         #    Occupation            Energy/Eh            Energy/eV
      -------------------------------------------------------------
         1        2.0000           -0.6550089             -17.8237
         2        2.0000           -0.5899210             -16.0526
         3        2.0000           -0.5269442             -14.3389
         4        2.0000           -0.4743695             -12.9083
         5        2.0000           -0.4541571             -12.3582
         6        2.0000           -0.3374345              -9.1821
         7        2.0000           -0.3223049              -8.7704 (HOMO)
         8                         -0.0676625              -1.8412 (LUMO)
         9                          0.1778190               4.8387
      -------------------------------------------------------------
                  HL-Gap            0.2546424 Eh            6.9292 eV
             Fermi-level           -0.1949837 Eh           -5.3058 eV

 SCC (total)                   0 d,  0 h,  0 min,  0.001 sec
 SCC setup                      ...        0 min,  0.000 sec ( 14.215%)
 Dispersion                     ...        0 min,  0.000 sec (  1.736%)
 classical contributions        ...        0 min,  0.000 sec (  0.868%)
 integral evaluation            ...        0 min,  0.000 sec ( 13.512%)
 iterations                     ...        0 min,  0.000 sec ( 32.231%)
 molecular gradient             ...        0 min,  0.000 sec ( 21.488%)
 printout                       ...        0 min,  0.000 sec ( 11.777%)

         :::::::::::::::::::::::::::::::::::::::::::::::::::::
         ::                     SUMMARY                     ::
         :::::::::::::::::::::::::::::::::::::::::::::::::::::
         :: total energy              -8.849847474596 Eh    ::
         :: total w/o Gsasa/hb        -8.846438342190 Eh    ::
         :: gradient norm              0.000784258493 Eh/a0 ::
         :: HOMO-LUMO gap              6.929171627937 eV    ::
         ::.................................................::
         :: SCC energy                -8.865946202008 Eh    ::
         :: -> isotropic ES            0.283302478411 Eh    ::
         :: -> anisotropic ES         -0.021097454884 Eh    ::
         :: -> anisotropic XC         -0.007656878118 Eh    ::
         :: -> dispersion             -0.000472805623 Eh    ::
         :: -> Gsolv                  -0.147604154544 Eh    ::
         ::    -> Gelec               -0.144195022138 Eh    ::
         ::    -> Gsasa                0.005143953202 Eh    ::
         ::    -> Ghb                 -0.009633845307 Eh    ::
         ::    -> Gshift               0.001080759698 Eh    ::
         :: repulsion energy           0.016098727412 Eh    ::
         :: add. restraining           0.000000000000 Eh    ::
         :: total charge              -1.000000000000 e     ::
         :::::::::::::::::::::::::::::::::::::::::::::::::::::

           ------------------------------------------------- 
          |                Numerical Hessian                |
           ------------------------------------------------- 
step length          :   0.00500
SCC accuracy         :   0.30000
Hessian scale factor :   1.00000
frozen atoms in %    :   0.00000    0
RMS gradient         :   0.00078
estimated CPU  time      0.00 min
estimated wall time      0.00 min

writing file <hessian>.

 projected vibrational frequencies (cm⁻¹)
eigval :       -0.00    -0.00     0.00     0.00     0.00     0.00
eigval :     1072.43  1188.58  3481.04
           -------------------------------------------------
          |                Property Printout                |
           -------------------------------------------------

    * Orbital Energies and Occupations

         #    Occupation            Energy/Eh            Energy/eV
      -------------------------------------------------------------
         1        2.0000           -0.6550089             -17.8237
         2        2.0000           -0.5899212             -16.0526
         3        2.0000           -0.5269444             -14.3389
         4        2.0000           -0.4743697             -12.9083
         5        2.0000           -0.4541573             -12.3582
         6        2.0000           -0.3374348              -9.1821
         7        2.0000           -0.3223051              -8.7704 (HOMO)
         8                         -0.0676626              -1.8412 (LUMO)
         9                          0.1778188               4.8387
      -------------------------------------------------------------
                  HL-Gap            0.2546424 Eh            6.9292 eV
             Fermi-level           -0.1949839 Eh           -5.3058 eV

     #   Z          covCN         q      C6AA      α(0)
     1   8 O        1.721    -0.523    23.376     6.528
     2   8 O        0.917    -0.816    32.037     7.590
     3   1 H        0.804     0.340     0.613     1.230

 Mol. C6AA /au·bohr⁶  :        126.874993
 Mol. C8AA /au·bohr⁸  :       2481.916820
 Mol. α(0) /au        :         15.348155


Wiberg/Mayer (AO) data.
largest (>0.10) Wiberg bond orders for each atom

 ---------------------------------------------------------------------------
     #   Z sym  total        # sym  WBO       # sym  WBO       # sym  WBO
 ---------------------------------------------------------------------------
     1   8 O    1.851 --     2 O    0.969     3 H    0.882
     2   8 O    0.972 --     1 O    0.969
     3   1 H    0.885 --     1 O    0.882
 ---------------------------------------------------------------------------

Topologies differ in total number of bonds
Writing topology from bond orders to xtbtopo.mol

molecular dipole:
                 x           y           z       tot (Debye)
 q only:        7.816       9.426      -5.370
   full:        7.952       9.405      -5.483      34.267
molecular quadrupole (traceless):
                xx          xy          yy          xz          yz          zz
 q only:       -1.155    -111.541     -45.240      60.588      75.398      46.395
  q+dip:       -3.146    -114.106     -43.425      62.174      76.584      46.571
   full:       -2.566    -113.503     -43.626      62.237      76.807      46.193

           -------------------------------------------------
          |                Geometry Summary                 |
           -------------------------------------------------

      molecular mass/u    :       33.0067506
   center of mass at/Å    :       -3.5263694      -4.8519222       2.6487203
  moments of inertia/u·Å² :        0.8347047E+00   0.1747414E+02   0.1830885E+02
rotational constants/cm⁻¹ :        0.2019592E+02   0.9647186E+00   0.9207369E+00

 * 1 selected distances

     #   Z          #   Z                                           value/Å
     1   8 O        3   1 H                                       0.9690497 (max)

 * 1 distinct bonds (by element types)

   Z      Z             #   av. dist./Å        max./Å        min./Å
   1 H    8 O           1     0.9690497     0.9690497     0.9690497

           -------------------------------------------------
          |               Frequency Printout                |
           -------------------------------------------------
 projected vibrational frequencies (cm⁻¹)
eigval :       -0.00    -0.00     0.00     0.00     0.00     0.00
eigval :     1072.43  1188.58  3481.04
 reduced masses (amu)
   1:  6.18   2: 15.70   3: 15.81   4: 15.66   5: 14.83   6: 10.56   7: 15.97   8:  2.41
   9:  1.90
 IR intensities (km·mol⁻¹)
   1:135.56   2: 29.01   3: 41.03   4: 17.57   5: 41.58   6: 63.34   7:  6.53   8:101.85
   9: 32.98
 Raman intensities (Ä⁴*amu⁻¹)
   1:  0.00   2:  0.00   3:  0.00   4:  0.00   5:  0.00   6:  0.00   7:  0.00   8:  0.00
   9:  0.00
 output can be read by thermo (or use thermo option).
 writing <g98.out> molden fake output.
 recommended (thermochemical) frequency scaling factor: 1.0
           -------------------------------------------------
          |             Thermodynamic Functions             |
           -------------------------------------------------

Molecule has the following symmetry elements: (sigma) 
It seems to be the Cs point group
cs  symmetry found (for desy threshold:  0.10E+00) used in thermo

          ...................................................
          :                      SETUP                      :
          :.................................................:
          :  # frequencies                           3      :
          :  # imaginary freq.                       0      :
          :  linear?                             false      :
          :  only rotor calc.                    false      :
          :  symmetry                               cs      :
          :  rotational number                       1      :
          :  scaling factor                  1.0000000      :
          :  rotor cutoff                   50.0000000 cm⁻¹ :
          :  imag. cutoff                  -20.0000000 cm⁻¹ :
          :.................................................:

    mode    ω/cm⁻¹     T·S(HO)/kcal·mol⁻¹    T·S(FR)/kcal·mol⁻¹   T·S(vib)
   ------------------------------------------------------------------------
   ------------------------------------------------------------------------

   temp. (K)  partition function   enthalpy   heat capacity  entropy
                                   cal/mol     cal/K/mol   cal/K/mol   J/K/mol
 298.15  VIB   1.01                   28.447      0.517      0.113
         ROT  0.125E+04              888.752      2.981     17.149
         INT  0.126E+04              917.199      3.498     17.262
         TR   0.183E+27             1481.254      4.968     36.397
         TOT                        2398.4534     8.4659    53.6597   224.5123

       T/K    H(0)-H(T)+PV         H(T)/Eh          T*S/Eh         G(T)/Eh
   ------------------------------------------------------------------------
    298.15    0.382218E-02    0.169035E-01    0.254955E-01   -0.859195E-02
   ------------------------------------------------------------------------

         :::::::::::::::::::::::::::::::::::::::::::::::::::::
         ::                  THERMODYNAMIC                  ::
         :::::::::::::::::::::::::::::::::::::::::::::::::::::
         :: total free energy          -8.858439426048 Eh   ::
         ::.................................................::
         :: total energy               -8.849847473908 Eh   ::
         :: zero point energy           0.013081340073 Eh   ::
         :: G(RRHO) w/o ZPVE           -0.021673292212 Eh   ::
         :: G(RRHO) contrib.           -0.008591952140 Eh   ::
         :::::::::::::::::::::::::::::::::::::::::::::::::::::

optimized geometry written to: xtbopt.xyz


           -------------------------------------------------
          | TOTAL ENERGY               -8.849847473908 Eh   |
          | TOTAL ENTHALPY             -8.832943955031 Eh   |
          | TOTAL FREE ENERGY          -8.858439426048 Eh   |
          | GRADIENT NORM               0.000784170772 Eh/α |
          | HOMO-LUMO GAP               6.929173640052 eV   |
           -------------------------------------------------

------------------------------------------------------------------------
 * finished run on 2025/10/18 at 04:59:57.193     
------------------------------------------------------------------------
 total:
 * wall-time:     0 d,  0 h,  0 min,  0.392 sec
 *  cpu-time:     0 d,  0 h,  0 min,  0.362 sec
 * ratio c/w:     0.924 speedup
 SCF:
 * wall-time:     0 d,  0 h,  0 min,  0.033 sec
 *  cpu-time:     0 d,  0 h,  0 min,  0.037 sec
 * ratio c/w:     1.118 speedup
 ANC optimizer:
 * wall-time:     0 d,  0 h,  0 min,  0.048 sec
 *  cpu-time:     0 d,  0 h,  0 min,  0.053 sec
 * ratio c/w:     1.101 speedup
 analytical hessian:
 * wall-time:     0 d,  0 h,  0 min,  0.046 sec
 *  cpu-time:     0 d,  0 h,  0 min,  0.053 sec
 * ratio c/w:     1.144 speedup

