3
 energy: -8.847475169721 gnorm: 0.045488450707 xtb: 6.7.1 (edcfbbe)
O           -2.98112200000000       -4.52282800000000        2.75776400000000
O           -4.18898000000000       -5.21020000000000        2.57283200000000
H           -2.34984800000000       -4.75200300000000        2.05508700000000
3
 energy: -8.849326563769 gnorm: 0.018340258685 xtb: 6.7.1 (edcfbbe)
O           -2.96770729429602       -4.50425377418232        2.77467928166349
O           -4.18269244182792       -5.21667975926410        2.56013173243556
H           -2.36955026387606       -4.76409746655357        2.05087198590095
3
 energy: -8.849831170134 gnorm: 0.004312516532 xtb: 6.7.1 (edcfbbe)
O           -2.95626387185951       -4.48896789014564        2.78834968776982
O           -4.17290246232990       -5.22091260668179        2.54831240150611
H           -2.39078366581060       -4.77515050317257        2.04902091072407
3
 energy: -8.849846084863 gnorm: 0.001596844950 xtb: 6.7.1 (edcfbbe)
O           -2.95459042203688       -4.48784739614154        2.78883434048285
O           -4.17112081646162       -5.22106183259135        2.54700515482733
H           -2.39423876150150       -4.77612177126710        2.04984350468982
3
 energy: -8.849847474306 gnorm: 0.000789120546 xtb: 6.7.1 (edcfbbe)
O           -2.95384498590147       -4.48771015877158        2.78855863332138
O           -4.17006938158289       -5.22093988699235        2.54651897051680
H           -2.39603563251564       -4.77638095423607        2.05060539616182
