3
 energy: -8.849847474596 gnorm: 0.000784258493 xtb: 6.7.1 (edcfbbe)
O           -2.95385874947970       -4.48768982550506        2.78857677669608
O           -4.17008782919446       -5.22091360801310        2.54654263904466
H           -2.39605348352939       -4.77636482960599        2.05062209624576
