
                                 *****************
                                 * O   R   C   A *
                                 *****************

                                            #,                                       
                                            ###                                      
                                            ####                                     
                                            #####                                    
                                            ######                                   
                                           ########,                                 
                                     ,,################,,,,,                         
                               ,,#################################,,                 
                          ,,##########################################,,             
                       ,#########################################, ''#####,          
                    ,#############################################,,   '####,        
                  ,##################################################,,,,####,       
                ,###########''''           ''''###############################       
              ,#####''   ,,,,##########,,,,          '''####'''          '####       
            ,##' ,,,,###########################,,,                        '##       
           ' ,,###''''                  '''############,,,                           
         ,,##''                                '''############,,,,        ,,,,,,###''
      ,#''                                            '''#######################'''  
     '                                                          ''''####''''         
             ,#######,   #######,   ,#######,      ##                                
            ,#'     '#,  ##    ##  ,#'     '#,    #''#        ######   ,####,        
            ##       ##  ##   ,#'  ##            #'  '#       #        #'  '#        
            ##       ##  #######   ##           ,######,      #####,   #    #        
            '#,     ,#'  ##    ##  '#,     ,#' ,#      #,         ##   #,  ,#        
             '#######'   ##     ##  '#######'  #'      '#     #####' # '####'        



                  #######################################################
                  #                        -***-                        #
                  #          Department of theory and spectroscopy      #
                  #    Directorship and core code : Frank Neese         #
                  #        Max Planck Institute fuer Kohlenforschung    #
                  #                Kaiser Wilhelm Platz 1               #
                  #                 D-45470 Muelheim/Ruhr               #
                  #                      Germany                        #
                  #                                                     #
                  #                  All rights reserved                #
                  #                        -***-                        #
                  #######################################################


                         Program Version 5.0.4 -  RELEASE  -


 With contributions from (in alphabetic order):
   Daniel Aravena         : Magnetic Suceptibility
   Michael Atanasov       : Ab Initio Ligand Field Theory (pilot matlab implementation)
   Alexander A. Auer      : GIAO ZORA, VPT2 properties, NMR spectrum
   Ute Becker             : Parallelization
   Giovanni Bistoni       : ED, misc. LED, open-shell LED, HFLD
   Martin Brehm           : Molecular dynamics
   Dmytro Bykov           : SCF Hessian
   Vijay G. Chilkuri      : MRCI spin determinant printing, contributions to CSF-ICE
   Dipayan Datta          : RHF DLPNO-CCSD density
   Achintya Kumar Dutta   : EOM-CC, STEOM-CC
   Dmitry Ganyushin       : Spin-Orbit,Spin-Spin,Magnetic field MRCI
   Miquel Garcia          : C-PCM and meta-GGA Hessian, CC/C-PCM, Gaussian charge scheme
   Yang Guo               : DLPNO-NEVPT2, F12-NEVPT2, CIM, IAO-localization
   Andreas Hansen         : Spin unrestricted coupled pair/coupled cluster methods
   Benjamin Helmich-Paris : MC-RPA, TRAH-SCF, COSX integrals
   Lee Huntington         : MR-EOM, pCC
   Robert Izsak           : Overlap fitted RIJCOSX, COSX-SCS-MP3, EOM
   Marcus Kettner         : VPT2
   Christian Kollmar      : KDIIS, OOCD, Brueckner-CCSD(T), CCSD density, CASPT2, CASPT2-K
   Simone Kossmann        : Meta GGA functionals, TD-DFT gradient, OOMP2, MP2 Hessian
   Martin Krupicka        : Initial AUTO-CI
   Lucas Lang             : DCDCAS
   Marvin Lechner         : AUTO-CI (C++ implementation), FIC-MRCC
   Dagmar Lenk            : GEPOL surface, SMD
   Dimitrios Liakos       : Extrapolation schemes; Compound Job, initial MDCI parallelization
   Dimitrios Manganas     : Further ROCIS development; embedding schemes
   Dimitrios Pantazis     : SARC Basis sets
   Anastasios Papadopoulos: AUTO-CI, single reference methods and gradients
   Taras Petrenko         : DFT Hessian,TD-DFT gradient, ASA, ECA, R-Raman, ABS, FL, XAS/XES, NRVS
   Peter Pinski           : DLPNO-MP2, DLPNO-MP2 Gradient
   Christoph Reimann      : Effective Core Potentials
   Marius Retegan         : Local ZFS, SOC
   Christoph Riplinger    : Optimizer, TS searches, QM/MM, DLPNO-CCSD(T), (RO)-DLPNO pert. Triples
   Tobias Risthaus        : Range-separated hybrids, TD-DFT gradient, RPA, STAB
   Michael Roemelt        : Original ROCIS implementation
   Masaaki Saitow         : Open-shell DLPNO-CCSD energy and density
   Barbara Sandhoefer     : DKH picture change effects
   Avijit Sen             : IP-ROCIS
   Kantharuban Sivalingam : CASSCF convergence, NEVPT2, FIC-MRCI
   Bernardo de Souza      : ESD, SOC TD-DFT
   Georgi Stoychev        : AutoAux, RI-MP2 NMR, DLPNO-MP2 response
   Willem Van den Heuvel  : Paramagnetic NMR
   Boris Wezisla          : Elementary symmetry handling
   Frank Wennmohs         : Technical directorship


 We gratefully acknowledge several colleagues who have allowed us to
 interface, adapt or use parts of their codes:
   Stefan Grimme, W. Hujo, H. Kruse, P. Pracht,  : VdW corrections, initial TS optimization,
                  C. Bannwarth, S. Ehlert          DFT functionals, gCP, sTDA/sTD-DF
   Ed Valeev, F. Pavosevic, A. Kumar             : LibInt (2-el integral package), F12 methods
   Garnet Chan, S. Sharma, J. Yang, R. Olivares  : DMRG
   Ulf Ekstrom                                   : XCFun DFT Library
   Mihaly Kallay                                 : mrcc  (arbitrary order and MRCC methods)
   Jiri Pittner, Ondrej Demel                    : Mk-CCSD
   Frank Weinhold                                : gennbo (NPA and NBO analysis)
   Christopher J. Cramer and Donald G. Truhlar   : smd solvation model
   Lars Goerigk                                  : TD-DFT with DH, B97 family of functionals
   V. Asgeirsson, H. Jonsson                     : NEB implementation
   FAccTs GmbH                                   : IRC, NEB, NEB-TS, DLPNO-Multilevel, CI-OPT
                                                   MM, QMMM, 2- and 3-layer-ONIOM, Crystal-QMMM,
                                                   LR-CPCM, SF, NACMEs, symmetry and pop. for TD-DFT,
                                                   nearIR, NL-DFT gradient (VV10), updates on ESD,
                                                   ML-optimized integration grids
   S Lehtola, MJT Oliveira, MAL Marques          : LibXC Library
   Liviu Ungur et al                             : ANISO software


 Your calculation uses the libint2 library for the computation of 2-el integrals
 For citations please refer to: http://libint.valeyev.net

 Your ORCA version has been built with support for libXC version: 5.1.0
 For citations please refer to: https://tddft.org/programs/libxc/

 This ORCA versions uses:
   CBLAS   interface :  Fast vector & matrix operations
   LAPACKE interface :  Fast linear algebra routines
   SCALAPACK package :  Parallel linear algebra routines
   Shared memory     :  Shared parallel matrices
   BLAS/LAPACK       :  OpenBLAS 0.3.15  USE64BITINT DYNAMIC_ARCH NO_AFFINITY Haswell SINGLE_THREADED
        Core in use  :  Haswell
   Copyright (c) 2011-2014, The OpenBLAS Project


Your calculation utilizes the atom-pairwise dispersion correction
with the Becke-Johnson damping scheme (D3BJ)
Cite in your paper:
S.Grimme, S.Ehrlich, L.Goerigk, J Comput Chem, (2011), 32, 1456–1465 
S.Grimme, J.Antony, S.Ehrlich and H.Krieg, J.Chem.Phys., 132, (2010), 154104 
   

================================================================================

----- Orbital basis set information -----
Your calculation utilizes the basis: def2-TZVP
   F. Weigend and R. Ahlrichs, Phys. Chem. Chem. Phys. 7, 3297 (2005).

----- AuxJ basis set information -----
Your calculation utilizes the auxiliary basis: def2/J
   F. Weigend, Phys. Chem. Chem. Phys. 8, 1057 (2006).

================================================================================
                                        WARNINGS
                       Please study these warnings very carefully!
================================================================================


WARNING: Geometry Optimization
  ===> : Switching off AutoStart
         For restart on a previous wavefunction, please use MOREAD

INFO   : the flag for use of the SHARK integral package has been found!

================================================================================
                                       INPUT FILE
================================================================================
NAME = inp.inp
|  1> !OPT PBE D3BJ def2-TZVP CPCM(water)
|  2> 
|  3> *xyz -1 1
|  4> C     -2.096894   -2.891834    1.601737
|  5> C     -2.482361   -2.228194    0.496453
|  6> C     -3.737258   -2.577291   -0.162880
|  7> C     -4.500225   -3.567120    0.346863
|  8> C     -4.081409   -4.286098    1.545339
|  9> C     -2.921692   -3.956530    2.146525
| 10> O     -6.439089   -4.809980    0.152017
| 11> H     -2.585676   -4.474633    3.039280
| 12> H     -1.885616   -1.428752    0.068182
| 13> H     -4.004239   -2.012618   -1.051410
| 14> N     -5.754958   -3.897875   -0.333807
| 15> H     -4.708315   -5.079092    1.940384
| 16> O     -6.063900   -3.255862   -1.348619
| 17> N     -1.141931   -2.633790    2.112402
| 18> H     -0.274895   -2.401611    2.578516
| 19> *
| 20> 
| 21>                          ****END OF INPUT****
================================================================================

                       *****************************
                       * Geometry Optimization Run *
                       *****************************

Geometry optimization settings:
Update method            Update   .... BFGS
Choice of coordinates    CoordSys .... Z-matrix Internals
Initial Hessian          InHess   .... Almoef's Model

Convergence Tolerances:
Energy Change            TolE     ....  5.0000e-06 Eh
Max. Gradient            TolMAXG  ....  3.0000e-04 Eh/bohr
RMS Gradient             TolRMSG  ....  1.0000e-04 Eh/bohr
Max. Displacement        TolMAXD  ....  4.0000e-03 bohr
RMS Displacement         TolRMSD  ....  2.0000e-03 bohr
Strict Convergence                ....  False
------------------------------------------------------------------------------
                        ORCA OPTIMIZATION COORDINATE SETUP
------------------------------------------------------------------------------

The optimization will be done in new redundant internal coordinates
Making redundant internal coordinates   ...  (new redundants) done
Evaluating the initial hessian          ...  (Almloef) done
Evaluating the coordinates              ...  done
Calculating the B-matrix                .... done
Calculating the G-matrix                .... done
Diagonalizing the G-matrix              .... done
The first mode is                       ....   27
The number of degrees of freedom        ....   39

    -----------------------------------------------------------------
                    Redundant Internal Coordinates


    -----------------------------------------------------------------
         Definition                    Initial Value    Approx d2E/dq
    -----------------------------------------------------------------
      1. B(C   1,C   0)                  1.3456         0.735472   
      2. B(C   2,C   1)                  1.4599         0.483272   
      3. B(C   3,C   2)                  1.3497         0.724466   
      4. B(C   4,C   3)                  1.4590         0.484901   
      5. B(C   5,C   4)                  1.3472         0.731143   
      6. B(C   5,C   0)                  1.4528         0.496050   
      7. B(H   7,C   5)                  1.0855         0.366078   
      8. B(H   8,C   1)                  1.0856         0.365906   
      9. B(H   9,C   2)                  1.0861         0.365292   
     10. B(N  10,O   6)                  1.2394         0.871686   
     11. B(N  10,C   3)                  1.4653         0.424385   
     12. B(H  11,C   4)                  1.0853         0.366350   
     13. B(O  12,N  10)                  1.2399         0.869785   
     14. B(N  13,C   0)                  1.1132         1.546737   
     15. B(H  14,N  13)                  1.0114         0.430495   
     16. A(C   1,C   0,N  13)          120.5444         0.526486   
     17. A(C   5,C   0,N  13)          119.0034         0.489176   
     18. A(C   1,C   0,C   5)          120.4522         0.430009   
     19. A(C   0,C   1,H   8)          121.9881         0.364305   
     20. A(C   2,C   1,H   8)          118.0603         0.339344   
     21. A(C   0,C   1,C   2)          119.9515         0.428001   
     22. A(C   3,C   2,H   9)          123.4558         0.363263   
     23. A(C   1,C   2,H   9)          117.1578         0.339249   
     24. A(C   1,C   2,C   3)          119.3864         0.426846   
     25. A(C   4,C   3,N  10)          121.0747         0.386093   
     26. A(C   2,C   3,N  10)          118.3044         0.414355   
     27. A(C   2,C   3,C   4)          120.6209         0.427104   
     28. A(C   3,C   4,C   5)          119.5457         0.427806   
     29. A(C   5,C   4,H  11)          120.9004         0.364013   
     30. A(C   3,C   4,H  11)          119.5540         0.339603   
     31. A(C   0,C   5,H   7)          118.8451         0.340854   
     32. A(C   0,C   5,C   4)          120.0433         0.429554   
     33. A(C   4,C   5,H   7)          121.1116         0.363967   
     34. A(C   3,N  10,O   6)          117.1754         0.422652   
     35. A(O   6,N  10,O  12)          124.3568         0.478199   
     36. A(C   3,N  10,O  12)          118.4678         0.422487   
     37. L(C   0,N  13,H  14,C   5, 2) 180.0001         0.420275   
     38. L(C   0,N  13,H  14,C   5, 1) 179.8199         0.420275   
     39. D(H   8,C   1,C   0,C   5)   -180.0000         0.038433   
     40. D(C   2,C   1,C   0,C   5)      0.0000         0.038433   
     41. D(C   2,C   1,C   0,N  13)   -179.9999         0.038433   
     42. D(H   8,C   1,C   0,N  13)      0.0001         0.038433   
     43. D(C   3,C   2,C   1,C   0)     -0.0000         0.015901   
     44. D(C   3,C   2,C   1,H   8)    180.0000         0.015901   
     45. D(H   9,C   2,C   1,H   8)     -0.0000         0.015901   
     46. D(H   9,C   2,C   1,C   0)    180.0000         0.015901   
     47. D(N  10,C   3,C   2,H   9)     -0.0001         0.037188   
     48. D(N  10,C   3,C   2,C   1)    179.9999         0.037188   
     49. D(C   4,C   3,C   2,H   9)   -180.0000         0.037188   
     50. D(C   4,C   3,C   2,C   1)      0.0000         0.037188   
     51. D(H  11,C   4,C   3,C   2)   -180.0000         0.016009   
     52. D(C   5,C   4,C   3,N  10)   -179.9999         0.016009   
     53. D(C   5,C   4,C   3,C   2)     -0.0001         0.016009   
     54. D(H  11,C   4,C   3,N  10)      0.0002         0.016009   
     55. D(H   7,C   5,C   4,H  11)     -0.0001         0.037940   
     56. D(C   0,C   5,C   4,H  11)    180.0000         0.037940   
     57. D(C   0,C   5,C   4,C   3)      0.0001         0.037940   
     58. D(H   7,C   5,C   0,N  13)     -0.0000         0.016758   
     59. D(H   7,C   5,C   0,C   1)    180.0000         0.016758   
     60. D(H   7,C   5,C   4,C   3)   -180.0000         0.037940   
     61. D(C   4,C   5,C   0,N  13)    179.9999         0.016758   
     62. D(C   4,C   5,C   0,C   1)     -0.0001         0.016758   
     63. D(O  12,N  10,C   3,C   4)    179.9998         0.014190   
     64. D(O  12,N  10,C   3,C   2)     -0.0001         0.014190   
     65. D(O   6,N  10,C   3,C   4)     -0.0002         0.014190   
     66. D(O   6,N  10,C   3,C   2)    179.9999         0.014190   
    -----------------------------------------------------------------

Number of atoms                         .... 15
Number of degrees of freedom            .... 66

         *************************************************************
         *                GEOMETRY OPTIMIZATION CYCLE   1            *
         *************************************************************
---------------------------------
CARTESIAN COORDINATES (ANGSTROEM)
---------------------------------
  C     -2.096894   -2.891834    1.601737
  C     -2.482361   -2.228194    0.496453
  C     -3.737258   -2.577291   -0.162880
  C     -4.500225   -3.567120    0.346863
  C     -4.081409   -4.286098    1.545339
  C     -2.921692   -3.956530    2.146525
  O     -6.439089   -4.809980    0.152017
  H     -2.585676   -4.474633    3.039280
  H     -1.885616   -1.428752    0.068182
  H     -4.004239   -2.012618   -1.051410
  N     -5.754958   -3.897875   -0.333807
  H     -4.708315   -5.079092    1.940384
  O     -6.063900   -3.255862   -1.348619
  N     -1.141931   -2.633790    2.112402
  H     -0.274895   -2.401611    2.578516

----------------------------
CARTESIAN COORDINATES (A.U.)
----------------------------
  NO LB      ZA    FRAG     MASS         X           Y           Z
   0 C     6.0000    0    12.011   -3.962555   -5.464774    3.026844
   1 C     6.0000    0    12.011   -4.690982   -4.210676    0.938160
   2 C     6.0000    0    12.011   -7.062394   -4.870374   -0.307799
   3 C     6.0000    0    12.011   -8.504193   -6.740880    0.655476
   4 C     6.0000    0    12.011   -7.712745   -8.099551    2.920267
   5 C     6.0000    0    12.011   -5.521198   -7.476758    4.056344
   6 O     8.0000    0    15.999  -12.168115   -9.089545    0.287270
   7 H     1.0000    0     1.008   -4.886220   -8.455831    5.743407
   8 H     1.0000    0     1.008   -3.563298   -2.699950    0.128845
   9 H     1.0000    0     1.008   -7.566915   -3.803297   -1.986877
  10 N     7.0000    0    14.007  -10.875295   -7.365916   -0.630804
  11 H     1.0000    0     1.008   -8.897426   -9.598093    3.666794
  12 O     8.0000    0    15.999  -11.459110   -6.152688   -2.548521
  13 N     7.0000    0    14.007   -2.157937   -4.977142    3.991861
  14 H     1.0000    0     1.008   -0.519476   -4.538387    4.872689

--------------------------------
INTERNAL COORDINATES (ANGSTROEM)
--------------------------------
 C      0   0   0     0.000000000000     0.00000000     0.00000000
 C      1   0   0     1.345606026423     0.00000000     0.00000000
 C      2   1   0     1.459916162287   119.95154486     0.00000000
 C      3   2   1     1.349710346104   119.38641047     0.00000000
 C      4   3   2     1.458999975639   120.62092473     0.00000000
 C      5   4   3     1.347213120968   119.54566116     0.00000000
 O      4   3   2     2.311246320454   146.79629444   179.99996532
 H      6   5   4     1.085517830756   121.11164258   180.00002893
 H      2   1   3     1.085646423026   121.98813600   179.99999573
 H      3   2   1     1.086103131470   117.15782713   179.99995821
 N      7   4   3     1.239352942128    34.33272248     0.00000000
 H      5   4   3     1.085316160802   119.55397297   180.00004972
 O     11   7   4     1.239947275846   124.35678771   180.00006488
 N      1   2   3     1.113247402660   120.54438487   180.00006449
 H     14   1   2     1.011395458924   179.81986881   179.98350266

---------------------------
INTERNAL COORDINATES (A.U.)
---------------------------
 C      0   0   0     0.000000000000     0.00000000     0.00000000
 C      1   0   0     2.542826874093     0.00000000     0.00000000
 C      2   1   0     2.758841725208   119.95154486     0.00000000
 C      3   2   1     2.550582914256   119.38641047     0.00000000
 C      4   3   2     2.757110383356   120.62092473     0.00000000
 C      5   4   3     2.545863842655   119.54566116     0.00000000
 O      4   3   2     4.367622573691   146.79629444   179.99996532
 H      6   5   4     2.051331413618   121.11164258   180.00002893
 H      2   1   3     2.051574417791   121.98813600   179.99999573
 H      3   2   1     2.052437471673   117.15782713   179.99995821
 N      7   4   3     2.342037643892    34.33272248     0.00000000
 H      5   4   3     2.050950312634   119.55397297   180.00004972
 O     11   7   4     2.343160771850   124.35678771   180.00006488
 N      1   2   3     2.103732710327   120.54438487   180.00006449
 H     14   1   2     1.911260430459   179.81986881   179.98350266

---------------------
BASIS SET INFORMATION
---------------------
There are 4 groups of distinct atoms

 Group   1 Type C   : 11s6p2d1f contracted to 5s3p2d1f pattern {62111/411/11/1}
 Group   2 Type O   : 11s6p2d1f contracted to 5s3p2d1f pattern {62111/411/11/1}
 Group   3 Type H   : 5s1p contracted to 3s1p pattern {311/1}
 Group   4 Type N   : 11s6p2d1f contracted to 5s3p2d1f pattern {62111/411/11/1}

Atom   0C    basis set group =>   1
Atom   1C    basis set group =>   1
Atom   2C    basis set group =>   1
Atom   3C    basis set group =>   1
Atom   4C    basis set group =>   1
Atom   5C    basis set group =>   1
Atom   6O    basis set group =>   2
Atom   7H    basis set group =>   3
Atom   8H    basis set group =>   3
Atom   9H    basis set group =>   3
Atom  10N    basis set group =>   4
Atom  11H    basis set group =>   3
Atom  12O    basis set group =>   2
Atom  13N    basis set group =>   4
Atom  14H    basis set group =>   3
---------------------------------
AUXILIARY/J BASIS SET INFORMATION
---------------------------------
There are 4 groups of distinct atoms

 Group   1 Type C   : 12s5p4d2f1g contracted to 6s4p3d1f1g pattern {711111/2111/211/2/1}
 Group   2 Type O   : 12s5p4d2f1g contracted to 6s4p3d1f1g pattern {711111/2111/211/2/1}
 Group   3 Type H   : 5s2p1d contracted to 3s1p1d pattern {311/2/1}
 Group   4 Type N   : 12s5p4d2f1g contracted to 6s4p3d1f1g pattern {711111/2111/211/2/1}

Atom   0C    basis set group =>   1
Atom   1C    basis set group =>   1
Atom   2C    basis set group =>   1
Atom   3C    basis set group =>   1
Atom   4C    basis set group =>   1
Atom   5C    basis set group =>   1
Atom   6O    basis set group =>   2
Atom   7H    basis set group =>   3
Atom   8H    basis set group =>   3
Atom   9H    basis set group =>   3
Atom  10N    basis set group =>   4
Atom  11H    basis set group =>   3
Atom  12O    basis set group =>   2
Atom  13N    basis set group =>   4
Atom  14H    basis set group =>   3
------------------------------------------------------------------------------
                           ORCA GTO INTEGRAL CALCULATION
                           -- RI-GTO INTEGRALS CHOSEN --
------------------------------------------------------------------------------
------------------------------------------------------------------------------
                   ___                                                        
                  /   \      - P O W E R E D   B Y -                         
                 /     \                                                     
                 |  |  |   _    _      __       _____    __    __             
                 |  |  |  | |  | |    /  \     |  _  \  |  |  /  |          
                  \  \/   | |  | |   /    \    | | | |  |  | /  /          
                 / \  \   | |__| |  /  /\  \   | |_| |  |  |/  /          
                |  |  |   |  __  | /  /__\  \  |    /   |      \           
                |  |  |   | |  | | |   __   |  |    \   |  |\   \          
                \     /   | |  | | |  |  |  |  | |\  \  |  | \   \       
                 \___/    |_|  |_| |__|  |__|  |_| \__\ |__|  \__/        
                                                                              
                      - O R C A' S   B I G   F R I E N D -                    
                                      &                                       
                       - I N T E G R A L  F E E D E R -                       
                                                                              
 v1 FN, 2020, v2 2021                                                         
------------------------------------------------------------------------------


Reading SHARK input file inp.SHARKINP.tmp ... ok
----------------------
SHARK INTEGRAL PACKAGE
----------------------

Number of atoms                             ...     15
Number of basis functions                   ...    340
Number of shells                            ...    130
Maximum angular momentum                    ...      3
Integral batch strategy                     ... SHARK/LIBINT Hybrid
RI-J (if used) integral strategy            ... SPLIT-RIJ (Revised 2003 algorithm where possible)
Printlevel                                  ...      1
Contraction scheme used                     ... SEGMENTED contraction
Coulomb Range Separation                    ... NOT USED
Exchange Range Separation                   ... NOT USED
Finite Nucleus Model                        ... NOT USED
Auxiliary Coulomb fitting basis             ... AVAILABLE
   # of basis functions in Aux-J            ...    545
   # of shells in Aux-J                     ...    175
   Maximum angular momentum in Aux-J        ...      4
Auxiliary J/K fitting basis                 ... NOT available
Auxiliary Correlation fitting basis         ... NOT available
Auxiliary 'external' fitting basis          ... NOT available
Integral threshold                          ...     2.500000e-11
Primitive cut-off                           ...     2.500000e-12
Primitive pair pre-selection threshold      ...     2.500000e-12

Calculating pre-screening integrals         ... done (  0.1 sec) Dimension = 130
Organizing shell pair data                  ... done (  0.3 sec)
Shell pair information
Total number of shell pairs                 ...      8515
Shell pairs after pre-screening             ...      7479
Total number of primitive shell pairs       ...     26800
Primitive shell pairs kept                  ...     17310
          la=0 lb=0:   1788 shell pairs
          la=1 lb=0:   2050 shell pairs
          la=1 lb=1:    591 shell pairs
          la=2 lb=0:   1131 shell pairs
          la=2 lb=1:    642 shell pairs
          la=2 lb=2:    187 shell pairs
          la=3 lb=0:    545 shell pairs
          la=3 lb=1:    322 shell pairs
          la=3 lb=2:    175 shell pairs
          la=3 lb=3:     48 shell pairs

Calculating one electron integrals          ... done (  0.0 sec)
Calculating RI/J V-Matrix + Cholesky decomp.... done (  0.3 sec)
Calculating Nuclear repulsion               ... done (  0.1 sec) ENN=    488.353969867534 Eh

SHARK setup successfully completed in   1.9 seconds

Maximum memory used throughout the entire GTOINT-calculation: 124.0 MB
-------------------------------------------------------------------------------
                                 ORCA SCF
-------------------------------------------------------------------------------

------------
SCF SETTINGS
------------
Hamiltonian:
 Density Functional     Method          .... DFT(GTOs)
 Exchange Functional    Exchange        .... PBE
   PBE kappa parameter   XKappa         ....  0.804000
   PBE mue parameter    XMuePBE         ....  0.219520
 Correlation Functional Correlation     .... PBE
   PBE beta parameter  CBetaPBE         ....  0.066725
 LDA part of GGA corr.  LDAOpt          .... PW91-LDA
 Gradients option       PostSCFGGA      .... off
   Density functional embedding theory  .... OFF
   NL short-range parameter             ....  6.400000
 RI-approximation to the Coulomb term is turned on
   Number of AuxJ basis functions       .... 545


General Settings:
 Integral files         IntName         .... inp
 Hartree-Fock type      HFTyp           .... RHF
 Total Charge           Charge          ....   -1
 Multiplicity           Mult            ....    1
 Number of Electrons    NEL             ....   72
 Basis Dimension        Dim             ....  340
 Nuclear Repulsion      ENuc            ....    488.3539698675 Eh

Convergence Acceleration:
 DIIS                   CNVDIIS         .... on
   Start iteration      DIISMaxIt       ....    12
   Startup error        DIISStart       ....  0.200000
   # of expansion vecs  DIISMaxEq       ....     5
   Bias factor          DIISBfac        ....   1.050
   Max. coefficient     DIISMaxC        ....  10.000
 Trust-Rad. Augm. Hess. CNVTRAH         .... auto
   Auto Start mean grad. ratio tolernc. ....  1.125000
   Auto Start start iteration           ....    20
   Auto Start num. interpolation iter.  ....    10
   Max. Number of Micro iterations      ....    16
   Max. Number of Macro iterations      .... Maxiter - #DIIS iter
   Number of Davidson start vectors     ....     2
   Converg. threshold I  (grad. norm)   ....   1.000e-05
   Converg. threshold II (energy diff.) ....   1.000e-08
   Grad. Scal. Fac. for Micro threshold ....   0.100
   Minimum threshold for Micro iter.    ....   0.010
   NR start threshold (gradient norm)   ....   0.001
   Initial trust radius                 ....   0.400
   Minimum AH scaling param. (alpha)    ....   1.000
   Maximum AH scaling param. (alpha)    .... 1000.000
   Orbital update algorithm             .... Taylor
   White noise on init. David. guess    .... on
   Maximum white noise                  ....   0.010
   Quad. conv. algorithm                .... NR
 SOSCF                  CNVSOSCF        .... on
   Start iteration      SOSCFMaxIt      ....   150
   Startup grad/error   SOSCFStart      ....  0.003300
 Level Shifting         CNVShift        .... on
   Level shift para.    LevelShift      ....    0.2500
   Turn off err/grad.   ShiftErr        ....    0.0010
 Zerner damping         CNVZerner       .... off
 Static damping         CNVDamp         .... on
   Fraction old density DampFac         ....    0.7000
   Max. Damping (<1)    DampMax         ....    0.9800
   Min. Damping (>=0)   DampMin         ....    0.0000
   Turn off err/grad.   DampErr         ....    0.1000
 Fernandez-Rico         CNVRico         .... off

SCF Procedure:
 Maximum # iterations   MaxIter         ....   125
 SCF integral mode      SCFMode         .... Direct
   Integral package                     .... SHARK and LIBINT hybrid scheme
 Reset frequency        DirectResetFreq ....    20
 Integral Threshold     Thresh          ....  2.500e-11 Eh
 Primitive CutOff       TCut            ....  2.500e-12 Eh

Convergence Tolerance:
 Convergence Check Mode ConvCheckMode   .... Total+1el-Energy
 Convergence forced     ConvForced      .... 0
 Energy Change          TolE            ....  1.000e-08 Eh
 1-El. energy change                    ....  1.000e-05 Eh
 Orbital Gradient       TolG            ....  1.000e-05
 Orbital Rotation angle TolX            ....  1.000e-05
 DIIS Error             TolErr          ....  5.000e-07


Diagonalization of the overlap matrix:
Smallest eigenvalue                        ... 8.344e-06
Time for diagonalization                   ...    0.017 sec
Threshold for overlap eigenvalues          ... 1.000e-08
Number of eigenvalues below threshold      ... 0
Time for construction of square roots      ...    0.080 sec
Total time needed                          ...    0.097 sec

Time for model grid setup =    0.446 sec

------------------------------
INITIAL GUESS: MODEL POTENTIAL
------------------------------
Loading Hartree-Fock densities                     ... done
Calculating cut-offs                               ... done
Initializing the effective Hamiltonian             ... done
Setting up the integral package (SHARK)            ... done
Starting the Coulomb interaction                   ... done (   0.6 sec)
Reading the grid                                   ... done
Mapping shells                                     ... done
Starting the XC term evaluation                    ... done (   0.6 sec)
  promolecular density results
     # of electrons  =     70.990387407
     EX              =    -61.580707901
     EC              =     -2.395861954
     EX+EC           =    -63.976569855
Transforming the Hamiltonian                       ... done (   0.0 sec)
Diagonalizing the Hamiltonian                      ... done (   0.0 sec)
Back transforming the eigenvectors                 ... done (   0.0 sec)
Now organizing SCF variables                       ... done
                      ------------------
                      INITIAL GUESS DONE (   1.7 sec)
                      ------------------
-------------------
DFT GRID GENERATION
-------------------

General Integration Accuracy     IntAcc      ... 4.388
Radial Grid Type                 RadialGrid  ... OptM3 with GC (2021)
Angular Grid (max. ang.)         AngularGrid ... 4 (Lebedev-302)
Angular grid pruning method      GridPruning ... 4 (adaptive)
Weight generation scheme         WeightScheme... Becke
Basis function cutoff            BFCut       ... 1.0000e-11
Integration weight cutoff        WCut        ... 1.0000e-14
Angular grids for H and He will be reduced by one unit
Partially contracted basis set               ... off
Rotationally invariant grid construction     ... off

Total number of grid points                  ...    76578
Total number of batches                      ...     1203
Average number of points per batch           ...       63
Average number of grid points per atom       ...     5105
Time for grid setup =    1.306 sec


--------------------
CPCM SOLVATION MODEL
--------------------
CPCM parameters:
  Epsilon                                         ...      80.4000
  Refrac                                          ...       1.3300
  Rsolv                                           ...       1.3000
  Surface type                                    ... GAUSSIAN VDW
  Epsilon function type                           ...         CPCM
Radii:
 Radius for C  used is    3.8550 Bohr (=   2.0400 Ang.)
 Radius for O  used is    3.4469 Bohr (=   1.8240 Ang.)
 Radius for H  used is    2.4944 Bohr (=   1.3200 Ang.)
 Radius for N  used is    3.5149 Bohr (=   1.8600 Ang.)
Calculating surface                               ...        done! (  0.0s)
GEPOL surface points                              ...          872
GEPOL Volume                                      ...    1052.8279
GEPOL Surface-area                                ...     590.0657
Calculating surface distance matrix               ...        done! (  0.0s)
Performing Cholesky decomposition & store         ...        done! (  0.2s)
Overall time for CPCM initialization              ...                 0.2s
--------------
SCF ITERATIONS
--------------
ITER       Energy         Delta-E        Max-DP      RMS-DP      [F,P]     Damp
               ***  Starting incremental Fock matrix formation  ***
  0   -490.6717848707   0.000000000000 0.25050059  0.00469099  0.3470754 0.7000
  1   -490.9247844656  -0.252999594909 0.17620757  0.00361266  0.1221909 0.7000
                               ***Turning on DIIS***
  2   -490.9899036236  -0.065119157955 0.16874246  0.00364838  0.0372038 0.0000
  3   -491.1222349167  -0.132331293069 0.17150961  0.00336906  0.0841059 0.0000
  4   -491.1477700092  -0.025535092529 0.03448107  0.00102693  0.0329217 0.0000
  5   -491.1534461284  -0.005676119232 0.02609858  0.00051772  0.0083514 0.0000
  6   -491.1538777055  -0.000431577047 0.00727645  0.00021242  0.0048380 0.0000
                      *** Initiating the SOSCF procedure ***
                           *** Shutting down DIIS ***
                      *** Re-Reading the Fockian *** 
                      *** Removing any level shift *** 
ITER      Energy       Delta-E        Grad      Rot      Max-DP    RMS-DP
  7   -491.15399507  -0.0001173665  0.000631  0.000631  0.003708  0.000087
               *** Restarting incremental Fock matrix formation ***
  8   -491.15401974  -0.0000246667  0.000386  0.002572  0.002759  0.000063
  9   -491.15402253  -0.0000027905  0.000483  0.004148  0.001804  0.000050
 10   -491.15402248   0.0000000518  0.000639  0.004294  0.001222  0.000036
 11   -491.15402541  -0.0000029320  0.000277  0.000519  0.001828  0.000030
 12   -491.15402485   0.0000005624  0.000298  0.000861  0.001398  0.000024
 13   -491.15402719  -0.0000023416  0.000084  0.000266  0.000336  0.000008
 14   -491.15402697   0.0000002224  0.000109  0.000440  0.000250  0.000006
 15   -491.15402742  -0.0000004497  0.000034  0.000126  0.000220  0.000005
 16   -491.15402737   0.0000000441  0.000045  0.000081  0.000187  0.000004
 17   -491.15402744  -0.0000000687  0.000024  0.000106  0.000099  0.000002
 18   -491.15402741   0.0000000266  0.000060  0.000077  0.000075  0.000002
                  ***Gradient check signals convergence***
              ***Rediagonalizing the Fockian in SOSCF/NRSCF***

               *****************************************************
               *                     SUCCESS                       *
               *           SCF CONVERGED AFTER  19 CYCLES          *
               *****************************************************


----------------
TOTAL SCF ENERGY
----------------

Total Energy       :         -491.15402744 Eh          -13364.98055 eV

Components:
Nuclear Repulsion  :          488.35396987 Eh           13288.78711 eV
Electronic Energy  :         -979.50799731 Eh          -26653.76766 eV
One Electron Energy:        -1649.85753579 Eh          -44894.90596 eV
Two Electron Energy:          670.34953848 Eh           18241.13830 eV
CPCM Dielectric    :           -0.08466277 Eh              -2.30379 eV

Virial components:
Potential Energy   :         -981.54394591 Eh          -26709.16864 eV
Kinetic Energy     :          490.38991846 Eh           13344.18809 eV
Virial Ratio       :            2.00155817


DFT components:
N(Alpha)           :       35.999982259293 electrons
N(Beta)            :       35.999982259293 electrons
N(Total)           :       71.999964518585 electrons
E(X)               :      -62.848432834002 Eh       
E(C)               :       -2.438042310212 Eh       
E(XC)              :      -65.286475144214 Eh       
DFET-embed. en.    :        0.000000000000 Eh       
CPCM Solvation Model Properties:
Surface-charge          :            0.97039835
Charge-correction       :           -0.00369293 Eh              -0.10049 eV
Free-energy (cav+disp)  :  This term is not implemented in the current solvation scheme

---------------
SCF CONVERGENCE
---------------

  Last Energy change         ...   -2.8089e-08  Tolerance :   1.0000e-08
  Last MAX-Density change    ...    1.0782e-04  Tolerance :   1.0000e-07
  Last RMS-Density change    ...    2.3838e-06  Tolerance :   5.0000e-09
  Last Orbital Gradient      ...    2.0744e-06  Tolerance :   1.0000e-05
  Last Orbital Rotation      ...    6.8120e-06  Tolerance :   1.0000e-05

             **** THE GBW FILE WAS UPDATED (inp.gbw) ****
             **** DENSITY inp.scfp WAS UPDATED ****
             **** ENERGY FILE WAS UPDATED (inp.en.tmp) ****
             **** THE GBW FILE WAS UPDATED (inp.gbw) ****
             **** DENSITY inp.scfp WAS UPDATED ****
----------------
ORBITAL ENERGIES
----------------

  NO   OCC          E(Eh)            E(eV) 
   0   2.0000     -18.737764      -509.8805 
   1   2.0000     -18.736820      -509.8548 
   2   2.0000     -14.160071      -385.3151 
   3   2.0000     -13.884502      -377.8165 
   4   2.0000      -9.894640      -269.2468 
   5   2.0000      -9.872915      -268.6557 
   6   2.0000      -9.872725      -268.6505 
   7   2.0000      -9.870590      -268.5924 
   8   2.0000      -9.849481      -268.0180 
   9   2.0000      -9.843257      -267.8487 
  10   2.0000      -1.087702       -29.5979 
  11   2.0000      -0.925775       -25.1916 
  12   2.0000      -0.839908       -22.8550 
  13   2.0000      -0.752542       -20.4777 
  14   2.0000      -0.667729       -18.1698 
  15   2.0000      -0.652342       -17.7511 
  16   2.0000      -0.568387       -15.4666 
  17   2.0000      -0.535289       -14.5660 
  18   2.0000      -0.505245       -13.7484 
  19   2.0000      -0.474118       -12.9014 
  20   2.0000      -0.460249       -12.5240 
  21   2.0000      -0.444413       -12.0931 
  22   2.0000      -0.432929       -11.7806 
  23   2.0000      -0.396220       -10.7817 
  24   2.0000      -0.376749       -10.2519 
  25   2.0000      -0.359922        -9.7940 
  26   2.0000      -0.349817        -9.5190 
  27   2.0000      -0.322909        -8.7868 
  28   2.0000      -0.296816        -8.0768 
  29   2.0000      -0.273132        -7.4323 
  30   2.0000      -0.248530        -6.7628 
  31   2.0000      -0.234898        -6.3919 
  32   2.0000      -0.215557        -5.8656 
  33   2.0000      -0.215264        -5.8576 
  34   2.0000      -0.142444        -3.8761 
  35   2.0000      -0.126907        -3.4533 
  36   0.0000      -0.071193        -1.9373 
  37   0.0000      -0.027007        -0.7349 
  38   0.0000       0.041684         1.1343 
  39   0.0000       0.047542         1.2937 
  40   0.0000       0.061477         1.6729 
  41   0.0000       0.074764         2.0344 
  42   0.0000       0.086042         2.3413 
  43   0.0000       0.091671         2.4945 
  44   0.0000       0.119164         3.2426 
  45   0.0000       0.134713         3.6657 
  46   0.0000       0.137322         3.7367 
  47   0.0000       0.145258         3.9527 
  48   0.0000       0.185397         5.0449 
  49   0.0000       0.187327         5.0974 
  50   0.0000       0.196779         5.3546 
  51   0.0000       0.208047         5.6612 
  52   0.0000       0.219663         5.9773 
  53   0.0000       0.223129         6.0717 
  54   0.0000       0.226872         6.1735 
  55   0.0000       0.249117         6.7788 
  56   0.0000       0.254912         6.9365 
  57   0.0000       0.284774         7.7491 
  58   0.0000       0.299788         8.1577 
  59   0.0000       0.302026         8.2186 
  60   0.0000       0.302187         8.2229 
  61   0.0000       0.306149         8.3308 
  62   0.0000       0.314278         8.5519 
  63   0.0000       0.345422         9.3994 
  64   0.0000       0.354444         9.6449 
  65   0.0000       0.360475         9.8090 
  66   0.0000       0.369177        10.0458 
  67   0.0000       0.371878        10.1193 
  68   0.0000       0.379183        10.3181 
  69   0.0000       0.382438        10.4067 
  70   0.0000       0.399675        10.8757 
  71   0.0000       0.403581        10.9820 
  72   0.0000       0.413616        11.2551 
  73   0.0000       0.441145        12.0042 
  74   0.0000       0.441425        12.0118 
  75   0.0000       0.445056        12.1106 
  76   0.0000       0.456181        12.4133 
  77   0.0000       0.468771        12.7559 
  78   0.0000       0.474998        12.9254 
  79   0.0000       0.476986        12.9794 
  80   0.0000       0.509287        13.8584 
  81   0.0000       0.510865        13.9013 
  82   0.0000       0.513309        13.9678 
  83   0.0000       0.528383        14.3780 
  84   0.0000       0.548127        14.9153 
  85   0.0000       0.590226        16.0609 
  86   0.0000       0.591843        16.1049 
  87   0.0000       0.598169        16.2770 
  88   0.0000       0.608532        16.5590 
  89   0.0000       0.610533        16.6135 
  90   0.0000       0.630188        17.1483 
  91   0.0000       0.635650        17.2969 
  92   0.0000       0.663134        18.0448 
  93   0.0000       0.682063        18.5599 
  94   0.0000       0.705376        19.1942 
  95   0.0000       0.716736        19.5034 
  96   0.0000       0.723716        19.6933 
  97   0.0000       0.739923        20.1343 
  98   0.0000       0.754049        20.5187 
  99   0.0000       0.770484        20.9659 
 100   0.0000       0.776053        21.1175 
 101   0.0000       0.817517        22.2458 
 102   0.0000       0.831854        22.6359 
 103   0.0000       0.850396        23.1405 
 104   0.0000       0.855150        23.2698 
 105   0.0000       0.866554        23.5801 
 106   0.0000       0.914219        24.8772 
 107   0.0000       0.951035        25.8790 
 108   0.0000       0.967302        26.3216 
 109   0.0000       0.970178        26.3999 
 110   0.0000       1.000599        27.2277 
 111   0.0000       1.002885        27.2899 
 112   0.0000       1.012812        27.5600 
 113   0.0000       1.025797        27.9133 
 114   0.0000       1.033872        28.1331 
 115   0.0000       1.057037        28.7634 
 116   0.0000       1.119580        30.4653 
 117   0.0000       1.136923        30.9372 
 118   0.0000       1.153890        31.3990 
 119   0.0000       1.163040        31.6479 
 120   0.0000       1.176571        32.0161 
 121   0.0000       1.183687        32.2098 
 122   0.0000       1.188910        32.3519 
 123   0.0000       1.251230        34.0477 
 124   0.0000       1.251498        34.0550 
 125   0.0000       1.260102        34.2891 
 126   0.0000       1.299336        35.3567 
 127   0.0000       1.312899        35.7258 
 128   0.0000       1.326091        36.0848 
 129   0.0000       1.337565        36.3970 
 130   0.0000       1.356102        36.9014 
 131   0.0000       1.360572        37.0230 
 132   0.0000       1.388504        37.7831 
 133   0.0000       1.389360        37.8064 
 134   0.0000       1.430522        38.9265 
 135   0.0000       1.443123        39.2694 
 136   0.0000       1.452190        39.5161 
 137   0.0000       1.480804        40.2947 
 138   0.0000       1.487834        40.4860 
 139   0.0000       1.489702        40.5369 
 140   0.0000       1.532970        41.7142 
 141   0.0000       1.543621        42.0041 
 142   0.0000       1.566462        42.6256 
 143   0.0000       1.569049        42.6960 
 144   0.0000       1.579577        42.9825 
 145   0.0000       1.633679        44.4547 
 146   0.0000       1.640946        44.6524 
 147   0.0000       1.656324        45.0709 
 148   0.0000       1.680393        45.7258 
 149   0.0000       1.708755        46.4976 
 150   0.0000       1.713693        46.6319 
 151   0.0000       1.728440        47.0332 
 152   0.0000       1.761779        47.9405 
 153   0.0000       1.761912        47.9441 
 154   0.0000       1.787525        48.6410 
 155   0.0000       1.828001        49.7424 
 156   0.0000       1.853612        50.4393 
 157   0.0000       1.859134        50.5896 
 158   0.0000       1.890928        51.4548 
 159   0.0000       1.934677        52.6452 
 160   0.0000       1.951313        53.0979 
 161   0.0000       1.971791        53.6552 
 162   0.0000       1.978007        53.8243 
 163   0.0000       1.983882        53.9842 
 164   0.0000       2.010565        54.7103 
 165   0.0000       2.029267        55.2192 
 166   0.0000       2.052337        55.8469 
 167   0.0000       2.052898        55.8622 
 168   0.0000       2.074779        56.4576 
 169   0.0000       2.097201        57.0677 
 170   0.0000       2.107516        57.3484 
 171   0.0000       2.118823        57.6561 
 172   0.0000       2.127907        57.9033 
 173   0.0000       2.150002        58.5045 
 174   0.0000       2.214745        60.2663 
 175   0.0000       2.216442        60.3125 
 176   0.0000       2.269405        61.7536 
 177   0.0000       2.273332        61.8605 
 178   0.0000       2.309059        62.8327 
 179   0.0000       2.311657        62.9034 
 180   0.0000       2.404295        65.4242 
 181   0.0000       2.412263        65.6410 
 182   0.0000       2.448621        66.6304 
 183   0.0000       2.468205        67.1633 
 184   0.0000       2.475778        67.3693 
 185   0.0000       2.506131        68.1953 
 186   0.0000       2.522405        68.6381 
 187   0.0000       2.558215        69.6126 
 188   0.0000       2.571431        69.9722 
 189   0.0000       2.572413        69.9989 
 190   0.0000       2.595590        70.6296 
 191   0.0000       2.596622        70.6577 
 192   0.0000       2.625907        71.4546 
 193   0.0000       2.634064        71.6765 
 194   0.0000       2.639263        71.8180 
 195   0.0000       2.647019        72.0291 
 196   0.0000       2.660461        72.3948 
 197   0.0000       2.670548        72.6693 
 198   0.0000       2.700087        73.4731 
 199   0.0000       2.722226        74.0755 
 200   0.0000       2.749875        74.8279 
 201   0.0000       2.752307        74.8941 
 202   0.0000       2.762453        75.1702 
 203   0.0000       2.797075        76.1123 
 204   0.0000       2.806300        76.3633 
 205   0.0000       2.813605        76.5621 
 206   0.0000       2.823831        76.8404 
 207   0.0000       2.847036        77.4718 
 208   0.0000       2.892134        78.6990 
 209   0.0000       2.910876        79.2089 
 210   0.0000       2.936923        79.9177 
 211   0.0000       2.944539        80.1250 
 212   0.0000       2.986267        81.2605 
 213   0.0000       3.004246        81.7497 
 214   0.0000       3.024744        82.3075 
 215   0.0000       3.052132        83.0527 
 216   0.0000       3.071576        83.5818 
 217   0.0000       3.078814        83.7788 
 218   0.0000       3.080524        83.8253 
 219   0.0000       3.090807        84.1051 
 220   0.0000       3.103045        84.4381 
 221   0.0000       3.140493        85.4572 
 222   0.0000       3.142459        85.5106 
 223   0.0000       3.163025        86.0703 
 224   0.0000       3.182909        86.6114 
 225   0.0000       3.192178        86.8636 
 226   0.0000       3.205584        87.2284 
 227   0.0000       3.243841        88.2694 
 228   0.0000       3.253421        88.5301 
 229   0.0000       3.270350        88.9907 
 230   0.0000       3.282046        89.3090 
 231   0.0000       3.308886        90.0394 
 232   0.0000       3.311809        90.1189 
 233   0.0000       3.330279        90.6215 
 234   0.0000       3.383291        92.0640 
 235   0.0000       3.385672        92.1288 
 236   0.0000       3.389151        92.2235 
 237   0.0000       3.406719        92.7015 
 238   0.0000       3.419063        93.0374 
 239   0.0000       3.426247        93.2329 
 240   0.0000       3.456731        94.0624 
 241   0.0000       3.486114        94.8620 
 242   0.0000       3.547071        96.5207 
 243   0.0000       3.577123        97.3385 
 244   0.0000       3.604287        98.0776 
 245   0.0000       3.631726        98.8243 
 246   0.0000       3.655864        99.4811 
 247   0.0000       3.679710       100.1300 
 248   0.0000       3.713676       101.0543 
 249   0.0000       3.741011       101.7981 
 250   0.0000       3.792882       103.2096 
 251   0.0000       3.813469       103.7698 
 252   0.0000       3.842697       104.5651 
 253   0.0000       3.890808       105.8743 
 254   0.0000       3.896297       106.0236 
 255   0.0000       3.906798       106.3094 
 256   0.0000       3.924307       106.7858 
 257   0.0000       3.934882       107.0736 
 258   0.0000       3.959942       107.7555 
 259   0.0000       3.982579       108.3715 
 260   0.0000       4.022699       109.4632 
 261   0.0000       4.029654       109.6525 
 262   0.0000       4.050564       110.2215 
 263   0.0000       4.071688       110.7963 
 264   0.0000       4.097313       111.4936 
 265   0.0000       4.165322       113.3442 
 266   0.0000       4.189621       114.0054 
 267   0.0000       4.194196       114.1299 
 268   0.0000       4.229461       115.0895 
 269   0.0000       4.247505       115.5805 
 270   0.0000       4.259695       115.9122 
 271   0.0000       4.375474       119.0627 
 272   0.0000       4.412875       120.0804 
 273   0.0000       4.452432       121.1568 
 274   0.0000       4.480858       121.9303 
 275   0.0000       4.490421       122.1906 
 276   0.0000       4.561822       124.1335 
 277   0.0000       4.585282       124.7719 
 278   0.0000       4.604866       125.3048 
 279   0.0000       4.605410       125.3196 
 280   0.0000       4.620381       125.7270 
 281   0.0000       4.664239       126.9204 
 282   0.0000       4.724318       128.5552 
 283   0.0000       4.763899       129.6323 
 284   0.0000       4.769463       129.7837 
 285   0.0000       4.799200       130.5929 
 286   0.0000       4.828688       131.3953 
 287   0.0000       4.832704       131.5046 
 288   0.0000       4.864623       132.3731 
 289   0.0000       4.890203       133.0692 
 290   0.0000       4.904893       133.4689 
 291   0.0000       4.936601       134.3318 
 292   0.0000       4.989723       135.7773 
 293   0.0000       5.003334       136.1476 
 294   0.0000       5.044495       137.2677 
 295   0.0000       5.050146       137.4215 
 296   0.0000       5.060690       137.7084 
 297   0.0000       5.084089       138.3451 
 298   0.0000       5.195428       141.3748 
 299   0.0000       5.207890       141.7139 
 300   0.0000       5.234249       142.4311 
 301   0.0000       5.322789       144.8405 
 302   0.0000       5.326478       144.9408 
 303   0.0000       5.389043       146.6433 
 304   0.0000       5.466797       148.7591 
 305   0.0000       5.491389       149.4283 
 306   0.0000       5.522609       150.2778 
 307   0.0000       5.589691       152.1032 
 308   0.0000       5.598948       152.3551 
 309   0.0000       5.651863       153.7950 
 310   0.0000       5.691621       154.8769 
 311   0.0000       5.829655       158.6330 
 312   0.0000       5.895052       160.4125 
 313   0.0000       6.126604       166.7134 
 314   0.0000       6.172401       167.9596 
 315   0.0000       6.198757       168.6767 
 316   0.0000       6.251342       170.1077 
 317   0.0000       6.292650       171.2317 
 318   0.0000       6.296831       171.3455 
 319   0.0000       6.325739       172.1321 
 320   0.0000       6.618269       180.0922 
 321   0.0000       6.651705       181.0021 
 322   0.0000       6.742242       183.4657 
 323   0.0000       6.760903       183.9735 
 324   0.0000       6.808824       185.2775 
 325   0.0000       7.004429       190.6002 
 326   0.0000       7.137463       194.2202 
 327   0.0000       7.266613       197.7346 
 328   0.0000       7.434575       202.3051 
 329   0.0000       7.477352       203.4691 
 330   0.0000      22.060155       600.2873 
 331   0.0000      22.365057       608.5842 
 332   0.0000      22.466254       611.3378 
 333   0.0000      22.607146       615.1717 
 334   0.0000      22.833737       621.3376 
 335   0.0000      23.422480       637.3581 
 336   0.0000      32.131921       874.3540 
 337   0.0000      32.169789       875.3845 
 338   0.0000      43.699188      1189.1153 
 339   0.0000      43.724348      1189.8000 

                    ********************************
                    * MULLIKEN POPULATION ANALYSIS *
                    ********************************

-----------------------
MULLIKEN ATOMIC CHARGES
-----------------------
   0 C :    0.303577
   1 C :   -0.377229
   2 C :   -0.247447
   3 C :    0.141711
   4 C :   -0.256420
   5 C :   -0.260183
   6 O :   -0.420427
   7 H :    0.080327
   8 H :    0.077982
   9 H :    0.112766
  10 N :    0.335814
  11 H :    0.104489
  12 O :   -0.414645
  13 N :   -0.477745
  14 H :    0.297429
Sum of atomic charges:   -1.0000000

--------------------------------
MULLIKEN REDUCED ORBITAL CHARGES
--------------------------------
  0 C s       :     3.012172  s :     3.012172
      pz      :     0.770182  p :     2.471236
      px      :     0.962986
      py      :     0.738068
      dz2     :     0.042829  d :     0.197099
      dxz     :     0.042468
      dyz     :     0.027933
      dx2y2   :     0.037932
      dxy     :     0.045937
      f0      :     0.001292  f :     0.015916
      f+1     :     0.004288
      f-1     :     0.000967
      f+2     :     0.002395
      f-2     :     0.002388
      f+3     :     0.001774
      f-3     :     0.002811
  1 C s       :     3.327240  s :     3.327240
      pz      :     1.007573  p :     2.965008
      px      :     0.969194
      py      :     0.988242
      dz2     :     0.017869  d :     0.078252
      dxz     :     0.018959
      dyz     :     0.013052
      dx2y2   :     0.012016
      dxy     :     0.016355
      f0      :     0.001089  f :     0.006728
      f+1     :     0.001203
      f-1     :     0.000468
      f+2     :     0.001220
      f-2     :     0.001267
      f+3     :     0.000799
      f-3     :     0.000683
  2 C s       :     3.273406  s :     3.273406
      pz      :     0.948919  p :     2.870368
      px      :     0.962733
      py      :     0.958716
      dz2     :     0.015170  d :     0.096700
      dxz     :     0.017437
      dyz     :     0.016043
      dx2y2   :     0.028032
      dxy     :     0.020017
      f0      :     0.000257  f :     0.006973
      f+1     :     0.001300
      f-1     :     0.001127
      f+2     :     0.000958
      f-2     :     0.001094
      f+3     :     0.000808
      f-3     :     0.001428
  3 C s       :     3.055278  s :     3.055278
      pz      :     0.868909  p :     2.662029
      px      :     0.859577
      py      :     0.933543
      dz2     :     0.025893  d :     0.129956
      dxz     :     0.026515
      dyz     :     0.026026
      dx2y2   :     0.033560
      dxy     :     0.017963
      f0      :     0.001228  f :     0.011026
      f+1     :     0.001814
      f-1     :     0.001243
      f+2     :     0.001978
      f-2     :     0.001725
      f+3     :     0.001283
      f-3     :     0.001755
  4 C s       :     3.292544  s :     3.292544
      pz      :     0.944535  p :     2.866331
      px      :     0.965239
      py      :     0.956557
      dz2     :     0.024363  d :     0.090840
      dxz     :     0.022806
      dyz     :     0.012010
      dx2y2   :     0.010766
      dxy     :     0.020894
      f0      :     0.000942  f :     0.006706
      f+1     :     0.001342
      f-1     :     0.000633
      f+2     :     0.000876
      f-2     :     0.001246
      f+3     :     0.001036
      f-3     :     0.000631
  5 C s       :     3.304606  s :     3.304606
      pz      :     0.940579  p :     2.875467
      px      :     0.975923
      py      :     0.958965
      dz2     :     0.014714  d :     0.073546
      dxz     :     0.012691
      dyz     :     0.011870
      dx2y2   :     0.015552
      dxy     :     0.018719
      f0      :     0.000310  f :     0.006565
      f+1     :     0.001410
      f-1     :     0.000746
      f+2     :     0.000687
      f-2     :     0.001270
      f+3     :     0.001013
      f-3     :     0.001129
  6 O s       :     3.845195  s :     3.845195
      pz      :     1.631096  p :     4.533083
      px      :     1.573117
      py      :     1.328870
      dz2     :     0.005186  d :     0.039091
      dxz     :     0.006004
      dyz     :     0.007830
      dx2y2   :     0.009262
      dxy     :     0.010808
      f0      :     0.000308  f :     0.003058
      f+1     :     0.000221
      f-1     :     0.000387
      f+2     :     0.000303
      f-2     :     0.000700
      f+3     :     0.000628
      f-3     :     0.000511
  7 H s       :     0.897781  s :     0.897781
      pz      :     0.010515  p :     0.021892
      px      :     0.004808
      py      :     0.006569
  8 H s       :     0.899787  s :     0.899787
      pz      :     0.005719  p :     0.022231
      px      :     0.006935
      py      :     0.009576
  9 H s       :     0.864936  s :     0.864936
      pz      :     0.010549  p :     0.022297
      px      :     0.005210
      py      :     0.006538
 10 N s       :     3.262514  s :     3.262514
      pz      :     1.030428  p :     3.154481
      px      :     1.085957
      py      :     1.038096
      dz2     :     0.053140  d :     0.233909
      dxz     :     0.047783
      dyz     :     0.044029
      dx2y2   :     0.052008
      dxy     :     0.036949
      f0      :     0.001813  f :     0.013282
      f+1     :     0.002164
      f-1     :     0.002023
      f+2     :     0.002041
      f-2     :     0.001901
      f+3     :     0.001285
      f-3     :     0.002054
 11 H s       :     0.873311  s :     0.873311
      pz      :     0.005305  p :     0.022200
      px      :     0.007671
      py      :     0.009224
 12 O s       :     3.839154  s :     3.839154
      pz      :     1.284183  p :     4.533310
      px      :     1.732463
      py      :     1.516665
      dz2     :     0.012449  d :     0.039122
      dxz     :     0.007257
      dyz     :     0.011941
      dx2y2   :     0.003227
      dxy     :     0.004248
      f0      :     0.000647  f :     0.003058
      f+1     :     0.000367
      f-1     :     0.000844
      f+2     :     0.000449
      f-2     :     0.000530
      f+3     :     0.000126
      f-3     :     0.000095
 13 N s       :     3.233905  s :     3.233905
      pz      :     1.518519  p :     4.204237
      px      :     1.088738
      py      :     1.596980
      dz2     :     0.007510  d :     0.034599
      dxz     :     0.008142
      dyz     :     0.003275
      dx2y2   :     0.005842
      dxy     :     0.009831
      f0      :     0.000313  f :     0.005004
      f+1     :     0.001314
      f-1     :     0.000149
      f+2     :     0.000791
      f-2     :     0.000773
      f+3     :     0.000896
      f-3     :     0.000769
 14 H s       :     0.660119  s :     0.660119
      pz      :     0.013997  p :     0.042453
      px      :     0.015603
      py      :     0.012853


                     *******************************
                     * LOEWDIN POPULATION ANALYSIS *
                     *******************************

----------------------
LOEWDIN ATOMIC CHARGES
----------------------
   0 C :   -0.525000
   1 C :   -0.160258
   2 C :   -0.153787
   3 C :   -0.245572
   4 C :   -0.154821
   5 C :   -0.136774
   6 O :   -0.150180
   7 H :    0.138688
   8 H :    0.135712
   9 H :    0.144987
  10 N :   -0.080358
  11 H :    0.142097
  12 O :   -0.148797
  13 N :    0.020471
  14 H :    0.173590

-------------------------------
LOEWDIN REDUCED ORBITAL CHARGES
-------------------------------
  0 C s       :     2.656280  s :     2.656280
      pz      :     0.961680  p :     2.842550
      px      :     0.975008
      py      :     0.905862
      dz2     :     0.202398  d :     0.892152
      dxz     :     0.197980
      dyz     :     0.122469
      dx2y2   :     0.145423
      dxy     :     0.223882
      f0      :     0.010759  f :     0.134018
      f+1     :     0.033425
      f-1     :     0.012162
      f+2     :     0.023940
      f-2     :     0.015658
      f+3     :     0.014459
      f-3     :     0.023616
  1 C s       :     2.770141  s :     2.770141
      pz      :     1.011814  p :     2.973706
      px      :     0.985639
      py      :     0.976254
      dz2     :     0.075966  d :     0.374152
      dxz     :     0.107020
      dyz     :     0.062005
      dx2y2   :     0.057221
      dxy     :     0.071940
      f0      :     0.006349  f :     0.042258
      f+1     :     0.008077
      f-1     :     0.005391
      f+2     :     0.007770
      f-2     :     0.005929
      f+3     :     0.003938
      f-3     :     0.004805
  2 C s       :     2.773519  s :     2.773519
      pz      :     0.962363  p :     2.942207
      px      :     1.008404
      py      :     0.971440
      dz2     :     0.057003  d :     0.395224
      dxz     :     0.080451
      dyz     :     0.069090
      dx2y2   :     0.107498
      dxy     :     0.081181
      f0      :     0.002490  f :     0.042837
      f+1     :     0.007927
      f-1     :     0.005961
      f+2     :     0.006869
      f-2     :     0.005451
      f+3     :     0.005039
      f-3     :     0.009101
  3 C s       :     2.726048  s :     2.726048
      pz      :     0.986128  p :     2.910226
      px      :     0.891831
      py      :     1.032266
      dz2     :     0.103729  d :     0.544678
      dxz     :     0.122606
      dyz     :     0.098584
      dx2y2   :     0.122702
      dxy     :     0.097057
      f0      :     0.007480  f :     0.064620
      f+1     :     0.010889
      f-1     :     0.007155
      f+2     :     0.011885
      f-2     :     0.008662
      f+3     :     0.008060
      f-3     :     0.010490
  4 C s       :     2.774171  s :     2.774171
      pz      :     0.972933  p :     2.949134
      px      :     1.029751
      py      :     0.946450
      dz2     :     0.100977  d :     0.389387
      dxz     :     0.087116
      dyz     :     0.058718
      dx2y2   :     0.046278
      dxy     :     0.096298
      f0      :     0.006255  f :     0.042129
      f+1     :     0.008047
      f-1     :     0.004692
      f+2     :     0.007005
      f-2     :     0.005223
      f+3     :     0.005603
      f-3     :     0.005306
  5 C s       :     2.775829  s :     2.775829
      pz      :     0.962380  p :     2.950282
      px      :     1.030916
      py      :     0.956986
      dz2     :     0.062488  d :     0.369103
      dxz     :     0.078763
      dyz     :     0.056161
      dx2y2   :     0.078570
      dxy     :     0.093121
      f0      :     0.002485  f :     0.041560
      f+1     :     0.008498
      f-1     :     0.004483
      f+2     :     0.006908
      f-2     :     0.005668
      f+3     :     0.005410
      f-3     :     0.008107
  6 O s       :     3.508751  s :     3.508751
      pz      :     1.591937  p :     4.533713
      px      :     1.551103
      py      :     1.390673
      dz2     :     0.012757  d :     0.097179
      dxz     :     0.014057
      dyz     :     0.020324
      dx2y2   :     0.021104
      dxy     :     0.028938
      f0      :     0.001061  f :     0.010537
      f+1     :     0.000705
      f-1     :     0.001325
      f+2     :     0.001008
      f-2     :     0.002454
      f+3     :     0.002198
      f-3     :     0.001786
  7 H s       :     0.801240  s :     0.801240
      pz      :     0.028223  p :     0.060072
      px      :     0.013527
      py      :     0.018322
  8 H s       :     0.803618  s :     0.803618
      pz      :     0.015824  p :     0.060669
      px      :     0.019070
      py      :     0.025775
  9 H s       :     0.793500  s :     0.793500
      pz      :     0.028749  p :     0.061513
      px      :     0.014469
      py      :     0.018294
 10 N s       :     2.937219  s :     2.937219
      pz      :     1.103105  p :     3.329730
      px      :     1.131387
      py      :     1.095238
      dz2     :     0.157922  d :     0.745592
      dxz     :     0.147709
      dyz     :     0.164728
      dx2y2   :     0.151016
      dxy     :     0.124218
      f0      :     0.009156  f :     0.067816
      f+1     :     0.012239
      f-1     :     0.010332
      f+2     :     0.010147
      f-2     :     0.008249
      f+3     :     0.006777
      f-3     :     0.010917
 11 H s       :     0.796532  s :     0.796532
      pz      :     0.015220  p :     0.061371
      px      :     0.020791
      py      :     0.025360
 12 O s       :     3.508618  s :     3.508618
      pz      :     1.366271  p :     4.532739
      px      :     1.653116
      py      :     1.513352
      dz2     :     0.029492  d :     0.096943
      dxz     :     0.018432
      dyz     :     0.031616
      dx2y2   :     0.007805
      dxy     :     0.009598
      f0      :     0.002008  f :     0.010497
      f+1     :     0.001340
      f-1     :     0.003087
      f+2     :     0.001643
      f-2     :     0.001810
      f+3     :     0.000332
      f-3     :     0.000277
 13 N s       :     2.939343  s :     2.939343
      pz      :     1.321591  p :     3.851977
      px      :     1.196904
      py      :     1.333481
      dz2     :     0.032744  d :     0.161236
      dxz     :     0.045250
      dyz     :     0.010900
      dx2y2   :     0.026015
      dxy     :     0.046326
      f0      :     0.002526  f :     0.026972
      f+1     :     0.005844
      f-1     :     0.000465
      f+2     :     0.005773
      f-2     :     0.003646
      f+3     :     0.003846
      f-3     :     0.004873
 14 H s       :     0.702827  s :     0.702827
      pz      :     0.040119  p :     0.123583
      px      :     0.047664
      py      :     0.035801


                      *****************************
                      * MAYER POPULATION ANALYSIS *
                      *****************************

  NA   - Mulliken gross atomic population
  ZA   - Total nuclear charge
  QA   - Mulliken gross atomic charge
  VA   - Mayer's total valence
  BVA  - Mayer's bonded valence
  FA   - Mayer's free valence

  ATOM       NA         ZA         QA         VA         BVA        FA
  0 C      5.6964     6.0000     0.3036     3.4082     3.4082    -0.0000
  1 C      6.3772     6.0000    -0.3772     4.1791     4.1791     0.0000
  2 C      6.2474     6.0000    -0.2474     3.9973     3.9973     0.0000
  3 C      5.8583     6.0000     0.1417     3.5117     3.5117     0.0000
  4 C      6.2564     6.0000    -0.2564     3.9725     3.9725    -0.0000
  5 C      6.2602     6.0000    -0.2602     4.1070     4.1070     0.0000
  6 O      8.4204     8.0000    -0.4204     1.8672     1.8672    -0.0000
  7 H      0.9197     1.0000     0.0803     1.0184     1.0184     0.0000
  8 H      0.9220     1.0000     0.0780     1.0193     1.0193     0.0000
  9 H      0.8872     1.0000     0.1128     1.0124     1.0124     0.0000
 10 N      6.6642     7.0000     0.3358     4.3047     4.3047    -0.0000
 11 H      0.8955     1.0000     0.1045     1.0090     1.0090    -0.0000
 12 O      8.4146     8.0000    -0.4146     1.8792     1.8792     0.0000
 13 N      7.4777     7.0000    -0.4777     2.7541     2.7541    -0.0000
 14 H      0.7026     1.0000     0.2974     0.9359     0.9359    -0.0000

  Mayer bond orders larger than 0.100000
B(  0-C ,  1-C ) :   1.1970 B(  0-C ,  5-C ) :   1.0455 B(  0-C , 13-N ) :   1.2265 
B(  1-C ,  2-C ) :   1.4674 B(  1-C ,  5-C ) :   0.1340 B(  1-C ,  8-H ) :   1.0120 
B(  1-C , 13-N ) :   0.1788 B(  2-C ,  3-C ) :   1.3373 B(  2-C ,  9-H ) :   0.9623 
B(  3-C ,  4-C ) :   1.1176 B(  3-C , 10-N ) :   1.1319 B(  4-C ,  5-C ) :   1.6895 
B(  4-C , 11-H ) :   0.9617 B(  5-C ,  7-H ) :   0.9886 B(  5-C , 13-N ) :   0.1216 
B(  6-O , 10-N ) :   1.5278 B(  6-O , 12-O ) :   0.1210 B( 10-N , 12-O ) :   1.5348 
B( 13-N , 14-H ) :   0.8998 

-------
TIMINGS
-------

Total SCF time: 0 days 0 hours 1 min 34 sec 

Total time                  ....      94.676 sec
Sum of individual times     ....      89.829 sec  ( 94.9%)

Fock matrix formation       ....      85.434 sec  ( 90.2%)
  Split-RI-J                ....      17.700 sec  ( 20.7% of F)
  XC integration            ....      40.841 sec  ( 47.8% of F)
    Basis function eval.    ....      11.843 sec  ( 29.0% of XC)
    Density eval.           ....      10.426 sec  ( 25.5% of XC)
    XC-Functional eval.     ....       1.407 sec  (  3.4% of XC)
    XC-Potential eval.      ....      12.599 sec  ( 30.8% of XC)
Diagonalization             ....       0.189 sec  (  0.2%)
Density matrix formation    ....       0.027 sec  (  0.0%)
Population analysis         ....       0.249 sec  (  0.3%)
Initial guess               ....       1.281 sec  (  1.4%)
Orbital Transformation      ....       0.000 sec  (  0.0%)
Orbital Orthonormalization  ....       0.000 sec  (  0.0%)
DIIS solution               ....       0.332 sec  (  0.4%)
SOSCF solution              ....       0.565 sec  (  0.6%)
Grid generation             ....       1.752 sec  (  1.9%)

Maximum memory used throughout the entire SCF-calculation: 149.6 MB


-------------------------------------------------------------------------------
                          DFT DISPERSION CORRECTION                            
                                                                               
                              DFTD3 V3.1  Rev 1                                
                          USING Becke-Johnson damping                          
-------------------------------------------------------------------------------
The PBE functional is recognized
Active option DFTDOPT                   ...         4   

molecular C6(AA) [au] = 2920.279918 


            DFT-D V3
 parameters
 s6 scaling factor         :     1.0000 
 a1 scaling factor         :     0.4289 
 s8 scaling factor         :     0.7875 
 a2 scaling factor         :     4.4407 
 ad hoc parameters k1-k3   :    16.0000     1.3333    -4.0000 

 Edisp/kcal,au: -10.139494802662  -0.016158311771 
 E6   /kcal   :  -7.059523868 
 E8   /kcal   :  -3.079970935 
 % E8         :  30.375980210 

-------------------------   ----------------
Dispersion correction           -0.016158312
-------------------------   ----------------


-------------------------   --------------------
FINAL SINGLE POINT ENERGY      -491.170185753854
-------------------------   --------------------

------------------------------------------------------------------------------
                         ORCA SCF GRADIENT CALCULATION
------------------------------------------------------------------------------

Gradient of the Kohn-Sham DFT energy:
Kohn-Sham wavefunction type      ... RKS
Hartree-Fock exchange scaling    ...    0.000
Number of operators              ...    1
Number of atoms                  ...   15
Basis set dimensions             ...  340
Integral neglect threshold       ... 2.5e-11
Integral primitive cutoff        ... 2.5e-12
SHARK Integral package           ... ON

Nuc. rep. gradient       (SHARK) ... done (  0.0 sec)
HCore & Overlap gradient (SHARK) ... done (  0.6 sec)
RI-J gradient            (SHARK) ... done (  4.0 sec)
Exchange-correlation gradient    ... done
Dispersion correction            ... done

------------------
CARTESIAN GRADIENT
------------------

   1   C   :    0.229347986    0.098505765    0.079851192
   2   C   :    0.109137774   -0.018771893    0.114822687
   3   C   :   -0.077788491   -0.050263704   -0.007399851
   4   C   :    0.045862510    0.041759364   -0.009855299
   5   C   :    0.020501334    0.000054940    0.017395366
   6   C   :    0.031386056    0.014226716    0.010101687
   7   O   :    0.023339846    0.019063217   -0.002561477
   8   H   :   -0.003907328    0.000045365   -0.003425773
   9   H   :   -0.004049478   -0.001569715   -0.001585084
  10   H   :    0.005392150    0.001815362    0.002464721
  11   N   :   -0.055017239   -0.011040828   -0.033883525
  12   H   :    0.005082058    0.002914257    0.000988579
  13   O   :    0.013917907   -0.006907700    0.019935465
  14   N   :   -0.360280019   -0.094990257   -0.195325460
  15   H   :    0.017074933    0.005159112    0.008476774

Difference to translation invariance:
           :    0.0000000000    0.0000000000   -0.0000000000

Difference to rotation invariance:
           :    0.0000903311   -0.0006557857   -0.0000616913

Norm of the cartesian gradient     ...    0.5404223208
RMS gradient                       ...    0.0805614031
MAX gradient                       ...    0.3602800189

-------
TIMINGS
-------

Total SCF gradient time            ...       19.754 sec

One electron gradient       ....       0.581 sec  (  2.9%)
RI-J Coulomb gradient       ....       3.977 sec  ( 20.1%)
XC gradient                 ....      12.865 sec  ( 65.1%)
CPCM gradient               ....       0.910 sec  (  4.6%)
   A-Matrix (El+Nuc)        ....       0.047 sec  (  0.2%)
   Potential                ....       0.862 sec  (  4.4%)

Maximum memory used throughout the entire SCFGRAD-calculation: 147.6 MB
------------------------------------------------------------------------------
                         ORCA GEOMETRY RELAXATION STEP
------------------------------------------------------------------------------

Reading the OPT-File                    .... done
Getting information on internals        .... done
Copying old internal coords+grads       .... done
Making the new internal coordinates     .... (new redundants).... done
Validating the new internal coordinates .... (new redundants).... done
Calculating the B-matrix                .... done
Calculating the G,G- and P matrices     .... done
Transforming gradient to internals      .... done
Projecting the internal gradient        .... done
Number of atoms                         ....  15
Number of internal coordinates          ....  66
Current Energy                          ....  -491.170185754 Eh
Current gradient norm                   ....     0.540422321 Eh/bohr
Maximum allowed component of the step   ....  0.300
Current trust radius                    ....  0.300
Evaluating the initial hessian          ....  (Almloef) done
Projecting the Hessian                  .... done
Forming the augmented Hessian           .... done
Diagonalizing the augmented Hessian     .... done
Last element of RFO vector              ....  0.949684634
Lowest eigenvalues of augmented Hessian:
 -0.132797556  0.014190204  0.014190238  0.020121242  0.020968288
Length of the computed step             ....  0.329801852
Warning: the length of the step is outside the trust region - taking restricted step instead
The input lambda is                     ....    -0.132798
   iter:   1  x=   -0.218749  g=    0.218371 f(x)=     0.018769
   iter:   2  x=   -0.234404  g=    0.163087 f(x)=     0.002553
   iter:   3  x=   -0.234798  g=    0.155351 f(x)=     0.000061
   iter:   4  x=   -0.234799  g=    0.155163 f(x)=     0.000000
   iter:   5  x=   -0.234799  g=    0.155163 f(x)=     0.000000
   iter:   6  x=   -0.234799  g=    0.155163 f(x)=     0.000000
The output lambda is                    ....    -0.234799 (6 iterations)
The final length of the internal step   ....  0.300000000
Converting the step to cartesian space:
 Initial RMS(Int)=    0.0369274473
Transforming coordinates:
 Iter   0:  RMS(Cart)=    0.0649313089 RMS(Int)=    2.0465154953
 Iter   1:  RMS(Cart)=    0.0052056552 RMS(Int)=    0.7734126834
 Iter   2:  RMS(Cart)=    0.0000623992 RMS(Int)=    0.0000355774
 Iter   3:  RMS(Cart)=    0.0000050292 RMS(Int)=    0.0000030042
 Iter   4:  RMS(Cart)=    0.0000004439 RMS(Int)=    0.0000002643
 Iter   5:  RMS(Cart)=    0.0000000402 RMS(Int)=    0.0000000248
done
Storing new coordinates                 .... done

                                .--------------------.
          ----------------------|Geometry convergence|-------------------------
          Item                value                   Tolerance       Converged
          ---------------------------------------------------------------------
          RMS gradient        0.0534242329            0.0001000000      NO
          MAX gradient        0.4009404255            0.0003000000      NO
          RMS step            0.0369274473            0.0020000000      NO
          MAX step            0.2250532275            0.0040000000      NO
          ........................................................
          Max(Bonds)      0.1191      Max(Angles)    3.90
          Max(Dihed)        0.01      Max(Improp)    0.00
          ---------------------------------------------------------------------

The optimization has not yet converged - more geometry cycles are needed


    ---------------------------------------------------------------------------
                         Redundant Internal Coordinates
                            (Angstroem and degrees)

[...]
MULLIKEN REDUCED ORBITAL CHARGES
--------------------------------
  0 C s       :     3.030213  s :     3.030213
      pz      :     0.840427  p :     2.668643
      px      :     0.944778
      py      :     0.883438
      dz2     :     0.036778  d :     0.159875
      dxz     :     0.026039
      dyz     :     0.026581
      dx2y2   :     0.032094
      dxy     :     0.038383
      f0      :     0.001218  f :     0.012570
      f+1     :     0.002561
      f-1     :     0.001106
      f+2     :     0.001893
      f-2     :     0.001876
      f+3     :     0.001752
      f-3     :     0.002163
  1 C s       :     3.316169  s :     3.316169
      pz      :     0.957060  p :     2.831980
      px      :     0.918858
      py      :     0.956061
      dz2     :     0.018655  d :     0.081040
      dxz     :     0.020069
      dyz     :     0.011923
      dx2y2   :     0.011971
      dxy     :     0.018422
      f0      :     0.000851  f :     0.006605
      f+1     :     0.001325
      f-1     :     0.000579
      f+2     :     0.001011
      f-2     :     0.001237
      f+3     :     0.000953
      f-3     :     0.000649
  2 C s       :     3.269985  s :     3.269985
      pz      :     0.955388  p :     2.839730
      px      :     0.934990
      py      :     0.949352
      dz2     :     0.015974  d :     0.097453
      dxz     :     0.020042
      dyz     :     0.013579
      dx2y2   :     0.025689
      dxy     :     0.022170
      f0      :     0.000238  f :     0.006890
      f+1     :     0.001469
      f-1     :     0.000918
      f+2     :     0.000808
      f-2     :     0.001206
      f+3     :     0.000986
      f-3     :     0.001265
  3 C s       :     3.050838  s :     3.050838
      pz      :     0.893916  p :     2.669453
      px      :     0.849591
      py      :     0.925946
      dz2     :     0.026746  d :     0.131475
      dxz     :     0.026173
      dyz     :     0.026038
      dx2y2   :     0.032626
      dxy     :     0.019892
      f0      :     0.001339  f :     0.011935
      f+1     :     0.002026
      f-1     :     0.001160
      f+2     :     0.002072
      f-2     :     0.001903
      f+3     :     0.001551
      f-3     :     0.001884
  4 C s       :     3.261555  s :     3.261555
      pz      :     0.940816  p :     2.849473
      px      :     0.952062
      py      :     0.956594
      dz2     :     0.024780  d :     0.096542
      dxz     :     0.022793
      dyz     :     0.013734
      dx2y2   :     0.012889
      dxy     :     0.022346
      f0      :     0.001097  f :     0.006924
      f+1     :     0.001307
      f-1     :     0.000578
      f+2     :     0.000972
      f-2     :     0.001253
      f+3     :     0.001075
      f-3     :     0.000641
  5 C s       :     3.262440  s :     3.262440
      pz      :     0.997228  p :     2.910366
      px      :     0.943585
      py      :     0.969554
      dz2     :     0.014484  d :     0.081096
      dxz     :     0.016109
      dyz     :     0.012791
      dx2y2   :     0.017984
      dxy     :     0.019729
      f0      :     0.000285  f :     0.006459
      f+1     :     0.001311
      f-1     :     0.000770
      f+2     :     0.000714
      f-2     :     0.001253
      f+3     :     0.001050
      f-3     :     0.001077
  6 O s       :     3.860554  s :     3.860554
      pz      :     1.636510  p :     4.537159
      px      :     1.573295
      py      :     1.327354
      dz2     :     0.004779  d :     0.036790
      dxz     :     0.005749
      dyz     :     0.007511
      dx2y2   :     0.008498
      dxy     :     0.010253
      f0      :     0.000301  f :     0.002861
      f+1     :     0.000198
      f-1     :     0.000349
      f+2     :     0.000280
      f-2     :     0.000680
      f+3     :     0.000597
      f-3     :     0.000456
  7 H s       :     0.854084  s :     0.854084
      pz      :     0.010443  p :     0.021777
      px      :     0.004812
      py      :     0.006522
  8 H s       :     0.890925  s :     0.890925
      pz      :     0.005644  p :     0.021819
      px      :     0.006770
      py      :     0.009405
  9 H s       :     0.856160  s :     0.856160
      pz      :     0.010744  p :     0.022237
      px      :     0.005478
      py      :     0.006014
 10 N s       :     3.260332  s :     3.260332
      pz      :     1.022535  p :     3.150648
      px      :     1.081836
      py      :     1.046278
      dz2     :     0.053002  d :     0.229571
      dxz     :     0.045641
      dyz     :     0.044044
      dx2y2   :     0.049497
      dxy     :     0.037387
      f0      :     0.001680  f :     0.012672
      f+1     :     0.002181
      f-1     :     0.001880
      f+2     :     0.001999
      f-2     :     0.001695
      f+3     :     0.001301
      f-3     :     0.001937
 11 H s       :     0.853082  s :     0.853082
      pz      :     0.005264  p :     0.022265
      px      :     0.007626
      py      :     0.009374
 12 O s       :     3.861035  s :     3.861035
      pz      :     1.267224  p :     4.536699
      px      :     1.717097
      py      :     1.552378
      dz2     :     0.011864  d :     0.036813
      dxz     :     0.007526
      dyz     :     0.010727
      dx2y2   :     0.002689
      dxy     :     0.004006
      f0      :     0.000602  f :     0.002863
      f+1     :     0.000442
      f-1     :     0.000736
      f+2     :     0.000360
      f-2     :     0.000532
      f+3     :     0.000110
      f-3     :     0.000082
 13 N s       :     3.487719  s :     3.487719
      pz      :     1.189661  p :     3.952122
      px      :     1.316671
      py      :     1.445789
      dz2     :     0.005722  d :     0.040034
      dxz     :     0.007438
      dyz     :     0.008235
      dx2y2   :     0.009612
      dxy     :     0.009026
      f0      :     0.000089  f :     0.002276
      f+1     :     0.000483
      f-1     :     0.000343
      f+2     :     0.000423
      f-2     :     0.000341
      f+3     :     0.000362
      f-3     :     0.000234
 14 H s       :     0.753026  s :     0.753026
      pz      :     0.014426  p :     0.034766
      px      :     0.008479
      py      :     0.011861


                     *******************************
                     * LOEWDIN POPULATION ANALYSIS *
                     *******************************

----------------------
LOEWDIN ATOMIC CHARGES
----------------------
   0 C :   -0.333506
   1 C :   -0.147427
   2 C :   -0.141835
   3 C :   -0.239651
   4 C :   -0.141264
   5 C :   -0.152255
   6 O :   -0.174386
   7 H :    0.148146
   8 H :    0.144635
   9 H :    0.152137
  10 N :   -0.042094
  11 H :    0.152040
  12 O :   -0.173823
  13 N :   -0.197450
  14 H :    0.146734

-------------------------------
LOEWDIN REDUCED ORBITAL CHARGES
-------------------------------
  0 C s       :     2.736756  s :     2.736756
      pz      :     0.950422  p :     2.852487
      px      :     0.961787
      py      :     0.940278
      dz2     :     0.135643  d :     0.668318
      dxz     :     0.140075
      dyz     :     0.103089
      dx2y2   :     0.135519
      dxy     :     0.153993
      f0      :     0.007313  f :     0.075945
      f+1     :     0.016095
      f-1     :     0.008105
      f+2     :     0.013268
      f-2     :     0.007992
      f+3     :     0.009465
      f-3     :     0.013707
  1 C s       :     2.777655  s :     2.777655
      pz      :     0.988850  p :     2.969936
      px      :     1.021205
      py      :     0.959882
      dz2     :     0.076155  d :     0.360655
      dxz     :     0.095482
      dyz     :     0.057230
      dx2y2   :     0.051877
      dxy     :     0.079911
      f0      :     0.005007  f :     0.039181
      f+1     :     0.007617
      f-1     :     0.004580
      f+2     :     0.007091
      f-2     :     0.004982
      f+3     :     0.004877
      f-3     :     0.005026
  2 C s       :     2.770580  s :     2.770580
      pz      :     0.963794  p :     2.936656
      px      :     1.020642
      py      :     0.952221
      dz2     :     0.060171  d :     0.391869
      dxz     :     0.086557
      dyz     :     0.059190
      dx2y2   :     0.097291
      dxy     :     0.088660
      f0      :     0.002447  f :     0.042731
      f+1     :     0.008584
      f-1     :     0.005193
      f+2     :     0.007073
      f-2     :     0.005402
      f+3     :     0.005294
      f-3     :     0.008738
  3 C s       :     2.717929  s :     2.717929
      pz      :     0.995920  p :     2.899362
      px      :     0.896259
      py      :     1.007184
      dz2     :     0.106888  d :     0.554289
      dxz     :     0.126255
      dyz     :     0.097720
      dx2y2   :     0.121317
      dxy     :     0.102109
      f0      :     0.007758  f :     0.068071
      f+1     :     0.011987
      f-1     :     0.007406
      f+2     :     0.012278
      f-2     :     0.008664
      f+3     :     0.008755
      f-3     :     0.011223
  4 C s       :     2.770839  s :     2.770839
      pz      :     0.975387  p :     2.935048
      px      :     1.015441
      py      :     0.944220
      dz2     :     0.097530  d :     0.392567
      dxz     :     0.091401
      dyz     :     0.062528
      dx2y2   :     0.050901
      dxy     :     0.090206
      f0      :     0.006891  f :     0.042810
      f+1     :     0.007860
      f-1     :     0.004945
      f+2     :     0.007088
      f-2     :     0.005106
      f+3     :     0.005823
      f-3     :     0.005098
  5 C s       :     2.779075  s :     2.779075
      pz      :     0.972440  p :     2.971210
      px      :     1.026242
      py      :     0.972527
      dz2     :     0.061882  d :     0.362882
      dxz     :     0.076306
      dyz     :     0.057607
      dx2y2   :     0.076786
      dxy     :     0.090301
      f0      :     0.002368  f :     0.039088
      f+1     :     0.007720
      f-1     :     0.004243
      f+2     :     0.006323
      f-2     :     0.005416
      f+3     :     0.005335
      f-3     :     0.007682
  6 O s       :     3.531286  s :     3.531286
      pz      :     1.604735  p :     4.543522
      px      :     1.551714
      py      :     1.387072
      dz2     :     0.011491  d :     0.090127
      dxz     :     0.013334
      dyz     :     0.019554
      dx2y2   :     0.018850
      dxy     :     0.026898
      f0      :     0.000998  f :     0.009452
      f+1     :     0.000600
      f-1     :     0.001141
      f+2     :     0.000906
      f-2     :     0.002298
      f+3     :     0.001998
      f-3     :     0.001511
  7 H s       :     0.792327  s :     0.792327
      pz      :     0.028049  p :     0.059528
      px      :     0.013467
      py      :     0.018012
  8 H s       :     0.795794  s :     0.795794
      pz      :     0.015811  p :     0.059571
      px      :     0.018381
      py      :     0.025378
  9 H s       :     0.786864  s :     0.786864
      pz      :     0.029005  p :     0.060999
      px      :     0.015001
      py      :     0.016993
 10 N s       :     2.933278  s :     2.933278
      pz      :     1.096659  p :     3.327556
      px      :     1.139683
      py      :     1.091214
      dz2     :     0.154361  d :     0.717386
      dxz     :     0.142098
      dyz     :     0.155117
      dx2y2   :     0.142222
      dxy     :     0.123586
      f0      :     0.008300  f :     0.063875
      f+1     :     0.011961
      f-1     :     0.009846
      f+2     :     0.010094
      f-2     :     0.007017
      f+3     :     0.006540
      f-3     :     0.010117
 11 H s       :     0.786917  s :     0.786917
      pz      :     0.015116  p :     0.061043
      px      :     0.020390
      py      :     0.025537
 12 O s       :     3.531090  s :     3.531090
      pz      :     1.350944  p :     4.543103
      px      :     1.650529
      py      :     1.541630
      dz2     :     0.027812  d :     0.090170
      dxz     :     0.019053
      dyz     :     0.027988
      dx2y2   :     0.006405
      dxy     :     0.008912
      f0      :     0.001793  f :     0.009460
      f+1     :     0.001527
      f-1     :     0.002612
      f+2     :     0.001294
      f-2     :     0.001732
      f+3     :     0.000278
      f-3     :     0.000224
 13 N s       :     3.187634  s :     3.187634
      pz      :     1.185822  p :     3.874771
      px      :     1.334817
      py      :     1.354132
      dz2     :     0.023396  d :     0.123668
      dxz     :     0.027839
      dyz     :     0.022143
      dx2y2   :     0.023164
      dxy     :     0.027125
      f0      :     0.000786  f :     0.011378
      f+1     :     0.001777
      f-1     :     0.001831
      f+2     :     0.002139
      f-2     :     0.001227
      f+3     :     0.001672
      f-3     :     0.001945
 14 H s       :     0.746528  s :     0.746528
      pz      :     0.043913  p :     0.106738
      px      :     0.023582
      py      :     0.039243


                      *****************************
                      * MAYER POPULATION ANALYSIS *
                      *****************************

  NA   - Mulliken gross atomic population
  ZA   - Total nuclear charge
  QA   - Mulliken gross atomic charge
  VA   - Mayer's total valence
  BVA  - Mayer's bonded valence
  FA   - Mayer's free valence

  ATOM       NA         ZA         QA         VA         BVA        FA
  0 C      5.8713     6.0000     0.1287     4.1556     4.1556    -0.0000
  1 C      6.2358     6.0000    -0.2358     4.0131     4.0131    -0.0000
  2 C      6.2141     6.0000    -0.2141     4.0014     4.0014     0.0000
  3 C      5.8637     6.0000     0.1363     3.6483     3.6483    -0.0000
  4 C      6.2145     6.0000    -0.2145     3.9292     3.9292    -0.0000
  5 C      6.2604     6.0000    -0.2604     3.8544     3.8544     0.0000
  6 O      8.4374     8.0000    -0.4374     1.8442     1.8442    -0.0000
  7 H      0.8759     1.0000     0.1241     0.9685     0.9685    -0.0000
  8 H      0.9127     1.0000     0.0873     1.0140     1.0140     0.0000
  9 H      0.8784     1.0000     0.1216     1.0132     1.0132     0.0000
 10 N      6.6532     7.0000     0.3468     4.2469     4.2469    -0.0000
 11 H      0.8753     1.0000     0.1247     1.0153     1.0153     0.0000
 12 O      8.4374     8.0000    -0.4374     1.8429     1.8429    -0.0000
 13 N      7.4822     7.0000    -0.4822     3.0613     3.0613     0.0000
 14 H      0.7878     1.0000     0.2122     0.9371     0.9371     0.0000

  Mayer bond orders larger than 0.100000
B(  0-C ,  1-C ) :   1.1827 B(  0-C ,  5-C ) :   1.1465 B(  0-C , 13-N ) :   1.8000 
B(  1-C ,  2-C ) :   1.6305 B(  1-C ,  8-H ) :   0.9844 B(  2-C ,  3-C ) :   1.2146 
B(  2-C ,  9-H ) :   0.9554 B(  3-C ,  4-C ) :   1.2217 B(  3-C , 10-N ) :   1.1998 
B(  4-C ,  5-C ) :   1.5371 B(  4-C , 11-H ) :   0.9382 B(  5-C ,  7-H ) :   0.9691 
B(  6-O , 10-N ) :   1.4793 B(  6-O , 12-O ) :   0.1196 B( 10-N , 12-O ) :   1.4778 
B( 13-N , 14-H ) :   0.9299 

-------
TIMINGS
-------

Total SCF time: 0 days 0 hours 0 min 35 sec 

Total time                  ....      35.216 sec
Sum of individual times     ....      32.189 sec  ( 91.4%)

Fock matrix formation       ....      30.562 sec  ( 86.8%)
  Split-RI-J                ....       6.416 sec  ( 21.0% of F)
  XC integration            ....      14.014 sec  ( 45.9% of F)
    Basis function eval.    ....       4.433 sec  ( 31.6% of XC)
    Density eval.           ....       3.819 sec  ( 27.3% of XC)
    XC-Functional eval.     ....       0.533 sec  (  3.8% of XC)
    XC-Potential eval.      ....       3.704 sec  ( 26.4% of XC)
Diagonalization             ....       0.023 sec  (  0.1%)
Density matrix formation    ....       0.012 sec  (  0.0%)
Population analysis         ....       0.060 sec  (  0.2%)
Initial guess               ....       0.027 sec  (  0.1%)
Orbital Transformation      ....       0.000 sec  (  0.0%)
Orbital Orthonormalization  ....       0.022 sec  (  0.1%)
DIIS solution               ....       0.006 sec  (  0.0%)
SOSCF solution              ....       0.247 sec  (  0.7%)
Grid generation             ....       1.252 sec  (  3.6%)

Maximum memory used throughout the entire SCF-calculation: 149.1 MB


-------------------------------------------------------------------------------
                          DFT DISPERSION CORRECTION                            
                                                                               
                              DFTD3 V3.1  Rev 1                                
                          USING Becke-Johnson damping                          
-------------------------------------------------------------------------------
The PBE functional is recognized
Active option DFTDOPT                   ...         4   

molecular C6(AA) [au] = 2946.636082 


            DFT-D V3
 parameters
 s6 scaling factor         :     1.0000 
 a1 scaling factor         :     0.4289 
 s8 scaling factor         :     0.7875 
 a2 scaling factor         :     4.4407 
 ad hoc parameters k1-k3   :    16.0000     1.3333    -4.0000 

 Edisp/kcal,au: -10.156519743507  -0.016185442738 
 E6   /kcal   :  -7.075050557 
 E8   /kcal   :  -3.081469187 
 % E8         :  30.339813879 

-------------------------   ----------------
Dispersion correction           -0.016185443
-------------------------   ----------------


-------------------------   --------------------
FINAL SINGLE POINT ENERGY      -491.306083000970
-------------------------   --------------------

                                *** OPTIMIZATION RUN DONE ***

                            ***************************************
                            *     ORCA property calculations      *
                            ***************************************

                                    ---------------------
                                    Active property flags
                                    ---------------------
   (+) Dipole Moment


------------------------------------------------------------------------------
                       ORCA ELECTRIC PROPERTIES CALCULATION
------------------------------------------------------------------------------

Dipole Moment Calculation                       ... on
Quadrupole Moment Calculation                   ... off
Polarizability Calculation                      ... off
GBWName                                         ... inp.gbw
Electron density                                ... inp.scfp
The origin for moment calculation is the CENTER OF MASS  = (-7.486249, -6.426748  1.154627)

-------------
DIPOLE MOMENT
-------------
                                X             Y             Z
Electronic contribution:     -5.06651      -1.45814      -2.60121
Nuclear contribution   :      5.50980       1.12788       3.36506
                        -----------------------------------------
Total Dipole Moment    :      0.44329      -0.33025       0.76384
                        -----------------------------------------
Magnitude (a.u.)       :      0.94288
Magnitude (Debye)      :      2.39662



--------------------
Rotational spectrum 
--------------------
 
Rotational constants in cm-1:     0.128996     0.028008     0.023011 
Rotational constants in MHz :  3867.205992   839.647279   689.864475 

 Dipole components along the rotational axes: 
x,y,z [a.u.] :    -0.622407    -0.708262     0.001116 
x,y,z [Debye]:    -1.582034    -1.800259     0.002837 

 

Timings for individual modules:

Sum of individual times         ...     1558.894 sec (=  25.982 min)
GTO integral calculation        ...       31.167 sec (=   0.519 min)   2.0 %
SCF iterations                  ...     1198.918 sec (=  19.982 min)  76.9 %
SCF Gradient evaluation         ...      325.768 sec (=   5.429 min)  20.9 %
Geometry relaxation             ...        3.041 sec (=   0.051 min)   0.2 %
                             ****ORCA TERMINATED NORMALLY****
TOTAL RUN TIME: 0 days 0 hours 26 minutes 10 seconds 330 msec
