 Entering Gaussian System
 *********************************************
 Gaussian 98:
 frequency output generated by the xtb code
 *********************************************
                         Standard orientation:
 --------------------------------------------------------------------
  Center     Atomic     Atomic              Coordinates (Angstroms)
  Number     Number      Type              X           Y           Z
 --------------------------------------------------------------------
    1          8             0       -1.219827    4.344620   -1.336077
    2          6             0       -1.483849    3.376620   -0.478300
    3          1             0       -2.342827    2.710297   -0.790701
    4          1             0       -0.618638    2.668342   -0.307100
    5          1             0       -1.764902    3.743773    0.554118
 --------------------------------------------------------------------
     1 basis functions        1 primitive gaussians
     1 alpha electrons        1 beta electrons
 
 Harmonic frequencies (cm**-1), IR intensities (km*mol⁻¹),
 Raman scattering activities (A**4/amu), Raman depolarization ratios,
 reduced masses (AMU), force constants (mDyne/A) and normal coordinates:
                      1                      2                      3
                        a                      a                      a 
 Frequencies --  1101.2474              1175.5739              1175.7539
 Red. masses --    13.6650                 4.4314                 4.4335
 Frc consts  --     0.0000                 0.0000                 0.0000
 IR Inten    --   575.7600                65.0612                65.7998
 Raman Activ --     0.0000                 0.0000                 0.0000
 Depolar     --     0.0000                 0.0000                 0.0000
 Atom AN      X      Y      Z        X      Y      Z        X      Y      Z
   1   8     0.13   0.47  -0.42    -0.05  -0.15  -0.18    -0.23   0.07   0.01
   2   6    -0.15  -0.56   0.49     0.10   0.30   0.37     0.46  -0.14  -0.02
   3   1     0.02   0.02   0.00     0.09   0.20  -0.48    -0.16   0.36  -0.19
   4   1    -0.02   0.02  -0.01    -0.06  -0.12  -0.26    -0.31  -0.38   0.38
   5   1     0.01  -0.00  -0.02    -0.19  -0.52   0.20    -0.22   0.23  -0.17
                      4                      5                      6
                        a                      a                      a 
 Frequencies --  1464.0016              1505.9070              1506.3884
 Red. masses --     2.1959                 1.5803                 1.5820
 Frc consts  --     0.0000                 0.0000                 0.0000
 IR Inten    --   131.0174                97.7075                97.6037
 Raman Activ --     0.0000                 0.0000                 0.0000
 Depolar     --     0.0000                 0.0000                 0.0000
 Atom AN      X      Y      Z        X      Y      Z        X      Y      Z
   1   8     0.05   0.17  -0.15    -0.04   0.02   0.01    -0.01  -0.02  -0.03
   2   6     0.04   0.13  -0.12    -0.20   0.08   0.03    -0.08  -0.13  -0.17
   3   1     0.03  -0.32   0.44     0.40  -0.22  -0.43    -0.16   0.45  -0.11
   4   1    -0.27  -0.32   0.36    -0.14  -0.30   0.26     0.22   0.38   0.51
   5   1    -0.07  -0.51   0.21     0.59   0.17   0.03     0.28  -0.30   0.30
                      7                      8                      9
                        a                      a                      a 
 Frequencies --  2320.8816              2321.3987              2556.5133
 Red. masses --     1.5919                 1.5917                 1.1700
 Frc consts  --     0.0000                 0.0000                 0.0000
 IR Inten    --   734.7315               735.3833               407.2790
 Raman Activ --     0.0000                 0.0000                 0.0000
 Depolar     --     0.0000                 0.0000                 0.0000
 Atom AN      X      Y      Z        X      Y      Z        X      Y      Z
   1   8    -0.01  -0.00  -0.00     0.01  -0.01  -0.01     0.02   0.07  -0.07
   2   6    -0.19  -0.05  -0.12     0.12  -0.15  -0.13     0.01   0.02  -0.02
   3   1     0.57   0.45   0.26     0.19  -0.04  -0.05    -0.44  -0.30  -0.21
   4   1     0.34  -0.36  -0.04    -0.52   0.31  -0.15     0.47  -0.32   0.04
   5   1    -0.22   0.11   0.22    -0.11   0.27   0.66    -0.13   0.25   0.50
