      -----------------------------------------------------------      
     |                   =====================                   |     
     |                           x T B                           |     
     |                   =====================                   |     
     |                         S. Grimme                         |     
     |          Mulliken Center for Theoretical Chemistry        |     
     |                    University of Bonn                     |     
      -----------------------------------------------------------      

   * xtb version 6.7.1 (edcfbbe) compiled by 'albert@albert-system' on 2024-07-22

   xtb is free software: you can redistribute it and/or modify it under
   the terms of the GNU Lesser General Public License as published by
   the Free Software Foundation, either version 3 of the License, or
   (at your option) any later version.
   
   xtb is distributed in the hope that it will be useful,
   but WITHOUT ANY WARRANTY; without even the implied warranty of
   MERCHANTABILITY or FITNESS FOR A PARTICULAR PURPOSE.  See the
   GNU Lesser General Public License for more details.
   
   Cite this work as:
   * C. Bannwarth, E. Caldeweyher, S. Ehlert, A. Hansen, P. Pracht,
     J. Seibert, S. Spicher, S. Grimme, WIREs Comput. Mol. Sci., 2020, 11,
     e01493. DOI: 10.1002/wcms.1493
   
   for GFN2-xTB:
   * C. Bannwarth, S. Ehlert and S. Grimme., J. Chem. Theory Comput., 2019,
     15, 1652-1671. DOI: 10.1021/acs.jctc.8b01176
   for GFN1-xTB:
   * S. Grimme, C. Bannwarth, P. Shushkov, J. Chem. Theory Comput., 2017,
     13, 1989-2009. DOI: 10.1021/acs.jctc.7b00118
   for GFN0-xTB:
   * P. Pracht, E. Caldeweyher, S. Ehlert, S. Grimme, ChemRxiv, 2019, preprint.
     DOI: 10.26434/chemrxiv.8326202.v1
   for GFN-FF:
   * S. Spicher and S. Grimme, Angew. Chem. Int. Ed., 2020, 59, 15665-15673.
     DOI: 10.1002/anie.202004239
   
   for ALPB and GBSA implicit solvation:
   * S. Ehlert, M. Stahn, S. Spicher, S. Grimme, J. Chem. Theory Comput.,
     2021, 17, 4250-4261. DOI: 10.1021/acs.jctc.1c00471
   
   for ddCOSMO and CPCM-X implicit solvation:
   * M. Stahn, S. Ehlert, S. Grimme, J. Phys. Chem. A,
     2023, XX, XXXX-XXXX. DOI: 10.1021/acs.jpca.3c04382
   
   for DFT-D4:
   * E. Caldeweyher, C. Bannwarth and S. Grimme, J. Chem. Phys., 2017,
     147, 034112. DOI: 10.1063/1.4993215
   * E. Caldeweyher, S. Ehlert, A. Hansen, H. Neugebauer, S. Spicher,
     C. Bannwarth and S. Grimme, J. Chem. Phys., 2019, 150, 154122.
     DOI: 10.1063/1.5090222
   * E. Caldeweyher, J.-M. Mewes, S. Ehlert and S. Grimme, Phys. Chem. Chem. Phys.
     2020, 22, 8499-8512. DOI: 10.1039/D0CP00502A
   
   for sTDA-xTB:
   * S. Grimme and C. Bannwarth, J. Chem. Phys., 2016, 145, 054103.
     DOI: 10.1063/1.4959605
   
   in the mass-spec context:
   * V. Asgeirsson, C. Bauer and S. Grimme, Chem. Sci., 2017, 8, 4879.
     DOI: 10.1039/c7sc00601b
   * J. Koopman and S. Grimme, ACS Omega 2019, 4, 12, 15120-15133.
     DOI: 10.1021/acsomega.9b02011
   
   for metadynamics refer to:
   * S. Grimme, J. Chem. Theory Comput., 2019, 155, 2847-2862
     DOI: 10.1021/acs.jctc.9b00143
   
   for SPH calculations refer to:
   * S. Spicher and S. Grimme, J. Chem. Theory Comput., 2021, 17, 1701-1714
     DOI: 10.1021/acs.jctc.0c01306
   
   for ONIOM refer to:
   * C. Plett, A. Katbashev, S. Ehlert, S. Grimme, M. Bursch,
     Phys. Chem. Chem. Phys., 2023, 25, 17860-17868. DOI: 10.1039/D3CP02178E
   
   for DIPRO refer to:
   * J. Kohn, N. Gildemeister, S. Grimme, D. Fazzi, A. Hansen,
     J. Chem. Phys., 2023, just accepted.
   
   for PTB refer to:
   * S. Grimme, M. Mueller, A. Hansen, J. Chem. Phys., 2023, 158, 124111.
     DOI: 10.1063/5.0137838
   
   with help from (in alphabetical order)
   P. Atkinson, C. Bannwarth, F. Bohle, G. Brandenburg, E. Caldeweyher
   M. Checinski, S. Dohm, S. Ehlert, S. Ehrlich, I. Gerasimov, C. Hölzer
   A. Katbashev, J. Kohn, J. Koopman, C. Lavigne, S. Lehtola, F. März, M. Müller,
   F. Musil, H. Neugebauer, J. Pisarek, C. Plett, P. Pracht, F. Pultar,
   J. Seibert, P. Shushkov, S. Spicher, M. Stahn, M. Steiner, T. Strunk,
   J. Stückrath, T. Rose, and J. Unsleber
   
 * started run on 2025/10/17 at 22:33:36.962     
   ID    Z sym.   atoms
    1    8 O      1
    2    6 C      2
    3    1 H      3-5

           -------------------------------------------------
          |                Calculation Setup                |
           -------------------------------------------------

          program call               : xtb xyz.xyz --alpb water --charge -1 --ohess
          hostname                   : m003
          coordinate file            : xyz.xyz
          omp threads                :                     2


           -------------------------------------------------
          |                 G F N 2 - x T B                 |
           -------------------------------------------------

        Reference                      10.1021/acs.jctc.8b01176
      * Hamiltonian:
        H0-scaling (s, p, d)           1.850000    2.230000    2.230000
        zeta-weighting                 0.500000
      * Dispersion:
        s8                             2.700000
        a1                             0.520000
        a2                             5.000000
        s9                             5.000000
      * Repulsion:
        kExp                           1.500000    1.000000
        rExp                           1.000000
      * Coulomb:
        alpha                          2.000000
        third order                    shell-resolved
        anisotropic                    true
        a3                             3.000000
        a5                             4.000000
        cn-shift                       1.200000
        cn-exp                         4.000000
        max-rad                        5.000000

      * Solvation model:               ALPB
        Solvent                        water
        Parameter file                 internal GFN2-xTB/ALPB
        Dielectric constant                8.0200E+01
        Reference state                gsolv [1 M gas/solution]
        Free energy shift                  1.0808E-03 Eh       6.7819E-01 kcal/mol
        Temperature                        2.9815E+02 K
        Density                            1.0000E+00 kg/L
        Solvent mass                       1.8000E+01 g/mol
        Interaction kernel             P16
        Born radius scaling (c1)           1.4744E+00
        Born radii integrator          GBOBC
        Born offset                        0.0000E+00 a0       0.0000E+00 AA
        H-bond correction              true
        Ion screening                  false
        Surface tension                    1.0000E-05 Eh       1.5569E+01 dyn/cm
        Grid points                               230 per atom

          ...................................................
          :                      SETUP                      :
          :.................................................:
          :  # basis functions                  11          :
          :  # atomic orbitals                  11          :
          :  # shells                            7          :
          :  # electrons                        14          :
          :  max. iterations                   250          :
          :  Hamiltonian                  GFN2-xTB          :
          :  restarted?                      false          :
          :  GBSA solvation                   true          :
          :  PC potential                    false          :
          :  electronic temp.          300.0000000     K    :
          :  accuracy                    1.0000000          :
          :  -> integral cutoff          0.2500000E+02      :
          :  -> integral neglect         0.1000000E-07      :
          :  -> SCF convergence          0.1000000E-05 Eh   :
          :  -> wf. convergence          0.1000000E-03 e    :
          :  Broyden damping             0.4000000          :
          :  net charge                         -1          :
          :  unpaired electrons                  0          :
          ...................................................

 iter      E             dE          RMSdq      gap      omega  full diag
   1     -7.9511834 -0.795118E+01  0.617E+00   13.93       0.0  T
   2     -8.0367710 -0.855876E-01  0.223E+00   11.89       1.0  T
   3     -8.0378984 -0.112736E-02  0.115E+00   11.60       1.0  T
   4     -8.0382687 -0.370310E-03  0.332E-01   11.40       1.0  T
   5     -8.0383019 -0.331897E-04  0.385E-02   11.51       1.2  T
   6     -8.0383037 -0.181176E-05  0.293E-02   11.47       1.5  T
   7     -8.0383048 -0.107338E-05  0.376E-03   11.49      11.9  T
   8     -8.0383048 -0.461547E-07  0.135E-03   11.48      33.0  T
   9     -8.0383048 -0.525792E-08  0.319E-05   11.48    1399.9  T
  10     -8.0383048  0.278888E-12  0.223E-05   11.48    2005.8  T

   *** convergence criteria satisfied after 10 iterations ***

         #    Occupation            Energy/Eh            Energy/eV
      -------------------------------------------------------------
         1        2.0000           -0.5976759             -16.2636
         2        2.0000           -0.5632760             -15.3275
         3        2.0000           -0.4769530             -12.9786
         4        2.0000           -0.4769246             -12.9778
         5        2.0000           -0.4403865             -11.9835
         6        2.0000           -0.3133783              -8.5275
         7        2.0000           -0.3133537              -8.5268 (HOMO)
         8                          0.1086429               2.9563 (LUMO)
         9                          0.1426112               3.8806
        10                          0.1427881               3.8855
        11                          0.2627479               7.1497
      -------------------------------------------------------------
                  HL-Gap            0.4219966 Eh           11.4831 eV
             Fermi-level           -0.1023554 Eh           -2.7852 eV

 SCC (total)                   0 d,  0 h,  0 min,  0.027 sec
 SCC setup                      ...        0 min,  0.000 sec (  1.021%)
 Dispersion                     ...        0 min,  0.000 sec (  0.219%)
 classical contributions        ...        0 min,  0.000 sec (  0.109%)
 integral evaluation            ...        0 min,  0.000 sec (  0.922%)
 iterations                     ...        0 min,  0.026 sec ( 95.885%)
 molecular gradient             ...        0 min,  0.000 sec (  1.327%)
 printout                       ...        0 min,  0.000 sec (  0.368%)

         :::::::::::::::::::::::::::::::::::::::::::::::::::::
         ::                     SUMMARY                     ::
         :::::::::::::::::::::::::::::::::::::::::::::::::::::
         :: total energy              -7.991580732561 Eh    ::
         :: total w/o Gsasa/hb        -7.990541016083 Eh    ::
         :: gradient norm              0.038914806049 Eh/a0 ::
         :: HOMO-LUMO gap             11.483111608134 eV    ::
         ::.................................................::
         :: SCC energy                -8.038304813683 Eh    ::
         :: -> isotropic ES            0.228653944313 Eh    ::
         :: -> anisotropic ES          0.005303444790 Eh    ::
         :: -> anisotropic XC         -0.002231758936 Eh    ::
         :: -> dispersion             -0.001569972881 Eh    ::
         :: -> Gsolv                  -0.124695534432 Eh    ::
         ::    -> Gelec               -0.123655817954 Eh    ::
         ::    -> Gsasa                0.002402635949 Eh    ::
         ::    -> Ghb                 -0.004523112125 Eh    ::
         ::    -> Gshift               0.001080759698 Eh    ::
         :: repulsion energy           0.046724081122 Eh    ::
         :: add. restraining           0.000000000000 Eh    ::
         :: total charge              -1.000000000000 e     ::
         :::::::::::::::::::::::::::::::::::::::::::::::::::::

      ----------------------------------------------------------- 
     |                   =====================                   |
     |                        A N C O P T                        |
     |                   =====================                   |
     |               Approximate Normal Coordinate               |
     |                Rational Function Optimizer                |
      ----------------------------------------------------------- 
      ----------------------------------------------------------- 
     |                   =====================                   |
     |                        A N C O P T                        |
     |                   =====================                   |
     |               Approximate Normal Coordinate               |
     |                Rational Function Optimizer                |
      ----------------------------------------------------------- 

          ...................................................
          :                      SETUP                      :
          :.................................................:
          :   optimization level            normal          :
          :   max. optcycles                   200          :
          :   ANC micro-cycles                  20          :
          :   degrees of freedom                 9          :
          :.................................................:
          :   RF solver                   davidson          :
          :   write xtbopt.log                true          :
          :   linear?                        false          :
          :   energy convergence         0.5000000E-05 Eh   :
          :   grad. convergence          0.1000000E-02 Eh/α :
          :   maxmium RF displ.          1.0000000          :
          :   Hlow (freq-cutoff)         0.1000000E-01      :
          :   Hmax (freq-cutoff)         5.0000000          :
          :   S6 in model hess.         20.0000000          :
          ...................................................

generating ANC from exact Hessian ...
Using Lindh-Hessian (1995)
 Shifting diagonal of input Hessian by   0.000000000000000E+000
 Lowest  eigenvalues of input Hessian
    0.000000    0.000000    0.000000    0.000000    0.000000    0.000000
    0.069468    0.069494    0.122592    0.122705    0.131706    0.425835
    0.914903    0.915390    1.540138
 Highest eigenvalues
    0.122705    0.131706    0.425835    0.914903    0.915390    1.540138
 

........................................................................
.............................. CYCLE    1 ..............................
........................................................................

 iter      E             dE          RMSdq      gap      omega  full diag
   1     -8.0383048 -0.803830E+01  0.192E-07   11.48       0.0  T
   2     -8.0383048  0.177636E-14  0.978E-08   11.48  100000.0  T
   3     -8.0383048  0.710543E-14  0.555E-08   11.48  100000.0  T
     SCC iter.                  ...        0 min,  0.000 sec
     gradient                   ...        0 min,  0.000 sec
 * total energy  :    -7.9915807 Eh     change       -0.1344702E-11 Eh
   gradient norm :     0.0389148 Eh/α   predicted     0.0000000E+00 (-100.00%)
   displ. norm   :     0.1380817 α      lambda       -0.3924309E-02
   maximum displ.:     0.1244819 α      in ANC's #5, #6, #9, ...

........................................................................
.............................. CYCLE    2 ..............................
........................................................................

 iter      E             dE          RMSdq      gap      omega  full diag
   1     -8.0445143 -0.804451E+01  0.469E-01   11.59       0.0  T
   2     -8.0445966 -0.822321E-04  0.274E-01   11.56       1.0  T
   3     -8.0445995 -0.293749E-05  0.768E-02   11.59       1.0  T
   4     -8.0446000 -0.483173E-06  0.924E-03   11.59       4.8  T
   5     -8.0446001 -0.625050E-07  0.351E-03   11.59      12.8  T
   6     -8.0446001 -0.532112E-08  0.314E-04   11.59     142.5  T
   7     -8.0446001 -0.314220E-10  0.106E-04   11.59     420.6  T
     SCC iter.                  ...        0 min,  0.001 sec
     gradient                   ...        0 min,  0.000 sec
 * total energy  :    -7.9935733 Eh     change       -0.1992600E-02 Eh
   gradient norm :     0.0098199 Eh/α   predicted    -0.1999565E-02 (   0.35%)
   displ. norm   :     0.0204274 α      lambda       -0.1371940E-03
   maximum displ.:     0.0163412 α      in ANC's #5, #6, #9, ...

........................................................................
.............................. CYCLE    3 ..............................
........................................................................

 iter      E             dE          RMSdq      gap      omega  full diag
   1     -8.0461417 -0.804614E+01  0.633E-02   11.76       0.0  T
   2     -8.0461425 -0.787676E-06  0.354E-02   11.76       1.3  T
   3     -8.0461426 -0.897569E-07  0.749E-03   11.76       6.0  T
   4     -8.0461426 -0.770618E-08  0.189E-03   11.76      23.7  T
   5     -8.0461426 -0.141796E-08  0.586E-04   11.76      76.3  T
   6     -8.0461426 -0.993676E-10  0.626E-05   11.76     714.1  T
     SCC iter.                  ...        0 min,  0.001 sec
     gradient                   ...        0 min,  0.000 sec
 * total energy  :    -7.9936565 Eh     change       -0.8316566E-04 Eh
   gradient norm :     0.0045918 Eh/α   predicted    -0.6862486E-04 ( -17.48%)
   displ. norm   :     0.0071005 α      lambda       -0.2358077E-04
   maximum displ.:     0.0054014 α      in ANC's #5, #9, #1, ...

........................................................................
.............................. CYCLE    4 ..............................
........................................................................

 iter      E             dE          RMSdq      gap      omega  full diag
   1     -8.0462660 -0.804627E+01  0.360E-02   11.76       0.0  T
   2     -8.0462664 -0.374457E-06  0.185E-02   11.76       2.4  T
   3     -8.0462665 -0.517808E-07  0.467E-03   11.77       9.6  T
   4     -8.0462665 -0.708017E-09  0.132E-03   11.77      33.8  T
   5     -8.0462665 -0.760041E-09  0.206E-04   11.77     216.9  T
   6     -8.0462665 -0.170317E-10  0.137E-05   11.77    3271.8  T
     SCC iter.                  ...        0 min,  0.001 sec
     gradient                   ...        0 min,  0.000 sec
 * total energy  :    -7.9936730 Eh     change       -0.1649459E-04 Eh
   gradient norm :     0.0024108 Eh/α   predicted    -0.1178956E-04 ( -28.52%)
   displ. norm   :     0.0054458 α      lambda       -0.1220197E-04
   maximum displ.:     0.0041401 α      in ANC's #9, #6, #5, ...

........................................................................
.............................. CYCLE    5 ..............................
........................................................................

 iter      E             dE          RMSdq      gap      omega  full diag
   1     -8.0460382 -0.804604E+01  0.307E-02   11.72       0.0  T
   2     -8.0460386 -0.404515E-06  0.146E-02   11.72       3.1  T
   3     -8.0460387 -0.623695E-07  0.418E-03   11.72      10.7  T
   4     -8.0460387 -0.615486E-09  0.145E-03   11.72      30.9  T
   5     -8.0460387 -0.484935E-09  0.120E-04   11.72     373.0  T
   6     -8.0460387 -0.577494E-11  0.988E-06   11.72    4524.4  T
     SCC iter.                  ...        0 min,  0.001 sec
     gradient                   ...        0 min,  0.000 sec
 * total energy  :    -7.9936800 Eh     change       -0.7047514E-05 Eh
   gradient norm :     0.0005639 Eh/α   predicted    -0.6101523E-05 ( -13.42%)
   displ. norm   :     0.0033884 α      lambda       -0.1132729E-05
   maximum displ.:     0.0021266 α      in ANC's #6, #1, #5, ...

........................................................................
.............................. CYCLE    6 ..............................
........................................................................

 iter      E             dE          RMSdq      gap      omega  full diag
   1     -8.0458149 -0.804581E+01  0.105E-02   11.69       0.0  T
   2     -8.0458149 -0.355851E-07  0.535E-03   11.69       8.4  T
   3     -8.0458149 -0.711585E-08  0.130E-03   11.69      34.4  T
   4     -8.0458149 -0.334168E-10  0.491E-04   11.69      91.1  T
   5     -8.0458149 -0.520721E-10  0.580E-05   11.69     771.4  T
     SCC iter.                  ...        0 min,  0.001 sec
     gradient                   ...        0 min,  0.000 sec
 * total energy  :    -7.9936805 Eh     change       -0.4439029E-06 Eh
   gradient norm :     0.0002785 Eh/α   predicted    -0.5649678E-06 (  27.27%)
   displ. norm   :     0.0021563 α      lambda       -0.3030402E-06
   maximum displ.:     0.0017852 α      in ANC's #1, #2, #3, ...

   *** GEOMETRY OPTIMIZATION CONVERGED AFTER 6 ITERATIONS ***

------------------------------------------------------------------------
 total energy gain   :        -0.0020998 Eh       -1.3176 kcal/mol
 total RMSD          :         0.0557278 a0        0.0295 Å
 total power (kW/mol):        -0.9188160 (step) -512.4044 (real)
------------------------------------------------------------------------

 ANCopt (total)                0 d,  0 h,  0 min,  0.011 sec
 optimizer setup                ...        0 min,  0.000 sec (  3.375%)
 model hessian                  ...        0 min,  0.000 sec (  2.014%)
 ANC generation                 ...        0 min,  0.000 sec (  1.205%)
 coordinate transformation      ...        0 min,  0.000 sec (  0.685%)
 single point calculation       ...        0 min,  0.009 sec ( 79.595%)
 optimization log               ...        0 min,  0.000 sec (  3.579%)
 hessian update                 ...        0 min,  0.000 sec (  0.776%)
 rational function              ...        0 min,  0.000 sec (  3.988%)

================
 final structure:
================
5
 xtb: 6.7.1 (edcfbbe)
O           -1.21984508724732        4.34461540988390       -1.33607338266029
C           -1.48386518413697        3.37661318268510       -0.47829939522370
H           -2.34283861423903        2.71028618221372       -0.79070409169089
H           -0.61865097822131        2.66833891126147       -0.30709787358937
H           -1.76492313615537        3.74376231395581        0.55411874316426
 
 Bond Distances (Angstroems)
 ---------------------------
O1-C2=1.3200         C2-O1=1.3200         C2-H3=1.1311         C2-H4=1.1312         C2-H5=1.1312         H3-C2=1.1311         
H4-C2=1.1312         H5-C2=1.1312         
 C  H  Rav=1.1312 sigma=0.0000  Rmin=1.1311  Rmax=1.1312     3
 O  C  Rav=1.3200 sigma=0.0000  Rmin=1.3200  Rmax=1.3200     1
 
 selected bond angles (degree)
 --------------------
H3-C2-O1=113.85                H4-C2-O1=113.86                H4-C2-H3=104.70                H5-C2-O1=113.87                
H5-C2-H3=104.75                H5-C2-H4=104.78                
 
 selected dihedral angles (degree)
 ---------------------------------

           -------------------------------------------------
          |                Final Singlepoint                |
           -------------------------------------------------

          ...................................................
          :                      SETUP                      :
          :.................................................:
          :  # basis functions                  11          :
          :  # atomic orbitals                  11          :
          :  # shells                            7          :
          :  # electrons                        14          :
          :  max. iterations                   250          :
          :  Hamiltonian                  GFN2-xTB          :
          :  restarted?                      false          :
          :  GBSA solvation                   true          :
          :  PC potential                    false          :
          :  electronic temp.          300.0000000     K    :
          :  accuracy                    1.0000000          :
          :  -> integral cutoff          0.2500000E+02      :
          :  -> integral neglect         0.1000000E-07      :
          :  -> SCF convergence          0.1000000E-05 Eh   :
          :  -> wf. convergence          0.1000000E-03 e    :
          :  Broyden damping             0.4000000          :
          :  net charge                         -1          :
          :  unpaired electrons                  0          :
          ...................................................

 iter      E             dE          RMSdq      gap      omega  full diag
   1     -8.0458149 -0.804581E+01  0.798E-06   11.69       0.0  T
   2     -8.0458149 -0.106581E-13  0.535E-06   11.69    8357.4  T
   3     -8.0458149 -0.710543E-14  0.845E-07   11.69   52926.7  T

   *** convergence criteria satisfied after 3 iterations ***

         #    Occupation            Energy/Eh            Energy/eV
      -------------------------------------------------------------
         1        2.0000           -0.6054337             -16.4747
         2        2.0000           -0.5646470             -15.3648
         3        2.0000           -0.4824890             -13.1292
         4        2.0000           -0.4824305             -13.1276
         5        2.0000           -0.4419374             -12.0257
         6        2.0000           -0.3142318              -8.5507
         7        2.0000           -0.3142083              -8.5500 (HOMO)
         8                          0.1154282               3.1410 (LUMO)
         9                          0.1585302               4.3138
        10                          0.1587618               4.3201
        11                          0.3248429               8.8394
      -------------------------------------------------------------
                  HL-Gap            0.4296365 Eh           11.6910 eV
             Fermi-level           -0.0993900 Eh           -2.7045 eV

 SCC (total)                   0 d,  0 h,  0 min,  0.001 sec
 SCC setup                      ...        0 min,  0.000 sec ( 15.407%)
 Dispersion                     ...        0 min,  0.000 sec (  2.139%)
 classical contributions        ...        0 min,  0.000 sec (  1.021%)
 integral evaluation            ...        0 min,  0.000 sec ( 12.637%)
 iterations                     ...        0 min,  0.000 sec ( 32.904%)
 molecular gradient             ...        0 min,  0.000 sec ( 25.176%)
 printout                       ...        0 min,  0.000 sec (  7.242%)

         :::::::::::::::::::::::::::::::::::::::::::::::::::::
         ::                     SUMMARY                     ::
         :::::::::::::::::::::::::::::::::::::::::::::::::::::
         :: total energy              -7.993680483862 Eh    ::
         :: total w/o Gsasa/hb        -7.992462238571 Eh    ::
         :: gradient norm              0.000278815486 Eh/a0 ::
         :: HOMO-LUMO gap             11.691005154301 eV    ::
         ::.................................................::
         :: SCC energy                -8.045814906514 Eh    ::
         :: -> isotropic ES            0.227344019069 Eh    ::
         :: -> anisotropic ES          0.002420531989 Eh    ::
         :: -> anisotropic XC         -0.003300567561 Eh    ::
         :: -> dispersion             -0.001606312727 Eh    ::
         :: -> Gsolv                  -0.124652397735 Eh    ::
         ::    -> Gelec               -0.123434152445 Eh    ::
         ::    -> Gsasa                0.002345658485 Eh    ::
         ::    -> Ghb                 -0.004644663473 Eh    ::
         ::    -> Gshift               0.001080759698 Eh    ::
         :: repulsion energy           0.052134422652 Eh    ::
         :: add. restraining           0.000000000000 Eh    ::
         :: total charge              -1.000000000000 e     ::
         :::::::::::::::::::::::::::::::::::::::::::::::::::::

           ------------------------------------------------- 
          |                Numerical Hessian                |
           ------------------------------------------------- 
step length          :   0.00500
SCC accuracy         :   0.30000
Hessian scale factor :   1.00000
frozen atoms in %    :   0.00000    0
RMS gradient         :   0.00028
estimated CPU  time      0.00 min
estimated wall time      0.00 min

writing file <hessian>.

 projected vibrational frequencies (cm⁻¹)
eigval :       -0.00    -0.00    -0.00    -0.00     0.00     0.00
eigval :     1101.25  1175.57  1175.75  1464.00  1505.91  1506.39
eigval :     2320.88  2321.40  2556.51
           -------------------------------------------------
          |                Property Printout                |
           -------------------------------------------------

    * Orbital Energies and Occupations

         #    Occupation            Energy/Eh            Energy/eV
      -------------------------------------------------------------
         1        2.0000           -0.6054337             -16.4747
         2        2.0000           -0.5646470             -15.3648
         3        2.0000           -0.4824890             -13.1292
         4        2.0000           -0.4824305             -13.1276
         5        2.0000           -0.4419374             -12.0257
         6        2.0000           -0.3142318              -8.5507
         7        2.0000           -0.3142083              -8.5500 (HOMO)
         8                          0.1154283               3.1410 (LUMO)
         9                          0.1585302               4.3138
        10                          0.1587618               4.3201
        11                          0.3248429               8.8394
      -------------------------------------------------------------
                  HL-Gap            0.4296365 Eh           11.6910 eV
             Fermi-level           -0.0993900 Eh           -2.7045 eV

     #   Z          covCN         q      C6AA      α(0)
     1   8 O        0.854    -0.871    33.810     7.796
     2   6 C        3.606     0.197    17.953     6.123
     3   1 H        0.917    -0.109     5.885     3.794
     4   1 H        0.917    -0.109     5.887     3.795
     5   1 H        0.917    -0.109     5.885     3.794

 Mol. C6AA /au·bohr⁶  :        298.186157
 Mol. C8AA /au·bohr⁸  :       5471.309991
 Mol. α(0) /au        :         25.301612


Wiberg/Mayer (AO) data.
largest (>0.10) Wiberg bond orders for each atom

 ---------------------------------------------------------------------------
     #   Z sym  total        # sym  WBO       # sym  WBO       # sym  WBO
 ---------------------------------------------------------------------------
     1   8 O    1.307 --     2 C    1.163
     2   6 C    3.981 --     1 O    1.163     3 H    0.939     5 H    0.939
                             4 H    0.939
     3   1 H    0.988 --     2 C    0.939
     4   1 H    0.988 --     2 C    0.939
     5   1 H    0.988 --     2 C    0.939
 ---------------------------------------------------------------------------

Topologies differ in total number of bonds
Writing topology from bond orders to xtbtopo.mol

molecular dipole:
                 x           y           z       tot (Debye)
 q only:        2.426      -7.766       2.132
   full:        2.356      -8.024       2.360      22.086
molecular quadrupole (traceless):
                xx          xy          yy          xz          yz          zz
 q only:       27.187      27.940     -55.547      -7.471      25.881      28.360
  q+dip:       30.229      27.954     -59.384      -7.986      29.710      29.155
   full:       30.021      28.058     -59.240      -8.077      29.372      29.218

           -------------------------------------------------
          |                Geometry Summary                 |
           -------------------------------------------------

      molecular mass/u    :       31.0339631
   center of mass at/Å    :       -1.3566597       3.8429471      -0.8915771
  moments of inertia/u·Å² :        0.3235905E+01   0.1757801E+02   0.1758018E+02
rotational constants/cm⁻¹ :        0.5209556E+01   0.9590181E+00   0.9588998E+00

 * 3 selected distances

     #   Z          #   Z                                           value/Å
     2   6 C        3   1 H                                       1.1311162 (min)
     2   6 C        4   1 H                                       1.1311756
     2   6 C        5   1 H                                       1.1312292 (max)

 * 1 distinct bonds (by element types)

   Z      Z             #   av. dist./Å        max./Å        min./Å
   1 H    6 C           3     1.1311737     1.1312292     1.1311162

           -------------------------------------------------
          |               Frequency Printout                |
           -------------------------------------------------
 projected vibrational frequencies (cm⁻¹)
eigval :       -0.00    -0.00    -0.00    -0.00     0.00     0.00
eigval :     1101.25  1175.57  1175.75  1464.00  1505.91  1506.39
eigval :     2320.88  2321.40  2556.51
 reduced masses (amu)
   1:  5.60   2:  8.28   3: 14.79   4: 14.25   5:  7.70   6: 10.24   7: 13.67   8:  4.43
   9:  4.43  10:  2.20  11:  1.58  12:  1.58  13:  1.59  14:  1.59  15:  1.17
 IR intensities (km·mol⁻¹)
   1:  8.31   2: 10.23   3: 45.56   4: 40.80   5:  7.72   6: 15.24   7:575.76   8: 65.06
   9: 65.80  10:131.02  11: 97.71  12: 97.60  13:734.73  14:735.38  15:407.28
 Raman intensities (Ä⁴*amu⁻¹)
   1:  0.00   2:  0.00   3:  0.00   4:  0.00   5:  0.00   6:  0.00   7:  0.00   8:  0.00
   9:  0.00  10:  0.00  11:  0.00  12:  0.00  13:  0.00  14:  0.00  15:  0.00
 output can be read by thermo (or use thermo option).
 writing <g98.out> molden fake output.
 recommended (thermochemical) frequency scaling factor: 1.0
           -------------------------------------------------
          |             Thermodynamic Functions             |
           -------------------------------------------------

Refinement of some symmetry elements was terminated before convergence was reached.
Some symmetry elements may remain unidentified.
Molecule has the following symmetry elements: (C3) 3*(sigma) 
It seems to be the C3v point group
c3v symmetry found (for desy threshold:  0.10E+00) used in thermo

          ...................................................
          :                      SETUP                      :
          :.................................................:
          :  # frequencies                           9      :
          :  # imaginary freq.                       0      :
          :  linear?                             false      :
          :  only rotor calc.                    false      :
          :  symmetry                              c3v      :
          :  rotational number                       3      :
          :  scaling factor                  1.0000000      :
          :  rotor cutoff                   50.0000000 cm⁻¹ :
          :  imag. cutoff                  -20.0000000 cm⁻¹ :
          :.................................................:

    mode    ω/cm⁻¹     T·S(HO)/kcal·mol⁻¹    T·S(FR)/kcal·mol⁻¹   T·S(vib)
   ------------------------------------------------------------------------
   ------------------------------------------------------------------------

   temp. (K)  partition function   enthalpy   heat capacity  entropy
                                   cal/mol     cal/K/mol   cal/K/mol   J/K/mol
 298.15  VIB   1.01                   48.557      0.961      0.191
         ROT   805.                  888.752      2.981     16.278
         INT   817.                  937.309      3.942     16.469
         TR   0.167E+27             1481.254      4.968     36.214
         TOT                        2418.5630     8.9103    52.6825   220.4238

       T/K    H(0)-H(T)+PV         H(T)/Eh          T*S/Eh         G(T)/Eh
   ------------------------------------------------------------------------
    298.15    0.385423E-02    0.383176E-01    0.250312E-01    0.132864E-01
   ------------------------------------------------------------------------

         :::::::::::::::::::::::::::::::::::::::::::::::::::::
         ::                  THERMODYNAMIC                  ::
         :::::::::::::::::::::::::::::::::::::::::::::::::::::
         :: total free energy          -7.980394076580 Eh   ::
         ::.................................................::
         :: total energy               -7.993680483860 Eh   ::
         :: zero point energy           0.034463358794 Eh   ::
         :: G(RRHO) w/o ZPVE           -0.021176951514 Eh   ::
         :: G(RRHO) contrib.            0.013286407280 Eh   ::
         :::::::::::::::::::::::::::::::::::::::::::::::::::::

optimized geometry written to: xtbopt.xyz


           -------------------------------------------------
          | TOTAL ENERGY               -7.993680483860 Eh   |
          | TOTAL ENTHALPY             -7.955362899630 Eh   |
          | TOTAL FREE ENERGY          -7.980394076580 Eh   |
          | GRADIENT NORM               0.000278814225 Eh/α |
          | HOMO-LUMO GAP              11.691005098199 eV   |
           -------------------------------------------------

------------------------------------------------------------------------
 * finished run on 2025/10/17 at 22:33:37.934     
------------------------------------------------------------------------
 total:
 * wall-time:     0 d,  0 h,  0 min,  0.971 sec
 *  cpu-time:     0 d,  0 h,  0 min,  0.753 sec
 * ratio c/w:     0.775 speedup
 SCF:
 * wall-time:     0 d,  0 h,  0 min,  0.028 sec
 *  cpu-time:     0 d,  0 h,  0 min,  0.034 sec
 * ratio c/w:     1.221 speedup
 ANC optimizer:
 * wall-time:     0 d,  0 h,  0 min,  0.257 sec
 *  cpu-time:     0 d,  0 h,  0 min,  0.270 sec
 * ratio c/w:     1.050 speedup
 analytical hessian:
 * wall-time:     0 d,  0 h,  0 min,  0.301 sec
 *  cpu-time:     0 d,  0 h,  0 min,  0.232 sec
 * ratio c/w:     0.769 speedup

