5
 energy: -7.991580732562 gnorm: 0.038914787449 xtb: 6.7.1 (edcfbbe)
O           -1.20925500000000        4.38236300000000       -1.36903400000000
C           -1.48180300000000        3.38465200000000       -0.48608200000000
H           -2.34028700000000        2.69794300000000       -0.77108700000000
H           -0.63164800000000        2.65698000000000       -0.29217600000000
H           -1.76713000000000        3.72167800000000        0.56032300000000
5
 energy: -7.993573332193 gnorm: 0.009819868672 xtb: 6.7.1 (edcfbbe)
O           -1.21960027270676        4.34545986622977       -1.33673645615841
C           -1.48595139616802        3.36898841764489       -0.47176969349370
H           -2.34601616568867        2.71099936205026       -0.79552817075738
H           -0.61347501005429        2.66897331107021       -0.30950164624343
H           -1.76508015538225        3.74919504300487        0.55547996665293
5
 energy: -7.993656497855 gnorm: 0.004591790105 xtb: 6.7.1 (edcfbbe)
O           -1.21983602658753        4.34466701060845       -1.33603400064021
C           -1.48503905297920        3.37233196710715       -0.47491155795208
H           -2.34243694468484        2.71195742943936       -0.79158289856274
H           -0.61863839367105        2.67021265328232       -0.30782585371675
H           -1.76417258207737        3.74444693956272        0.55229831087178
5
 energy: -7.993672992444 gnorm: 0.002410850776 xtb: 6.7.1 (edcfbbe)
O           -1.21982465066412        4.34469536987972       -1.33609804004698
C           -1.48441970268771        3.37459715561014       -0.47673361515465
H           -2.34182906134061        2.71143049108517       -0.79041717282131
H           -0.61970543977338        2.66963881152666       -0.30724999712838
H           -1.76434414553418        3.74325417189832        0.55244282515131
5
 energy: -7.993680039958 gnorm: 0.000563971397 xtb: 6.7.1 (edcfbbe)
O           -1.21982179281886        4.34469297801736       -1.33603286854286
C           -1.48400256310796        3.37615793044000       -0.47835336308758
H           -2.34270568715307        2.71074273304824       -0.79031325815797
H           -0.61914762388545        2.66904579014381       -0.30660258039910
H           -1.76444533303467        3.74297656835058        0.55324607018751
5
 energy: -7.993680483861 gnorm: 0.000278696211 xtb: 6.7.1 (edcfbbe)
O           -1.21984508724732        4.34461540988390       -1.33607338266029
C           -1.48386518413697        3.37661318268510       -0.47829939522370
H           -2.34283861423903        2.71028618221372       -0.79070409169089
H           -0.61865097822131        2.66833891126147       -0.30709787358937
H           -1.76492313615537        3.74376231395581        0.55411874316426
