
                                 *****************
                                 * O   R   C   A *
                                 *****************

                                            #,                                       
                                            ###                                      
                                            ####                                     
                                            #####                                    
                                            ######                                   
                                           ########,                                 
                                     ,,################,,,,,                         
                               ,,#################################,,                 
                          ,,##########################################,,             
                       ,#########################################, ''#####,          
                    ,#############################################,,   '####,        
                  ,##################################################,,,,####,       
                ,###########''''           ''''###############################       
              ,#####''   ,,,,##########,,,,          '''####'''          '####       
            ,##' ,,,,###########################,,,                        '##       
           ' ,,###''''                  '''############,,,                           
         ,,##''                                '''############,,,,        ,,,,,,###''
      ,#''                                            '''#######################'''  
     '                                                          ''''####''''         
             ,#######,   #######,   ,#######,      ##                                
            ,#'     '#,  ##    ##  ,#'     '#,    #''#        ######   ,####,        
            ##       ##  ##   ,#'  ##            #'  '#       #        #'  '#        
            ##       ##  #######   ##           ,######,      #####,   #    #        
            '#,     ,#'  ##    ##  '#,     ,#' ,#      #,         ##   #,  ,#        
             '#######'   ##     ##  '#######'  #'      '#     #####' # '####'        



                  #######################################################
                  #                        -***-                        #
                  #          Department of theory and spectroscopy      #
                  #    Directorship and core code : Frank Neese         #
                  #        Max Planck Institute fuer Kohlenforschung    #
                  #                Kaiser Wilhelm Platz 1               #
                  #                 D-45470 Muelheim/Ruhr               #
                  #                      Germany                        #
                  #                                                     #
                  #                  All rights reserved                #
                  #                        -***-                        #
                  #######################################################


                         Program Version 5.0.4 -  RELEASE  -


 With contributions from (in alphabetic order):
   Daniel Aravena         : Magnetic Suceptibility
   Michael Atanasov       : Ab Initio Ligand Field Theory (pilot matlab implementation)
   Alexander A. Auer      : GIAO ZORA, VPT2 properties, NMR spectrum
   Ute Becker             : Parallelization
   Giovanni Bistoni       : ED, misc. LED, open-shell LED, HFLD
   Martin Brehm           : Molecular dynamics
   Dmytro Bykov           : SCF Hessian
   Vijay G. Chilkuri      : MRCI spin determinant printing, contributions to CSF-ICE
   Dipayan Datta          : RHF DLPNO-CCSD density
   Achintya Kumar Dutta   : EOM-CC, STEOM-CC
   Dmitry Ganyushin       : Spin-Orbit,Spin-Spin,Magnetic field MRCI
   Miquel Garcia          : C-PCM and meta-GGA Hessian, CC/C-PCM, Gaussian charge scheme
   Yang Guo               : DLPNO-NEVPT2, F12-NEVPT2, CIM, IAO-localization
   Andreas Hansen         : Spin unrestricted coupled pair/coupled cluster methods
   Benjamin Helmich-Paris : MC-RPA, TRAH-SCF, COSX integrals
   Lee Huntington         : MR-EOM, pCC
   Robert Izsak           : Overlap fitted RIJCOSX, COSX-SCS-MP3, EOM
   Marcus Kettner         : VPT2
   Christian Kollmar      : KDIIS, OOCD, Brueckner-CCSD(T), CCSD density, CASPT2, CASPT2-K
   Simone Kossmann        : Meta GGA functionals, TD-DFT gradient, OOMP2, MP2 Hessian
   Martin Krupicka        : Initial AUTO-CI
   Lucas Lang             : DCDCAS
   Marvin Lechner         : AUTO-CI (C++ implementation), FIC-MRCC
   Dagmar Lenk            : GEPOL surface, SMD
   Dimitrios Liakos       : Extrapolation schemes; Compound Job, initial MDCI parallelization
   Dimitrios Manganas     : Further ROCIS development; embedding schemes
   Dimitrios Pantazis     : SARC Basis sets
   Anastasios Papadopoulos: AUTO-CI, single reference methods and gradients
   Taras Petrenko         : DFT Hessian,TD-DFT gradient, ASA, ECA, R-Raman, ABS, FL, XAS/XES, NRVS
   Peter Pinski           : DLPNO-MP2, DLPNO-MP2 Gradient
   Christoph Reimann      : Effective Core Potentials
   Marius Retegan         : Local ZFS, SOC
   Christoph Riplinger    : Optimizer, TS searches, QM/MM, DLPNO-CCSD(T), (RO)-DLPNO pert. Triples
   Tobias Risthaus        : Range-separated hybrids, TD-DFT gradient, RPA, STAB
   Michael Roemelt        : Original ROCIS implementation
   Masaaki Saitow         : Open-shell DLPNO-CCSD energy and density
   Barbara Sandhoefer     : DKH picture change effects
   Avijit Sen             : IP-ROCIS
   Kantharuban Sivalingam : CASSCF convergence, NEVPT2, FIC-MRCI
   Bernardo de Souza      : ESD, SOC TD-DFT
   Georgi Stoychev        : AutoAux, RI-MP2 NMR, DLPNO-MP2 response
   Willem Van den Heuvel  : Paramagnetic NMR
   Boris Wezisla          : Elementary symmetry handling
   Frank Wennmohs         : Technical directorship


 We gratefully acknowledge several colleagues who have allowed us to
 interface, adapt or use parts of their codes:
   Stefan Grimme, W. Hujo, H. Kruse, P. Pracht,  : VdW corrections, initial TS optimization,
                  C. Bannwarth, S. Ehlert          DFT functionals, gCP, sTDA/sTD-DF
   Ed Valeev, F. Pavosevic, A. Kumar             : LibInt (2-el integral package), F12 methods
   Garnet Chan, S. Sharma, J. Yang, R. Olivares  : DMRG
   Ulf Ekstrom                                   : XCFun DFT Library
   Mihaly Kallay                                 : mrcc  (arbitrary order and MRCC methods)
   Jiri Pittner, Ondrej Demel                    : Mk-CCSD
   Frank Weinhold                                : gennbo (NPA and NBO analysis)
   Christopher J. Cramer and Donald G. Truhlar   : smd solvation model
   Lars Goerigk                                  : TD-DFT with DH, B97 family of functionals
   V. Asgeirsson, H. Jonsson                     : NEB implementation
   FAccTs GmbH                                   : IRC, NEB, NEB-TS, DLPNO-Multilevel, CI-OPT
                                                   MM, QMMM, 2- and 3-layer-ONIOM, Crystal-QMMM,
                                                   LR-CPCM, SF, NACMEs, symmetry and pop. for TD-DFT,
                                                   nearIR, NL-DFT gradient (VV10), updates on ESD,
                                                   ML-optimized integration grids
   S Lehtola, MJT Oliveira, MAL Marques          : LibXC Library
   Liviu Ungur et al                             : ANISO software


 Your calculation uses the libint2 library for the computation of 2-el integrals
 For citations please refer to: http://libint.valeyev.net

 Your ORCA version has been built with support for libXC version: 5.1.0
 For citations please refer to: https://tddft.org/programs/libxc/

 This ORCA versions uses:
   CBLAS   interface :  Fast vector & matrix operations
   LAPACKE interface :  Fast linear algebra routines
   SCALAPACK package :  Parallel linear algebra routines
   Shared memory     :  Shared parallel matrices
   BLAS/LAPACK       :  OpenBLAS 0.3.15  USE64BITINT DYNAMIC_ARCH NO_AFFINITY Haswell SINGLE_THREADED
        Core in use  :  Haswell
   Copyright (c) 2011-2014, The OpenBLAS Project


Your calculation utilizes the atom-pairwise dispersion correction
with the Becke-Johnson damping scheme (D3BJ)
Cite in your paper:
S.Grimme, S.Ehrlich, L.Goerigk, J Comput Chem, (2011), 32, 1456–1465 
S.Grimme, J.Antony, S.Ehrlich and H.Krieg, J.Chem.Phys., 132, (2010), 154104 
   

================================================================================

----- Orbital basis set information -----
Your calculation utilizes the basis: def2-TZVP
   F. Weigend and R. Ahlrichs, Phys. Chem. Chem. Phys. 7, 3297 (2005).

----- AuxJ basis set information -----
Your calculation utilizes the auxiliary basis: def2/J
   F. Weigend, Phys. Chem. Chem. Phys. 8, 1057 (2006).

================================================================================
                                        WARNINGS
                       Please study these warnings very carefully!
================================================================================


WARNING: Geometry Optimization
  ===> : Switching off AutoStart
         For restart on a previous wavefunction, please use MOREAD

INFO   : the flag for use of the SHARK integral package has been found!

================================================================================
                                       INPUT FILE
================================================================================
NAME = inp.inp
|  1> !OPT PBE D3BJ def2-TZVP CPCM(water)
|  2> 
|  3> *xyz -1 1
|  4> C     -4.170472   -1.980883    1.997930
|  5> C     -3.832831   -2.436432    0.720901
|  6> H     -6.997464   -3.795245    2.498342
|  7> C     -5.313431   -2.461405    2.658416
|  8> H     -3.544345   -1.242457    2.496551
|  9> C     -4.634616   -3.381554    0.083236
| 10> H     -2.944535   -2.049766    0.231498
| 11> C     -5.772825   -3.870599    0.721928
| 12> H     -4.373254   -3.735981   -0.908536
| 13> C     -6.108275   -3.413501    1.998829
| 14> H     -6.403473   -4.606667    0.233629
| 15> C     -5.679544   -1.966380    4.045055
| 16> O     -4.909712   -1.103931    4.575806
| 17> O     -6.729752   -2.450104    4.575543
| 18> *
| 19> 
| 20>                          ****END OF INPUT****
================================================================================

                       *****************************
                       * Geometry Optimization Run *
                       *****************************

Geometry optimization settings:
Update method            Update   .... BFGS
Choice of coordinates    CoordSys .... Z-matrix Internals
Initial Hessian          InHess   .... Almoef's Model

Convergence Tolerances:
Energy Change            TolE     ....  5.0000e-06 Eh
Max. Gradient            TolMAXG  ....  3.0000e-04 Eh/bohr
RMS Gradient             TolRMSG  ....  1.0000e-04 Eh/bohr
Max. Displacement        TolMAXD  ....  4.0000e-03 bohr
RMS Displacement         TolRMSD  ....  2.0000e-03 bohr
Strict Convergence                ....  False
------------------------------------------------------------------------------
                        ORCA OPTIMIZATION COORDINATE SETUP
------------------------------------------------------------------------------

The optimization will be done in new redundant internal coordinates
Making redundant internal coordinates   ...  (new redundants) done
Evaluating the initial hessian          ...  (Almloef) done
Evaluating the coordinates              ...  done
Calculating the B-matrix                .... done
Calculating the G-matrix                .... done
Diagonalizing the G-matrix              .... done
The first mode is                       ....   27
The number of degrees of freedom        ....   36

    -----------------------------------------------------------------
                    Redundant Internal Coordinates


    -----------------------------------------------------------------
         Definition                    Initial Value    Approx d2E/dq
    -----------------------------------------------------------------
      1. B(C   1,C   0)                  1.3973         0.608358   
      2. B(C   3,C   0)                  1.4048         0.591706   
      3. B(H   4,C   0)                  1.0890         0.361419   
      4. B(C   5,C   1)                  1.3938         0.616092   
      5. B(H   6,C   1)                  1.0854         0.366235   
      6. B(C   7,C   5)                  1.3938         0.616189   
      7. B(H   8,C   5)                  1.0851         0.366580   
      8. B(C   9,C   7)                  1.3971         0.608668   
      9. B(C   9,C   3)                  1.4047         0.591845   
     10. B(C   9,H   2)                  1.0890         0.361439   
     11. B(H  10,C   7)                  1.0853         0.366326   
     12. B(C  11,C   3)                  1.5172         0.391579   
     13. B(O  12,C  11)                  1.2721         0.863036   
     14. B(O  13,C  11)                  1.2721         0.862803   
     15. A(C   3,C   0,H   4)          118.9765         0.350350   
     16. A(C   1,C   0,C   3)          120.9832         0.428975   
     17. A(C   1,C   0,H   4)          120.0403         0.351997   
     18. A(C   0,C   1,C   5)          120.0132         0.432097   
     19. A(C   5,C   1,H   6)          120.4017         0.353541   
     20. A(C   0,C   1,H   6)          119.5851         0.352786   
     21. A(C   9,C   3,C  11)          120.9133         0.396725   
     22. A(C   0,C   3,C   9)          118.1273         0.426864   
     23. A(C   0,C   3,C  11)          120.9594         0.396709   
     24. A(C   1,C   5,C   7)          119.8706         0.433092   
     25. A(C   7,C   5,H   8)          120.0598         0.353607   
     26. A(C   1,C   5,H   8)          120.0696         0.353597   
     27. A(C   5,C   7,H  10)          120.4186         0.353565   
     28. A(C   5,C   7,C   9)          120.0062         0.432149   
     29. A(C   9,C   7,H  10)          119.5752         0.352831   
     30. A(C   3,C   9,C   7)          120.9994         0.429033   
     31. A(H   2,C   9,C   7)          120.0386         0.352030   
     32. A(H   2,C   9,C   3)          118.9619         0.350367   
     33. A(O  12,C  11,O  13)          125.6912         0.483203   
     34. A(C   3,C  11,O  13)          117.1466         0.421374   
     35. A(C   3,C  11,O  12)          117.1621         0.421394   
     36. D(H   6,C   1,C   0,C   3)   -180.0000         0.025553   
     37. D(C   5,C   1,C   0,C   3)      0.0000         0.025553   
     38. D(C   5,C   1,C   0,H   4)   -179.9999         0.025553   
     39. D(H   6,C   1,C   0,H   4)      0.0001         0.025553   
     40. D(C   9,C   3,C   0,C   1)     -0.0000         0.024101   
     41. D(C   9,C   3,C   0,H   4)    180.0000         0.024101   
     42. D(C  11,C   3,C   0,H   4)     -0.0001         0.024101   
     43. D(C  11,C   3,C   0,C   1)    180.0000         0.024101   
     44. D(H   8,C   5,C   1,H   6)      0.0001         0.026245   
     45. D(H   8,C   5,C   1,C   0)   -179.9999         0.026245   
     46. D(C   7,C   5,C   1,H   6)    180.0000         0.026245   
     47. D(C   7,C   5,C   1,C   0)     -0.0000         0.026245   
     48. D(H  10,C   7,C   5,C   1)   -180.0000         0.026254   
     49. D(C   9,C   7,C   5,H   8)    179.9999         0.026254   
     50. D(C   9,C   7,C   5,C   1)      0.0000         0.026254   
     51. D(H  10,C   7,C   5,H   8)     -0.0001         0.026254   
     52. D(C   3,C   9,C   7,H  10)   -180.0000         0.025580   
     53. D(H   2,C   9,C   7,H  10)      0.0000         0.025580   
     54. D(H   2,C   9,C   7,C   5)   -180.0000         0.025580   
     55. D(C   7,C   9,C   3,C  11)    180.0000         0.024113   
     56. D(C   7,C   9,C   3,C   0)     -0.0000         0.024113   
     57. D(C   3,C   9,C   7,C   5)      0.0000         0.025580   
     58. D(H   2,C   9,C   3,C  11)      0.0000         0.024113   
     59. D(H   2,C   9,C   3,C   0)    180.0000         0.024113   
     60. D(O  13,C  11,C   3,C   9)      0.0001         0.010570   
     61. D(O  13,C  11,C   3,C   0)   -179.9999         0.010570   
     62. D(O  12,C  11,C   3,C   9)   -179.9999         0.010570   
     63. D(O  12,C  11,C   3,C   0)      0.0001         0.010570   
    -----------------------------------------------------------------

Number of atoms                         .... 14
Number of degrees of freedom            .... 63

         *************************************************************
         *                GEOMETRY OPTIMIZATION CYCLE   1            *
         *************************************************************
---------------------------------
CARTESIAN COORDINATES (ANGSTROEM)
---------------------------------
  C     -4.170472   -1.980883    1.997930
  C     -3.832831   -2.436432    0.720901
  H     -6.997464   -3.795245    2.498342
  C     -5.313431   -2.461405    2.658416
  H     -3.544345   -1.242457    2.496551
  C     -4.634616   -3.381554    0.083236
  H     -2.944535   -2.049766    0.231498
  C     -5.772825   -3.870599    0.721928
  H     -4.373254   -3.735981   -0.908536
  C     -6.108275   -3.413501    1.998829
  H     -6.403473   -4.606667    0.233629
  C     -5.679544   -1.966380    4.045055
  O     -4.909712   -1.103931    4.575806
  O     -6.729752   -2.450104    4.575543

----------------------------
CARTESIAN COORDINATES (A.U.)
----------------------------
  NO LB      ZA    FRAG     MASS         X           Y           Z
   0 C     6.0000    0    12.011   -7.881050   -3.743326    3.775541
   1 C     6.0000    0    12.011   -7.243001   -4.604189    1.362305
   2 H     1.0000    0     1.008  -13.223291   -7.171974    4.721182
   3 C     6.0000    0    12.011  -10.040929   -4.651381    5.023678
   4 H     1.0000    0     1.008   -6.697841   -2.347903    4.717798
   5 C     6.0000    0    12.011   -8.758155   -6.390211    0.157293
   6 H     1.0000    0     1.008   -5.564365   -3.873496    0.437468
   7 C     6.0000    0    12.011  -10.909058   -7.314372    1.364246
   8 H     1.0000    0     1.008   -8.264252   -7.059981   -1.716884
   9 C     6.0000    0    12.011  -11.542967   -6.450582    3.777239
  10 H     1.0000    0     1.008  -12.100810   -8.705339    0.441495
  11 C     6.0000    0    12.011  -10.732783   -3.715920    7.644046
  12 O     8.0000    0    15.999   -9.278011   -2.086127    8.647020
  13 O     8.0000    0    15.999  -12.717388   -4.630026    8.646523

--------------------------------
INTERNAL COORDINATES (ANGSTROEM)
--------------------------------
 C      0   0   0     0.000000000000     0.00000000     0.00000000
 C      1   0   0     1.397257815553     0.00000000     0.00000000
 H      1   2   0     3.396204558747    99.30180806     0.00000000
 C      1   2   3     1.404812594036   120.98323262     0.00000000
 H      1   2   3     1.089004535916   120.04029236   180.00003179
 C      2   1   3     1.393819010250   120.01319311     0.00000000
 H      2   1   3     1.085401158826   119.58508534   180.00003279
 C      6   2   1     1.393776241213   119.87062566     0.00000000
 H      6   2   1     1.085145286751   120.06961131   180.00007846
 C      3   1   2     1.088989805474    20.84684899     0.00000000
 H      8   6   2     1.085333549619   120.41860073   180.00001416
 C      4   1   2     1.517186934994   120.95936809   179.99997736
 O     12   4   1     1.272067690741   117.16214125     0.00000000
 O     12   4   1     1.272141214482   117.14664098   180.00014130

---------------------------
INTERNAL COORDINATES (A.U.)
---------------------------
 C      0   0   0     0.000000000000     0.00000000     0.00000000
 C      1   0   0     2.640434609876     0.00000000     0.00000000
 H      1   2   0     6.417896510806    99.30180806     0.00000000
 C      1   2   3     2.654711072211   120.98323262     0.00000000
 H      1   2   3     2.057920331480   120.04029236   180.00003179
 C      2   1   3     2.633936209625   120.01319311     0.00000000
 H      2   1   3     2.051110935622   119.58508534   180.00003279
 C      6   2   1     2.633855387859   119.87062566     0.00000000
 H      6   2   1     2.050627407474   120.06961131   180.00007846
 C      3   1   2     2.057892494978    20.84684899     0.00000000
 H      8   6   2     2.050983172737   120.41860073   180.00001416
 C      4   1   2     2.867067801101   120.95936809   179.99997736
 O     12   4   1     2.403859559309   117.16214125     0.00000000
 O     12   4   1     2.403998499045   117.14664098   180.00014130

---------------------
BASIS SET INFORMATION
---------------------
There are 3 groups of distinct atoms

 Group   1 Type C   : 11s6p2d1f contracted to 5s3p2d1f pattern {62111/411/11/1}
 Group   2 Type H   : 5s1p contracted to 3s1p pattern {311/1}
 Group   3 Type O   : 11s6p2d1f contracted to 5s3p2d1f pattern {62111/411/11/1}

Atom   0C    basis set group =>   1
Atom   1C    basis set group =>   1
Atom   2H    basis set group =>   2
Atom   3C    basis set group =>   1
Atom   4H    basis set group =>   2
Atom   5C    basis set group =>   1
Atom   6H    basis set group =>   2
Atom   7C    basis set group =>   1
Atom   8H    basis set group =>   2
Atom   9C    basis set group =>   1
Atom  10H    basis set group =>   2
Atom  11C    basis set group =>   1
Atom  12O    basis set group =>   3
Atom  13O    basis set group =>   3
---------------------------------
AUXILIARY/J BASIS SET INFORMATION
---------------------------------
There are 3 groups of distinct atoms

 Group   1 Type C   : 12s5p4d2f1g contracted to 6s4p3d1f1g pattern {711111/2111/211/2/1}
 Group   2 Type H   : 5s2p1d contracted to 3s1p1d pattern {311/2/1}
 Group   3 Type O   : 12s5p4d2f1g contracted to 6s4p3d1f1g pattern {711111/2111/211/2/1}

Atom   0C    basis set group =>   1
Atom   1C    basis set group =>   1
Atom   2H    basis set group =>   2
Atom   3C    basis set group =>   1
Atom   4H    basis set group =>   2
Atom   5C    basis set group =>   1
Atom   6H    basis set group =>   2
Atom   7C    basis set group =>   1
Atom   8H    basis set group =>   2
Atom   9C    basis set group =>   1
Atom  10H    basis set group =>   2
Atom  11C    basis set group =>   1
Atom  12O    basis set group =>   3
Atom  13O    basis set group =>   3
------------------------------------------------------------------------------
                           ORCA GTO INTEGRAL CALCULATION
                           -- RI-GTO INTEGRALS CHOSEN --
------------------------------------------------------------------------------
------------------------------------------------------------------------------
                   ___                                                        
                  /   \      - P O W E R E D   B Y -                         
                 /     \                                                     
                 |  |  |   _    _      __       _____    __    __             
                 |  |  |  | |  | |    /  \     |  _  \  |  |  /  |          
                  \  \/   | |  | |   /    \    | | | |  |  | /  /          
                 / \  \   | |__| |  /  /\  \   | |_| |  |  |/  /          
                |  |  |   |  __  | /  /__\  \  |    /   |      \           
                |  |  |   | |  | | |   __   |  |    \   |  |\   \          
                \     /   | |  | | |  |  |  |  | |\  \  |  | \   \       
                 \___/    |_|  |_| |__|  |__|  |_| \__\ |__|  \__/        
                                                                              
                      - O R C A' S   B I G   F R I E N D -                    
                                      &                                       
                       - I N T E G R A L  F E E D E R -                       
                                                                              
 v1 FN, 2020, v2 2021                                                         
------------------------------------------------------------------------------


Reading SHARK input file inp.SHARKINP.tmp ... ok
----------------------
SHARK INTEGRAL PACKAGE
----------------------

Number of atoms                             ...     14
Number of basis functions                   ...    309
Number of shells                            ...    119
Maximum angular momentum                    ...      3
Integral batch strategy                     ... SHARK/LIBINT Hybrid
RI-J (if used) integral strategy            ... SPLIT-RIJ (Revised 2003 algorithm where possible)
Printlevel                                  ...      1
Contraction scheme used                     ... SEGMENTED contraction
Coulomb Range Separation                    ... NOT USED
Exchange Range Separation                   ... NOT USED
Finite Nucleus Model                        ... NOT USED
Auxiliary Coulomb fitting basis             ... AVAILABLE
   # of basis functions in Aux-J            ...    496
   # of shells in Aux-J                     ...    160
   Maximum angular momentum in Aux-J        ...      4
Auxiliary J/K fitting basis                 ... NOT available
Auxiliary Correlation fitting basis         ... NOT available
Auxiliary 'external' fitting basis          ... NOT available
Integral threshold                          ...     2.500000e-11
Primitive cut-off                           ...     2.500000e-12
Primitive pair pre-selection threshold      ...     2.500000e-12

Calculating pre-screening integrals         ... done (  0.1 sec) Dimension = 119
Organizing shell pair data                  ... done (  0.3 sec)
Shell pair information
Total number of shell pairs                 ...      7140
Shell pairs after pre-screening             ...      6444
Total number of primitive shell pairs       ...     22368
Primitive shell pairs kept                  ...     15022
          la=0 lb=0:   1562 shell pairs
          la=1 lb=0:   1764 shell pairs
          la=1 lb=1:    506 shell pairs
          la=2 lb=0:    972 shell pairs
          la=2 lb=1:    545 shell pairs
          la=2 lb=2:    158 shell pairs
          la=3 lb=0:    475 shell pairs
          la=3 lb=1:    271 shell pairs
          la=3 lb=2:    150 shell pairs
          la=3 lb=3:     41 shell pairs

Calculating one electron integrals          ... done (  0.0 sec)
Calculating RI/J V-Matrix + Cholesky decomp.... done (  0.3 sec)
Calculating Nuclear repulsion               ... done (  0.0 sec) ENN=    390.664996530059 Eh

SHARK setup successfully completed in   1.8 seconds

Maximum memory used throughout the entire GTOINT-calculation: 107.2 MB
-------------------------------------------------------------------------------
                                 ORCA SCF
-------------------------------------------------------------------------------

------------
SCF SETTINGS
------------
Hamiltonian:
 Density Functional     Method          .... DFT(GTOs)
 Exchange Functional    Exchange        .... PBE
   PBE kappa parameter   XKappa         ....  0.804000
   PBE mue parameter    XMuePBE         ....  0.219520
 Correlation Functional Correlation     .... PBE
   PBE beta parameter  CBetaPBE         ....  0.066725
 LDA part of GGA corr.  LDAOpt          .... PW91-LDA
 Gradients option       PostSCFGGA      .... off
   Density functional embedding theory  .... OFF
   NL short-range parameter             ....  6.400000
 RI-approximation to the Coulomb term is turned on
   Number of AuxJ basis functions       .... 496


General Settings:
 Integral files         IntName         .... inp
 Hartree-Fock type      HFTyp           .... RHF
 Total Charge           Charge          ....   -1
 Multiplicity           Mult            ....    1
 Number of Electrons    NEL             ....   64
 Basis Dimension        Dim             ....  309
 Nuclear Repulsion      ENuc            ....    390.6649965301 Eh

Convergence Acceleration:
 DIIS                   CNVDIIS         .... on
   Start iteration      DIISMaxIt       ....    12
   Startup error        DIISStart       ....  0.200000
   # of expansion vecs  DIISMaxEq       ....     5
   Bias factor          DIISBfac        ....   1.050
   Max. coefficient     DIISMaxC        ....  10.000
 Trust-Rad. Augm. Hess. CNVTRAH         .... auto
   Auto Start mean grad. ratio tolernc. ....  1.125000
   Auto Start start iteration           ....    20
   Auto Start num. interpolation iter.  ....    10
   Max. Number of Micro iterations      ....    16
   Max. Number of Macro iterations      .... Maxiter - #DIIS iter
   Number of Davidson start vectors     ....     2
   Converg. threshold I  (grad. norm)   ....   1.000e-05
   Converg. threshold II (energy diff.) ....   1.000e-08
   Grad. Scal. Fac. for Micro threshold ....   0.100
   Minimum threshold for Micro iter.    ....   0.010
   NR start threshold (gradient norm)   ....   0.001
   Initial trust radius                 ....   0.400
   Minimum AH scaling param. (alpha)    ....   1.000
   Maximum AH scaling param. (alpha)    .... 1000.000
   Orbital update algorithm             .... Taylor
   White noise on init. David. guess    .... on
   Maximum white noise                  ....   0.010
   Quad. conv. algorithm                .... NR
 SOSCF                  CNVSOSCF        .... on
   Start iteration      SOSCFMaxIt      ....   150
   Startup grad/error   SOSCFStart      ....  0.003300
 Level Shifting         CNVShift        .... on
   Level shift para.    LevelShift      ....    0.2500
   Turn off err/grad.   ShiftErr        ....    0.0010
 Zerner damping         CNVZerner       .... off
 Static damping         CNVDamp         .... on
   Fraction old density DampFac         ....    0.7000
   Max. Damping (<1)    DampMax         ....    0.9800
   Min. Damping (>=0)   DampMin         ....    0.0000
   Turn off err/grad.   DampErr         ....    0.1000
 Fernandez-Rico         CNVRico         .... off

SCF Procedure:
 Maximum # iterations   MaxIter         ....   125
 SCF integral mode      SCFMode         .... Direct
   Integral package                     .... SHARK and LIBINT hybrid scheme
 Reset frequency        DirectResetFreq ....    20
 Integral Threshold     Thresh          ....  2.500e-11 Eh
 Primitive CutOff       TCut            ....  2.500e-12 Eh

Convergence Tolerance:
 Convergence Check Mode ConvCheckMode   .... Total+1el-Energy
 Convergence forced     ConvForced      .... 0
 Energy Change          TolE            ....  1.000e-08 Eh
 1-El. energy change                    ....  1.000e-05 Eh
 Orbital Gradient       TolG            ....  1.000e-05
 Orbital Rotation angle TolX            ....  1.000e-05
 DIIS Error             TolErr          ....  5.000e-07


Diagonalization of the overlap matrix:
Smallest eigenvalue                        ... 9.067e-06
Time for diagonalization                   ...    0.014 sec
Threshold for overlap eigenvalues          ... 1.000e-08
Number of eigenvalues below threshold      ... 0
Time for construction of square roots      ...    0.191 sec
Total time needed                          ...    0.206 sec

Time for model grid setup =    0.401 sec

------------------------------
INITIAL GUESS: MODEL POTENTIAL
------------------------------
Loading Hartree-Fock densities                     ... done
Calculating cut-offs                               ... done
Initializing the effective Hamiltonian             ... done
Setting up the integral package (SHARK)            ... done
Starting the Coulomb interaction                   ... done (   0.6 sec)
Reading the grid                                   ... done
Mapping shells                                     ... done
Starting the XC term evaluation                    ... done (   0.5 sec)
  promolecular density results
     # of electrons  =     62.997283610
     EX              =    -53.489714177
     EC              =     -2.093627935
     EX+EC           =    -55.583342112
Transforming the Hamiltonian                       ... done (   0.0 sec)
Diagonalizing the Hamiltonian                      ... done (   0.0 sec)
Back transforming the eigenvectors                 ... done (   0.0 sec)
Now organizing SCF variables                       ... done
                      ------------------
                      INITIAL GUESS DONE (   1.5 sec)
                      ------------------
-------------------
DFT GRID GENERATION
-------------------

General Integration Accuracy     IntAcc      ... 4.388
Radial Grid Type                 RadialGrid  ... OptM3 with GC (2021)
Angular Grid (max. ang.)         AngularGrid ... 4 (Lebedev-302)
Angular grid pruning method      GridPruning ... 4 (adaptive)
Weight generation scheme         WeightScheme... Becke
Basis function cutoff            BFCut       ... 1.0000e-11
Integration weight cutoff        WCut        ... 1.0000e-14
Angular grids for H and He will be reduced by one unit
Partially contracted basis set               ... off
Rotationally invariant grid construction     ... off

Total number of grid points                  ...    70576
Total number of batches                      ...     1110
Average number of points per batch           ...       63
Average number of grid points per atom       ...     5041
Time for grid setup =    1.151 sec


--------------------
CPCM SOLVATION MODEL
--------------------
CPCM parameters:
  Epsilon                                         ...      80.4000
  Refrac                                          ...       1.3300
  Rsolv                                           ...       1.3000
  Surface type                                    ... GAUSSIAN VDW
  Epsilon function type                           ...         CPCM
Radii:
 Radius for C  used is    3.8550 Bohr (=   2.0400 Ang.)
 Radius for H  used is    2.4944 Bohr (=   1.3200 Ang.)
 Radius for O  used is    3.4469 Bohr (=   1.8240 Ang.)
Calculating surface                               ...        done! (  0.0s)
GEPOL surface points                              ...          811
GEPOL Volume                                      ...    1003.7336
GEPOL Surface-area                                ...     562.6221
Calculating surface distance matrix               ...        done! (  0.0s)
Performing Cholesky decomposition & store         ...        done! (  0.2s)
Overall time for CPCM initialization              ...                 0.2s
--------------
SCF ITERATIONS
--------------
ITER       Energy         Delta-E        Max-DP      RMS-DP      [F,P]     Damp
               ***  Starting incremental Fock matrix formation  ***
  0   -419.7329731734   0.000000000000 0.58153550  0.00406141  0.3044026 0.7000
  1   -419.8857919563  -0.152818782856 0.54497576  0.00366677  0.1038863 0.7000
                               ***Turning on DIIS***
  2   -419.9330554891  -0.047263532855 0.53490338  0.00425854  0.0229762 0.0000
  3   -420.0198957221  -0.086840232981 0.52086676  0.00334697  0.0563939 0.0000
  4   -420.0357579623  -0.015862240161 0.13110324  0.00092620  0.0197715 0.0000
                      *** Initiating the SOSCF procedure ***
                           *** Shutting down DIIS ***
                      *** Re-Reading the Fockian *** 
                      *** Removing any level shift *** 
ITER      Energy       Delta-E        Grad      Rot      Max-DP    RMS-DP
  5   -420.03794995  -0.0021919914  0.000939  0.000939  0.044733  0.000324
               *** Restarting incremental Fock matrix formation ***
  6   -420.03801673  -0.0000667795  0.000482  0.001047  0.006404  0.000109
  7   -420.03801729  -0.0000005608  0.000606  0.000662  0.012690  0.000089
  8   -420.03802236  -0.0000050709  0.000180  0.000452  0.004071  0.000046
  9   -420.03802304  -0.0000006776  0.000127  0.000282  0.002672  0.000018
 10   -420.03802343  -0.0000003858  0.000080  0.000294  0.002452  0.000020
 11   -420.03802348  -0.0000000481  0.000057  0.000110  0.000299  0.000003
 12   -420.03802356  -0.0000000791  0.000018  0.000074  0.000995  0.000008
 13   -420.03802357  -0.0000000147  0.000017  0.000052  0.000421  0.000004
 14   -420.03802356   0.0000000065  0.000026  0.000036  0.000562  0.000004
 15   -420.03802357  -0.0000000043  0.000004  0.000019  0.000516  0.000003
 16   -420.03802358  -0.0000000077  0.000004  0.000005  0.000132  0.000002
                  ***Gradient check signals convergence***
              ***Rediagonalizing the Fockian in SOSCF/NRSCF***

               *****************************************************
               *                     SUCCESS                       *
               *           SCF CONVERGED AFTER  17 CYCLES          *
               *****************************************************


----------------
TOTAL SCF ENERGY
----------------

Total Energy       :         -420.03802357 Eh          -11429.81570 eV

Components:
Nuclear Repulsion  :          390.66499653 Eh           10630.53500 eV
Electronic Energy  :         -810.70302010 Eh          -22060.35070 eV
One Electron Energy:        -1357.45546765 Eh          -36938.24118 eV
Two Electron Energy:          546.75244755 Eh           14877.89048 eV
CPCM Dielectric    :           -0.10975001 Eh              -2.98645 eV

Virial components:
Potential Energy   :         -838.27941017 Eh          -22810.74243 eV
Kinetic Energy     :          418.24138660 Eh           11380.92672 eV
Virial Ratio       :            2.00429569


DFT components:
N(Alpha)           :       31.999962379591 electrons
N(Beta)            :       31.999962379591 electrons
N(Total)           :       63.999924759182 electrons
E(X)               :      -54.653494528419 Eh       
E(C)               :       -2.134984445177 Eh       
E(XC)              :      -56.788478973597 Eh       
DFET-embed. en.    :        0.000000000000 Eh       
CPCM Solvation Model Properties:
Surface-charge          :            0.97137066
Charge-correction       :           -0.00403664 Eh              -0.10984 eV
Free-energy (cav+disp)  :  This term is not implemented in the current solvation scheme

---------------
SCF CONVERGENCE
---------------

  Last Energy change         ...    7.3309e-09  Tolerance :   1.0000e-08
  Last MAX-Density change    ...    9.4889e-05  Tolerance :   1.0000e-07
  Last RMS-Density change    ...    1.5445e-06  Tolerance :   5.0000e-09
  Last Orbital Gradient      ...    1.4198e-06  Tolerance :   1.0000e-05
  Last Orbital Rotation      ...    6.0743e-06  Tolerance :   1.0000e-05

             **** THE GBW FILE WAS UPDATED (inp.gbw) ****
             **** DENSITY inp.scfp WAS UPDATED ****
             **** ENERGY FILE WAS UPDATED (inp.en.tmp) ****
             **** THE GBW FILE WAS UPDATED (inp.gbw) ****
             **** DENSITY inp.scfp WAS UPDATED ****
----------------
ORBITAL ENERGIES
----------------

  NO   OCC          E(Eh)            E(eV) 
   0   2.0000     -18.677957      -508.2531 
   1   2.0000     -18.677919      -508.2520 
   2   2.0000      -9.947286      -270.6794 
   3   2.0000      -9.882200      -268.9083 
   4   2.0000      -9.881654      -268.8935 
   5   2.0000      -9.881088      -268.8781 
   6   2.0000      -9.881010      -268.8759 
   7   2.0000      -9.878931      -268.8194 
   8   2.0000      -9.878877      -268.8179 
   9   2.0000      -0.916380       -24.9360 
  10   2.0000      -0.831900       -22.6372 
  11   2.0000      -0.771307       -20.9883 
  12   2.0000      -0.672701       -18.3051 
  13   2.0000      -0.667909       -18.1747 
  14   2.0000      -0.548738       -14.9319 
  15   2.0000      -0.535061       -14.5597 
  16   2.0000      -0.477459       -12.9923 
  17   2.0000      -0.430949       -11.7267 
  18   2.0000      -0.395846       -10.7715 
  19   2.0000      -0.383454       -10.4343 
  20   2.0000      -0.369344       -10.0504 
  21   2.0000      -0.364394        -9.9157 
  22   2.0000      -0.352369        -9.5885 
  23   2.0000      -0.337290        -9.1781 
  24   2.0000      -0.315084        -8.5739 
  25   2.0000      -0.303102        -8.2478 
  26   2.0000      -0.288000        -7.8369 
  27   2.0000      -0.228376        -6.2144 
  28   2.0000      -0.222909        -6.0657 
  29   2.0000      -0.203791        -5.5454 
  30   2.0000      -0.192493        -5.2380 
  31   2.0000      -0.175537        -4.7766 
  32   0.0000      -0.055265        -1.5038 
  33   0.0000      -0.038037        -1.0350 
  34   0.0000       0.042971         1.1693 
  35   0.0000       0.044272         1.2047 
  36   0.0000       0.072867         1.9828 
  37   0.0000       0.077771         2.1163 
  38   0.0000       0.098635         2.6840 
  39   0.0000       0.106718         2.9039 
  40   0.0000       0.119604         3.2546 
  41   0.0000       0.125345         3.4108 
  42   0.0000       0.137314         3.7365 
  43   0.0000       0.175350         4.7715 
  44   0.0000       0.175961         4.7882 
  45   0.0000       0.196680         5.3519 
  46   0.0000       0.204753         5.5716 
  47   0.0000       0.209827         5.7097 
  48   0.0000       0.211945         5.7673 
  49   0.0000       0.216005         5.8778 
  50   0.0000       0.224007         6.0955 
  51   0.0000       0.234108         6.3704 
  52   0.0000       0.235910         6.4194 
  53   0.0000       0.265417         7.2224 
  54   0.0000       0.278546         7.5796 
  55   0.0000       0.279530         7.6064 
  56   0.0000       0.295922         8.0524 
  57   0.0000       0.299415         8.1475 
  58   0.0000       0.325220         8.8497 
  59   0.0000       0.329405         8.9636 
  60   0.0000       0.339104         9.2275 
  61   0.0000       0.347280         9.4500 
  62   0.0000       0.373551        10.1648 
  63   0.0000       0.380536        10.3549 
  64   0.0000       0.391701        10.6587 
  65   0.0000       0.394416        10.7326 
  66   0.0000       0.405984        11.0474 
  67   0.0000       0.417172        11.3518 
  68   0.0000       0.429074        11.6757 
  69   0.0000       0.436795        11.8858 
  70   0.0000       0.452240        12.3061 
  71   0.0000       0.464276        12.6336 
  72   0.0000       0.466805        12.7024 
  73   0.0000       0.468274        12.7424 
  74   0.0000       0.476755        12.9732 
  75   0.0000       0.479659        13.0522 
  76   0.0000       0.494422        13.4539 
  77   0.0000       0.512925        13.9574 
  78   0.0000       0.537122        14.6158 
  79   0.0000       0.595475        16.2037 
  80   0.0000       0.598544        16.2872 
  81   0.0000       0.603181        16.4134 
  82   0.0000       0.624430        16.9916 
  83   0.0000       0.626295        17.0423 
  84   0.0000       0.651393        17.7253 
  85   0.0000       0.671073        18.2608 
  86   0.0000       0.690422        18.7873 
  87   0.0000       0.691453        18.8154 
  88   0.0000       0.701185        19.0802 
  89   0.0000       0.723551        19.6888 
  90   0.0000       0.730166        19.8688 
  91   0.0000       0.743675        20.2364 
  92   0.0000       0.752320        20.4717 
  93   0.0000       0.755893        20.5689 
  94   0.0000       0.786627        21.4052 
  95   0.0000       0.793786        21.6000 
  96   0.0000       0.836458        22.7612 
  97   0.0000       0.852861        23.2075 
  98   0.0000       0.866978        23.5917 
  99   0.0000       0.873668        23.7737 
 100   0.0000       0.905553        24.6414 
 101   0.0000       0.928945        25.2779 
 102   0.0000       0.931350        25.3433 
 103   0.0000       0.959039        26.0968 
 104   0.0000       0.968001        26.3406 
 105   0.0000       1.024372        27.8746 
 106   0.0000       1.029941        28.0261 
 107   0.0000       1.054173        28.6855 
 108   0.0000       1.061766        28.8921 
 109   0.0000       1.096897        29.8481 
 110   0.0000       1.133249        30.8373 
 111   0.0000       1.166165        31.7330 
 112   0.0000       1.169541        31.8248 
 113   0.0000       1.174795        31.9678 
 114   0.0000       1.191771        32.4297 
 115   0.0000       1.196741        32.5650 
 116   0.0000       1.210249        32.9325 
 117   0.0000       1.217723        33.1359 
 118   0.0000       1.258609        34.2485 
 119   0.0000       1.327421        36.1210 
 120   0.0000       1.329046        36.1652 
 121   0.0000       1.332373        36.2557 
 122   0.0000       1.350449        36.7476 
 123   0.0000       1.403702        38.1967 
 124   0.0000       1.404335        38.2139 
 125   0.0000       1.409302        38.3491 
 126   0.0000       1.427180        38.8355 
 127   0.0000       1.446700        39.3667 
 128   0.0000       1.459237        39.7079 
 129   0.0000       1.489259        40.5248 
 130   0.0000       1.494737        40.6739 
 131   0.0000       1.509551        41.0770 
 132   0.0000       1.558597        42.4116 
 133   0.0000       1.565281        42.5935 
 134   0.0000       1.586292        43.1652 
 135   0.0000       1.591465        43.3060 
 136   0.0000       1.598390        43.4944 
 137   0.0000       1.633725        44.4559 
 138   0.0000       1.635014        44.4910 
 139   0.0000       1.637371        44.5551 
 140   0.0000       1.647045        44.8184 
 141   0.0000       1.717805        46.7438 
 142   0.0000       1.720076        46.8057 
 143   0.0000       1.779892        48.4333 
 144   0.0000       1.803476        49.0751 
 145   0.0000       1.810251        49.2594 
 146   0.0000       1.810715        49.2720 
 147   0.0000       1.843846        50.1736 
 148   0.0000       1.902742        51.7762 
 149   0.0000       1.907463        51.9047 
 150   0.0000       1.950572        53.0778 
 151   0.0000       1.952866        53.1402 
 152   0.0000       1.998234        54.3747 
 153   0.0000       2.007386        54.6238 
 154   0.0000       2.031078        55.2684 
 155   0.0000       2.035303        55.3834 
 156   0.0000       2.039828        55.5065 
 157   0.0000       2.064722        56.1839 
 158   0.0000       2.080238        56.6062 
 159   0.0000       2.130867        57.9838 
 160   0.0000       2.156312        58.6762 
 161   0.0000       2.175069        59.1866 
 162   0.0000       2.183001        59.4025 
 163   0.0000       2.219621        60.3990 
 164   0.0000       2.267339        61.6974 
 165   0.0000       2.301048        62.6147 
 166   0.0000       2.335344        63.5480 
 167   0.0000       2.347600        63.8814 
 168   0.0000       2.381634        64.8076 
 169   0.0000       2.391400        65.0733 
 170   0.0000       2.463824        67.0441 
 171   0.0000       2.497999        67.9740 
 172   0.0000       2.511284        68.3355 
 173   0.0000       2.527635        68.7804 
 174   0.0000       2.551758        69.4369 
 175   0.0000       2.558940        69.6323 
 176   0.0000       2.563806        69.7647 
 177   0.0000       2.577490        70.1371 
 178   0.0000       2.597113        70.6710 
 179   0.0000       2.599421        70.7338 
 180   0.0000       2.611197        71.0543 
 181   0.0000       2.645155        71.9783 
 182   0.0000       2.647522        72.0427 
 183   0.0000       2.652948        72.1904 
 184   0.0000       2.664406        72.5022 
 185   0.0000       2.712727        73.8170 
 186   0.0000       2.720303        74.0232 
 187   0.0000       2.723120        74.0999 
 188   0.0000       2.754431        74.9519 
 189   0.0000       2.757792        75.0433 
 190   0.0000       2.763917        75.2100 
 191   0.0000       2.784414        75.7678 
 192   0.0000       2.787877        75.8620 
 193   0.0000       2.811884        76.5153 
 194   0.0000       2.859442        77.8094 
 195   0.0000       2.863177        77.9110 
 196   0.0000       2.878636        78.3317 
 197   0.0000       2.885417        78.5162 
 198   0.0000       2.913851        79.2899 
 199   0.0000       2.922387        79.5222 
 200   0.0000       2.949257        80.2534 
 201   0.0000       3.016571        82.0851 
 202   0.0000       3.048165        82.9448 
 203   0.0000       3.049516        82.9816 
 204   0.0000       3.061992        83.3210 
 205   0.0000       3.077235        83.7358 
 206   0.0000       3.080039        83.8121 
 207   0.0000       3.082875        83.8893 
 208   0.0000       3.092214        84.1434 
 209   0.0000       3.101160        84.3869 
 210   0.0000       3.133847        85.2763 
 211   0.0000       3.158308        85.9419 
 212   0.0000       3.166388        86.1618 
 213   0.0000       3.171554        86.3024 
 214   0.0000       3.211161        87.3801 
 215   0.0000       3.216745        87.5321 
 216   0.0000       3.227399        87.8220 
 217   0.0000       3.255451        88.5853 
 218   0.0000       3.271744        89.0287 
 219   0.0000       3.288217        89.4769 
 220   0.0000       3.289190        89.5034 
 221   0.0000       3.294981        89.6610 
 222   0.0000       3.313868        90.1749 
 223   0.0000       3.315766        90.2266 
 224   0.0000       3.332380        90.6787 
 225   0.0000       3.366305        91.6018 
 226   0.0000       3.373868        91.8076 
 227   0.0000       3.401685        92.5645 
 228   0.0000       3.421167        93.0947 
 229   0.0000       3.426391        93.2368 
 230   0.0000       3.463392        94.2437 
 231   0.0000       3.481375        94.7330 
 232   0.0000       3.501359        95.2768 
 233   0.0000       3.529051        96.0304 
 234   0.0000       3.540213        96.3341 
 235   0.0000       3.555038        96.7375 
 236   0.0000       3.623572        98.6024 
 237   0.0000       3.673515        99.9614 
 238   0.0000       3.698936       100.6532 
 239   0.0000       3.746396       101.9446 
 240   0.0000       3.756852       102.2291 
 241   0.0000       3.802210       103.4634 
 242   0.0000       3.852004       104.8183 
 243   0.0000       3.879118       105.5562 
 244   0.0000       3.890085       105.8546 
 245   0.0000       3.942870       107.2909 
 246   0.0000       3.977414       108.2309 
 247   0.0000       4.052582       110.2764 
 248   0.0000       4.068361       110.7057 
 249   0.0000       4.104798       111.6972 
 250   0.0000       4.121194       112.1434 
 251   0.0000       4.123945       112.2183 
 252   0.0000       4.126163       112.2786 
 253   0.0000       4.136254       112.5532 
 254   0.0000       4.147061       112.8473 
 255   0.0000       4.211616       114.6039 
 256   0.0000       4.239740       115.3692 
 257   0.0000       4.265808       116.0785 
 258   0.0000       4.301481       117.0492 
 259   0.0000       4.385355       119.3316 
 260   0.0000       4.431376       120.5839 
 261   0.0000       4.502098       122.5083 
 262   0.0000       4.534391       123.3871 
 263   0.0000       4.563041       124.1667 
 264   0.0000       4.641220       126.2940 
 265   0.0000       4.692221       127.6818 
 266   0.0000       4.766984       129.7162 
 267   0.0000       4.784091       130.1817 
 268   0.0000       4.863897       132.3534 
 269   0.0000       4.898108       133.2843 
 270   0.0000       5.071871       138.0126 
 271   0.0000       5.082901       138.3128 
 272   0.0000       5.103325       138.8685 
 273   0.0000       5.107725       138.9883 
 274   0.0000       5.148893       140.1085 
 275   0.0000       5.156199       140.3073 
 276   0.0000       5.230331       142.3245 
 277   0.0000       5.247957       142.8042 
 278   0.0000       5.250166       142.8643 
 279   0.0000       5.330390       145.0473 
 280   0.0000       5.430734       147.7778 
 281   0.0000       5.479435       149.1030 
 282   0.0000       5.538669       150.7148 
 283   0.0000       5.547814       150.9637 
 284   0.0000       5.744251       156.3090 
 285   0.0000       5.934834       161.4951 
 286   0.0000       6.000074       163.2703 
 287   0.0000       6.089010       165.6904 
 288   0.0000       6.217033       169.1741 
 289   0.0000       6.243942       169.9063 
 290   0.0000       6.335481       172.3972 
 291   0.0000       6.337219       172.4445 
 292   0.0000       6.425231       174.8394 
 293   0.0000       6.677601       181.7068 
 294   0.0000       6.693284       182.1335 
 295   0.0000       6.754338       183.7949 
 296   0.0000       6.847994       186.3434 
 297   0.0000       6.994060       190.3181 
 298   0.0000       7.069460       192.3698 
 299   0.0000       7.204414       196.0421 
 300   0.0000      21.789625       592.9258 
 301   0.0000      22.293885       606.6475 
 302   0.0000      22.333324       607.7206 
 303   0.0000      22.455412       611.0428 
 304   0.0000      22.526007       612.9638 
 305   0.0000      22.886140       622.7635 
 306   0.0000      23.235246       632.2632 
 307   0.0000      43.494690      1183.5507 
 308   0.0000      43.501786      1183.7438 

                    ********************************
                    * MULLIKEN POPULATION ANALYSIS *
                    ********************************

-----------------------
MULLIKEN ATOMIC CHARGES
-----------------------
   0 C :   -0.227658
   1 C :   -0.127475
   2 H :    0.110040
   3 C :    0.109195
   4 H :    0.110698
   5 C :   -0.140251
   6 H :    0.131051
   7 C :   -0.128392
   8 H :    0.132681
   9 C :   -0.226852
  10 H :    0.131171
  11 C :    0.169424
  12 O :   -0.521813
  13 O :   -0.521819
Sum of atomic charges:   -1.0000000

--------------------------------
MULLIKEN REDUCED ORBITAL CHARGES
--------------------------------
  0 C s       :     3.257476  s :     3.257476
      pz      :     0.967828  p :     2.870080
      px      :     0.945081
      py      :     0.957171
      dz2     :     0.020837  d :     0.093265
      dxz     :     0.029252
      dyz     :     0.017604
      dx2y2   :     0.010763
      dxy     :     0.014809
      f0      :     0.001134  f :     0.006837
      f+1     :     0.001525
      f-1     :     0.000785
      f+2     :     0.000869
      f-2     :     0.001136
      f+3     :     0.000886
      f-3     :     0.000501
  1 C s       :     3.198495  s :     3.198495
      pz      :     0.928697  p :     2.835825
      px      :     0.957515
      py      :     0.949612
      dz2     :     0.019774  d :     0.086407
      dxz     :     0.021131
      dyz     :     0.021620
      dx2y2   :     0.014891
      dxy     :     0.008991
      f0      :     0.001086  f :     0.006748
      f+1     :     0.001043
      f-1     :     0.001154
      f+2     :     0.001002
      f-2     :     0.000966
      f+3     :     0.000613
      f-3     :     0.000885
  2 H s       :     0.867422  s :     0.867422
      pz      :     0.006843  p :     0.022538
      px      :     0.010384
      py      :     0.005311
  3 C s       :     3.196080  s :     3.196080
      pz      :     0.907728  p :     2.560951
      px      :     0.797010
      py      :     0.856213
      dz2     :     0.030243  d :     0.124403
      dxz     :     0.024776
      dyz     :     0.020189
      dx2y2   :     0.023353
      dxy     :     0.025842
      f0      :     0.000940  f :     0.009372
      f+1     :     0.002124
      f-1     :     0.001519
      f+2     :     0.001454
      f-2     :     0.001238
      f+3     :     0.001064
      f-3     :     0.001034
  4 H s       :     0.866774  s :     0.866774
      pz      :     0.006832  p :     0.022527
      px      :     0.006909
      py      :     0.008786
  5 C s       :     3.202655  s :     3.202655
      pz      :     0.967539  p :     2.844571
      px      :     0.930378
      py      :     0.946654
      dz2     :     0.021436  d :     0.086267
      dxz     :     0.014090
      dyz     :     0.011342
      dx2y2   :     0.020646
      dxy     :     0.018753
      f0      :     0.000352  f :     0.006758
      f+1     :     0.001379
      f-1     :     0.000996
      f+2     :     0.000966
      f-2     :     0.000957
      f+3     :     0.001115
      f-3     :     0.000993
  6 H s       :     0.847144  s :     0.847144
      pz      :     0.005912  p :     0.021805
      px      :     0.010287
      py      :     0.005605
  7 C s       :     3.198511  s :     3.198511
      pz      :     0.928933  p :     2.836732
      px      :     0.942815
      py      :     0.964984
      dz2     :     0.019815  d :     0.086403
      dxz     :     0.026191
      dyz     :     0.016529
      dx2y2   :     0.010489
      dxy     :     0.013378
      f0      :     0.001086  f :     0.006747
      f+1     :     0.001468
      f-1     :     0.000728
      f+2     :     0.000832
      f-2     :     0.001137
      f+3     :     0.000985
      f-3     :     0.000513
  8 H s       :     0.845543  s :     0.845543
      pz      :     0.011651  p :     0.021776
      px      :     0.004717
      py      :     0.005407
  9 C s       :     3.257286  s :     3.257286
      pz      :     0.967765  p :     2.869466
      px      :     0.951757
      py      :     0.949944
      dz2     :     0.020835  d :     0.093261
      dxz     :     0.023435
      dyz     :     0.023413
      dx2y2   :     0.015703
      dxy     :     0.009876
      f0      :     0.001136  f :     0.006839
      f+1     :     0.001110
      f-1     :     0.001200
      f+2     :     0.001040
      f-2     :     0.000965
      f+3     :     0.000558
      f-3     :     0.000830
 10 H s       :     0.847021  s :     0.847021
      pz      :     0.005906  p :     0.021808
      px      :     0.007259
      py      :     0.008644
 11 C s       :     2.963585  s :     2.963585
      pz      :     0.981853  p :     2.642407
      px      :     0.819976
      py      :     0.840578
      dz2     :     0.031418  d :     0.201381
      dxz     :     0.044614
      dyz     :     0.031424
      dx2y2   :     0.058328
      dxy     :     0.035597
      f0      :     0.001675  f :     0.023203
      f+1     :     0.005354
      f-1     :     0.003203
      f+2     :     0.003402
      f-2     :     0.003007
      f+3     :     0.003031
      f-3     :     0.003531
 12 O s       :     3.773639  s :     3.773639
      pz      :     1.688648  p :     4.721091
      px      :     1.563361
      py      :     1.469082
      dz2     :     0.003587  d :     0.025540
      dxz     :     0.004688
      dyz     :     0.004567
      dx2y2   :     0.006445
      dxy     :     0.006253
      f0      :     0.000142  f :     0.001542
      f+1     :     0.000180
      f-1     :     0.000190
      f+2     :     0.000183
      f-2     :     0.000308
      f+3     :     0.000264
      f-3     :     0.000276
 13 O s       :     3.773726  s :     3.773726
      pz      :     1.688826  p :     4.721013
      px      :     1.436102
      py      :     1.596084
      dz2     :     0.003585  d :     0.025538
      dxz     :     0.006332
      dyz     :     0.002922
      dx2y2   :     0.006602
      dxy     :     0.006097
      f0      :     0.000142  f :     0.001542
      f+1     :     0.000289
      f-1     :     0.000081
      f+2     :     0.000225
      f-2     :     0.000265
      f+3     :     0.000305
      f-3     :     0.000235


                     *******************************
                     * LOEWDIN POPULATION ANALYSIS *
                     *******************************

----------------------
LOEWDIN ATOMIC CHARGES
----------------------
   0 C :   -0.120500
   1 C :   -0.156133
   2 H :    0.146838
   3 C :   -0.142771
   4 H :    0.146939
   5 C :   -0.153994
   6 H :    0.148536
   7 C :   -0.156254
   8 H :    0.148947
   9 C :   -0.120405
  10 H :    0.148527
  11 C :   -0.648979
  12 O :   -0.120379
  13 O :   -0.120373

-------------------------------
LOEWDIN REDUCED ORBITAL CHARGES
-------------------------------
  0 C s       :     2.770065  s :     2.770065
      pz      :     1.018284  p :     2.930277
      px      :     0.979402
      py      :     0.932592
      dz2     :     0.090159  d :     0.378930
      dxz     :     0.109414
      dyz     :     0.076074
      dx2y2   :     0.040032
      dxy     :     0.063251
      f0      :     0.006509  f :     0.041227
      f+1     :     0.009792
      f-1     :     0.006252
      f+2     :     0.005929
      f-2     :     0.004684
      f+3     :     0.004169
      f-3     :     0.003893
  1 C s       :     2.772031  s :     2.772031
      pz      :     1.025414  p :     2.958199
      px      :     0.966992
      py      :     0.965793
      dz2     :     0.090588  d :     0.383807
      dxz     :     0.096984
      dyz     :     0.090206
      dx2y2   :     0.056605
      dxy     :     0.049424
      f0      :     0.006474  f :     0.042095
      f+1     :     0.008011
      f-1     :     0.008317
      f+2     :     0.005579
      f-2     :     0.005057
      f+3     :     0.003495
      f-3     :     0.005161
  2 H s       :     0.792114  s :     0.792114
      pz      :     0.018158  p :     0.061048
      px      :     0.028120
      py      :     0.014770
  3 C s       :     2.732945  s :     2.732945
      pz      :     0.962060  p :     2.872220
      px      :     0.980945
      py      :     0.929216
      dz2     :     0.115733  d :     0.484944
      dxz     :     0.108977
      dyz     :     0.087422
      dx2y2   :     0.085625
      dxy     :     0.087187
      f0      :     0.005497  f :     0.052661
      f+1     :     0.011958
      f-1     :     0.008475
      f+2     :     0.008704
      f-2     :     0.006340
      f+3     :     0.004728
      f-3     :     0.006960
  4 H s       :     0.792007  s :     0.792007
      pz      :     0.018130  p :     0.061054
      px      :     0.019140
      py      :     0.023784
  5 C s       :     2.771776  s :     2.771776
      pz      :     0.976286  p :     2.952669
      px      :     1.013005
      py      :     0.963378
      dz2     :     0.090696  d :     0.386986
      dxz     :     0.076194
      dyz     :     0.057145
      dx2y2   :     0.082158
      dxy     :     0.080793
      f0      :     0.002662  f :     0.042562
      f+1     :     0.009071
      f-1     :     0.005966
      f+2     :     0.007486
      f-2     :     0.005734
      f+3     :     0.004790
      f-3     :     0.006853
  6 H s       :     0.791729  s :     0.791729
      pz      :     0.016419  p :     0.059735
      px      :     0.027803
      py      :     0.015514
  7 C s       :     2.771980  s :     2.771980
      pz      :     1.025525  p :     2.958287
      px      :     0.993068
      py      :     0.939695
      dz2     :     0.090697  d :     0.383878
      dxz     :     0.112179
      dyz     :     0.074982
      dx2y2   :     0.041506
      dxy     :     0.064513
      f0      :     0.006474  f :     0.042109
      f+1     :     0.010072
      f-1     :     0.006267
      f+2     :     0.005938
      f-2     :     0.004707
      f+3     :     0.004493
      f-3     :     0.004158
  8 H s       :     0.791330  s :     0.791330
      pz      :     0.031438  p :     0.059723
      px      :     0.013293
      py      :     0.014992
  9 C s       :     2.769993  s :     2.769993
      pz      :     1.018243  p :     2.930115
      px      :     0.963178
      py      :     0.948694
      dz2     :     0.090114  d :     0.379052
      dxz     :     0.097625
      dyz     :     0.087985
      dx2y2   :     0.054695
      dxy     :     0.048633
      f0      :     0.006514  f :     0.041245
      f+1     :     0.007962
      f-1     :     0.008086
      f+2     :     0.005596
      f-2     :     0.005018
      f+3     :     0.003269
      f-3     :     0.004800
 10 H s       :     0.791728  s :     0.791728
      pz      :     0.016400  p :     0.059745
      px      :     0.019933
      py      :     0.023412
 11 C s       :     2.773467  s :     2.773467
      pz      :     0.954202  p :     2.750777
      px      :     0.920829
      py      :     0.875746
      dz2     :     0.198305  d :     0.976911
      dxz     :     0.206172
      dyz     :     0.149453
      dx2y2   :     0.216917
      dxy     :     0.206064
      f0      :     0.010706  f :     0.147824
      f+1     :     0.033851
      f-1     :     0.020400
      f+2     :     0.025559
      f-2     :     0.017671
      f+3     :     0.016123
      f-3     :     0.023514
 12 O s       :     3.441533  s :     3.441533
      pz      :     1.602845  p :     4.615614
      px      :     1.545153
      py      :     1.467616
      dz2     :     0.008184  d :     0.058296
      dxz     :     0.009795
      dyz     :     0.012174
      dx2y2   :     0.011297
      dxy     :     0.016844
      f0      :     0.000500  f :     0.004936
      f+1     :     0.000520
      f-1     :     0.000622
      f+2     :     0.000397
      f-2     :     0.001155
      f+3     :     0.000870
      f-3     :     0.000871
 13 O s       :     3.441572  s :     3.441572
      pz      :     1.602901  p :     4.615581
      px      :     1.481404
      py      :     1.531277
      dz2     :     0.008180  d :     0.058286
      dxz     :     0.016804
      dyz     :     0.005158
      dx2y2   :     0.013280
      dxy     :     0.014864
      f0      :     0.000500  f :     0.004934
      f+1     :     0.000922
      f-1     :     0.000219
      f+2     :     0.000726
      f-2     :     0.000825
      f+3     :     0.000762
      f-3     :     0.000979


                      *****************************
                      * MAYER POPULATION ANALYSIS *
                      *****************************

  NA   - Mulliken gross atomic population
  ZA   - Total nuclear charge
  QA   - Mulliken gross atomic charge
  VA   - Mayer's total valence
  BVA  - Mayer's bonded valence
  FA   - Mayer's free valence

  ATOM       NA         ZA         QA         VA         BVA        FA
  0 C      6.2277     6.0000    -0.2277     4.0025     4.0025     0.0000
  1 C      6.1275     6.0000    -0.1275     3.8805     3.8805     0.0000
  2 H      0.8900     1.0000     0.1100     1.0188     1.0188    -0.0000
  3 C      5.8908     6.0000     0.1092     3.1813     3.1813     0.0000
  4 H      0.8893     1.0000     0.1107     1.0185     1.0185     0.0000
  5 C      6.1403     6.0000    -0.1403     3.8941     3.8941    -0.0000
  6 H      0.8689     1.0000     0.1311     0.9631     0.9631     0.0000
  7 C      6.1284     6.0000    -0.1284     3.8818     3.8818    -0.0000
  8 H      0.8673     1.0000     0.1327     0.9613     0.9613    -0.0000
  9 C      6.2269     6.0000    -0.2269     4.0031     4.0031    -0.0000
 10 H      0.8688     1.0000     0.1312     0.9631     0.9631    -0.0000
 11 C      5.8306     6.0000     0.1694     4.6852     4.6852    -0.0000
 12 O      8.5218     8.0000    -0.5218     1.9297     1.9297     0.0000
 13 O      8.5218     8.0000    -0.5218     1.9297     1.9297     0.0000

  Mayer bond orders larger than 0.100000
B(  0-C ,  1-C ) :   1.4059 B(  0-C ,  3-C ) :   1.3568 B(  0-C ,  4-H ) :   0.9616 
B(  1-C ,  5-C ) :   1.3842 B(  1-C ,  6-H ) :   0.9725 B(  2-H ,  9-C ) :   0.9615 
B(  3-C ,  9-C ) :   1.3567 B(  3-C , 11-C ) :   0.8457 B(  3-C , 12-O ) :  -0.2254 
B(  3-C , 13-O ) :  -0.2256 B(  5-C ,  7-C ) :   1.3844 B(  5-C ,  8-H ) :   0.9675 
B(  7-C ,  9-C ) :   1.4066 B(  7-C , 10-H ) :   0.9724 B( 11-C , 12-O ) :   1.9026 
B( 11-C , 13-O ) :   1.9023 

-------
TIMINGS
-------

Total SCF time: 0 days 0 hours 1 min 7 sec 

Total time                  ....      67.729 sec
Sum of individual times     ....      64.254 sec  ( 94.9%)

Fock matrix formation       ....      60.553 sec  ( 89.4%)
  Split-RI-J                ....      12.070 sec  ( 19.9% of F)
  XC integration            ....      29.532 sec  ( 48.8% of F)
    Basis function eval.    ....       8.745 sec  ( 29.6% of XC)
    Density eval.           ....       7.577 sec  ( 25.7% of XC)
    XC-Functional eval.     ....       1.094 sec  (  3.7% of XC)
    XC-Potential eval.      ....       8.800 sec  ( 29.8% of XC)
Diagonalization             ....       0.109 sec  (  0.2%)
Density matrix formation    ....       0.019 sec  (  0.0%)
Population analysis         ....       0.096 sec  (  0.1%)
Initial guess               ....       1.091 sec  (  1.6%)
Orbital Transformation      ....       0.000 sec  (  0.0%)
Orbital Orthonormalization  ....       0.000 sec  (  0.0%)
DIIS solution               ....       0.250 sec  (  0.4%)
SOSCF solution              ....       0.584 sec  (  0.9%)
Grid generation             ....       1.552 sec  (  2.3%)

Maximum memory used throughout the entire SCF-calculation: 130.7 MB


-------------------------------------------------------------------------------
                          DFT DISPERSION CORRECTION                            
                                                                               
                              DFTD3 V3.1  Rev 1                                
                          USING Becke-Johnson damping                          
-------------------------------------------------------------------------------
The PBE functional is recognized
Active option DFTDOPT                   ...         4   

molecular C6(AA) [au] = 2601.925919 


            DFT-D V3
 parameters
 s6 scaling factor         :     1.0000 
 a1 scaling factor         :     0.4289 
 s8 scaling factor         :     0.7875 
 a2 scaling factor         :     4.4407 
 ad hoc parameters k1-k3   :    16.0000     1.3333    -4.0000 

 Edisp/kcal,au: -9.234494548849  -0.014716102219 
 E6   /kcal   :  -6.398752489 
 E8   /kcal   :  -2.835742060 
 % E8         :  30.708145904 

-------------------------   ----------------
Dispersion correction           -0.014716102
-------------------------   ----------------


-------------------------   --------------------
FINAL SINGLE POINT ENERGY      -420.052739670658
-------------------------   --------------------

------------------------------------------------------------------------------
                         ORCA SCF GRADIENT CALCULATION
------------------------------------------------------------------------------

Gradient of the Kohn-Sham DFT energy:
Kohn-Sham wavefunction type      ... RKS
Hartree-Fock exchange scaling    ...    0.000
Number of operators              ...    1
Number of atoms                  ...   14
Basis set dimensions             ...  309
Integral neglect threshold       ... 2.5e-11
Integral primitive cutoff        ... 2.5e-12
SHARK Integral package           ... ON

Nuc. rep. gradient       (SHARK) ... done (  0.0 sec)
HCore & Overlap gradient (SHARK) ... done (  0.4 sec)
RI-J gradient            (SHARK) ... done (  3.2 sec)
Exchange-correlation gradient    ... done
Dispersion correction            ... done

------------------
CARTESIAN GRADIENT
------------------

   1   C   :    0.001027534    0.001130974    0.000712004
   2   C   :    0.001752036   -0.001353812   -0.004758020
   3   H   :    0.000732828   -0.000308642   -0.001536099
   4   C   :   -0.001616683    0.002180651    0.006151018
   5   H   :   -0.000055388   -0.000917510   -0.001621423
   6   C   :   -0.000345495    0.000386908    0.001207507
   7   H   :   -0.003498032   -0.001195490    0.002507283
   8   C   :    0.000700032   -0.002101158   -0.004737614
   9   H   :   -0.001131457    0.001522460    0.004261086
  10   C   :   -0.001277107   -0.000512528    0.000635645
  11   H   :    0.002193624    0.003022824    0.002537205
  12   C   :    0.002517015   -0.003333426   -0.009201772
  13   O   :    0.001924194    0.002736826    0.002178817
  14   O   :   -0.002923100   -0.001258078    0.001664362

Difference to translation invariance:
           :    0.0000000000    0.0000000000    0.0000000000

Difference to rotation invariance:
           :   -0.0000073189   -0.0001376532    0.0001331660

Norm of the cartesian gradient     ...    0.0175065224
RMS gradient                       ...    0.0027013151
MAX gradient                       ...    0.0092017721

-------
TIMINGS
-------

Total SCF gradient time            ...       16.829 sec

One electron gradient       ....       0.446 sec  (  2.7%)
RI-J Coulomb gradient       ....       3.239 sec  ( 19.2%)
XC gradient                 ....      11.194 sec  ( 66.5%)
CPCM gradient               ....       0.727 sec  (  4.3%)
   A-Matrix (El+Nuc)        ....       0.039 sec  (  0.2%)
   Potential                ....       0.688 sec  (  4.1%)

Maximum memory used throughout the entire SCFGRAD-calculation: 130.5 MB
------------------------------------------------------------------------------
                         ORCA GEOMETRY RELAXATION STEP
------------------------------------------------------------------------------

Reading the OPT-File                    .... done
Getting information on internals        .... done
Copying old internal coords+grads       .... done
Making the new internal coordinates     .... (new redundants).... done
Validating the new internal coordinates .... (new redundants).... done
Calculating the B-matrix                .... done
Calculating the G,G- and P matrices     .... done
Transforming gradient to internals      .... done
Projecting the internal gradient        .... done
Number of atoms                         ....  14
Number of internal coordinates          ....  63
Current Energy                          ....  -420.052739671 Eh
Current gradient norm                   ....     0.017506522 Eh/bohr
Maximum allowed component of the step   ....  0.300
Current trust radius                    ....  0.300
Evaluating the initial hessian          ....  (Almloef) done
Projecting the Hessian                  .... done
Forming the augmented Hessian           .... done
Diagonalizing the augmented Hessian     .... done
Last element of RFO vector              ....  0.999471623
Lowest eigenvalues of augmented Hessian:
 -0.000396038  0.010569921  0.010571174  0.019901849  0.024307226
Length of the computed step             ....  0.032520638
The final length of the internal step   ....  0.032520638
Converting the step to cartesian space:
 Initial RMS(Int)=    0.0040972153
Transforming coordinates:
 Iter   0:  RMS(Cart)=    0.0066007214 RMS(Int)=    2.3744158849
 Iter   1:  RMS(Cart)=    0.0000113138 RMS(Int)=    0.0000094375
 Iter   2:  RMS(Cart)=    0.0000000724 RMS(Int)=    0.0000000466
done
Storing new coordinates                 .... done

                                .--------------------.
          ----------------------|Geometry convergence|-------------------------
          Item                value                   Tolerance       Converged
          ---------------------------------------------------------------------
          RMS gradient        0.0016810423            0.0001000000      NO
          MAX gradient        0.0058689852            0.0003000000      NO
          RMS step            0.0040972153            0.0020000000      NO
          MAX step            0.0149728366            0.0040000000      NO
          ........................................................
          Max(Bonds)      0.0079      Max(Angles)    0.23
          Max(Dihed)        0.44      Max(Improp)    0.00
          ---------------------------------------------------------------------

The optimization has not yet converged - more geometry cycles are needed


    ---------------------------------------------------------------------------
                         Redundant Internal Coordinates
                            (Angstroem and degrees)

        Definition                    Value    dE/dq     Step     New-Value
    ----------------------------------------------------------------------------
     1. B(C   1,C   0)                1.3973 -0.000472  0.0004    1.3977   
     2. B(C   3,C   0)                1.4048  0.000972 -0.0010    1.4038   
     3. B(H   4,C   0)                1.0890 -0.001397  0.0020    1.0910   
     4. B(C   5,C   1)                1.3938 -0.003923  0.0035    1.3973   
     5. B(H   6,C   1)                1.0854 -0.004420  0.0064    1.0918   
     6. B(C   7,C   5)                1.3938 -0.004020  0.0036    1.3974   
     7. B(H   8,C   5)                1.0851 -0.004664  0.0067    1.0919   
     8. B(C   9,C   7)                1.3971 -0.000629  0.0006    1.3977   
     9. B(C   9,C   3)                1.4047  0.000975 -0.0010    1.4037   
    10. B(C   9,H   2)                1.0890 -0.001194  0.0017    1.0907   
    11. B(H  10,C   7)                1.0853 -0.004466  0.0064    1.0918   
    12. B(C  11,C   3)                1.5172 -0.005869  0.0079    1.5251   
    13. B(O  12,C  11)                1.2721  0.003931 -0.0024    1.2697   
    14. B(O  13,C  11)                1.2721  0.003583 -0.0022    1.2699   
    15. A(C   3,C   0,H   4)          118.98  0.001499   -0.23    118.75   
    16. A(C   1,C   0,C   3)          120.98 -0.000453    0.04    121.03   
    17. A(C   1,C   0,H   4)          120.04 -0.001046    0.19    120.23   
    18. A(C   0,C   1,C   5)          120.01  0.000116    0.00    120.02   
    19. A(C   5,C   1,H   6)          120.40  0.000606   -0.11    120.29   
    20. A(C   0,C   1,H   6)          119.59 -0.000721    0.11    119.69   
    21. A(C   9,C   3,C  11)          120.91  0.000126    0.01    120.92   
    22. A(C   0,C   3,C   9)          118.13 -0.001082    0.11    118.23   
    23. A(C   0,C   3,C  11)          120.96  0.000956   -0.11    120.85   
    24. A(C   1,C   5,C   7)          119.87  0.001667   -0.19    119.68   
    25. A(C   7,C   5,H   8)          120.06 -0.000844    0.10    120.16   
    26. A(C   1,C   5,H   8)          120.07 -0.000823    0.09    120.16   
    27. A(C   5,C   7,H  10)          120.42  0.000652   -0.12    120.30   
    28. A(C   5,C   7,C   9)          120.01  0.000061    0.01    120.02   
    29. A(C   9,C   7,H  10)          119.58 -0.000714    0.10    119.68   
    30. A(C   3,C   9,C   7)          121.00 -0.000309    0.02    121.02   
    31. A(H   2,C   9,C   7)          120.04 -0.001130    0.20    120.24   
    32. A(H   2,C   9,C   3)          118.96  0.001439   -0.22    118.74   
    33. A(O  12,C  11,O  13)          125.69 -0.000726    0.09    125.78   
    34. A(C   3,C  11,O  13)          117.15 -0.000234    0.04    117.18   
    35. A(C   3,C  11,O  12)          117.16  0.000960   -0.13    117.04   
    36. D(H   6,C   1,C   0,C   3)   -180.00  0.000002   -0.00   -180.00   
    37. D(C   5,C   1,C   0,C   3)      0.00  0.000008   -0.02     -0.02   
    38. D(C   5,C   1,C   0,H   4)   -180.00  0.000006   -0.01   -180.01   
    39. D(H   6,C   1,C   0,H   4)      0.00 -0.000000    0.00      0.00   
    40. D(C   9,C   3,C   0,C   1)     -0.00 -0.000013    0.03      0.03   
    41. D(C   9,C   3,C   0,H   4)    180.00 -0.000011    0.03    180.03   
    42. D(C  11,C   3,C   0,H   4)     -0.00 -0.000001    0.00      0.00   
    43. D(C  11,C   3,C   0,C   1)    180.00 -0.000003    0.01    180.01   
    44. D(H   8,C   5,C   1,H   6)      0.00 -0.000001    0.00      0.00   
    45. D(H   8,C   5,C   1,C   0)   -180.00 -0.000007    0.02   -179.98   
    46. D(C   7,C   5,C   1,H   6)    180.00  0.000008   -0.02    179.98   
    47. D(C   7,C   5,C   1,C   0)     -0.00  0.000001   -0.00     -0.00   
    48. D(H  10,C   7,C   5,C   1)   -180.00 -0.000006    0.02   -179.98   
    49. D(C   9,C   7,C   5,H   8)    180.00  0.000003   -0.01    179.99   
    50. D(C   9,C   7,C   5,C   1)      0.00 -0.000006    0.01      0.01   
    51. D(H  10,C   7,C   5,H   8)     -0.00  0.000002   -0.00     -0.00   
    52. D(C   3,C   9,C   7,H  10)   -180.00  0.000001   -0.00   -180.00   
    53. D(H   2,C   9,C   7,H  10)      0.00  0.000002   -0.00     -0.00   
    54. D(H   2,C   9,C   7,C   5)   -180.00  0.000002   -0.00   -180.00   
    55. D(C   7,C   9,C   3,C  11)    180.00 -0.000001    0.00    180.00   
    56. D(C   7,C   9,C   3,C   0)     -0.00  0.000008   -0.02     -0.02   
    57. D(C   3,C   9,C   7,C   5)      0.00  0.000001   -0.00     -0.00   
[...]
 296   0.0000       6.850495       186.4115 
 297   0.0000       7.000376       190.4899 
 298   0.0000       7.070800       192.4063 
 299   0.0000       7.212835       196.2712 
 300   0.0000      21.776343       592.5644 
 301   0.0000      22.275622       606.1505 
 302   0.0000      22.310928       607.1112 
 303   0.0000      22.456186       611.0639 
 304   0.0000      22.506203       612.4249 
 305   0.0000      22.876710       622.5069 
 306   0.0000      23.245890       632.5528 
 307   0.0000      43.493586      1183.5206 
 308   0.0000      43.504295      1183.8120 

                    ********************************
                    * MULLIKEN POPULATION ANALYSIS *
                    ********************************

-----------------------
MULLIKEN ATOMIC CHARGES
-----------------------
   0 C :   -0.226223
   1 C :   -0.130165
   2 H :    0.110040
   3 C :    0.101064
   4 H :    0.110836
   5 C :   -0.140042
   6 H :    0.130452
   7 C :   -0.130530
   8 H :    0.133910
   9 C :   -0.226852
  10 H :    0.130625
  11 C :    0.170629
  12 O :   -0.516672
  13 O :   -0.517071
Sum of atomic charges:   -1.0000000

--------------------------------
MULLIKEN REDUCED ORBITAL CHARGES
--------------------------------
  0 C s       :     3.255736  s :     3.255736
      pz      :     0.964557  p :     2.869726
      px      :     0.946951
      py      :     0.958218
      dz2     :     0.020820  d :     0.093917
      dxz     :     0.029698
      dyz     :     0.017826
      dx2y2   :     0.010887
      dxy     :     0.014686
      f0      :     0.001138  f :     0.006844
      f+1     :     0.001527
      f-1     :     0.000795
      f+2     :     0.000870
      f-2     :     0.001136
      f+3     :     0.000889
      f-3     :     0.000491
  1 C s       :     3.203354  s :     3.203354
      pz      :     0.927841  p :     2.833893
      px      :     0.956451
      py      :     0.949600
      dz2     :     0.019659  d :     0.086195
      dxz     :     0.021176
      dyz     :     0.021589
      dx2y2   :     0.014768
      dxy     :     0.009003
      f0      :     0.001092  f :     0.006723
      f+1     :     0.001032
      f-1     :     0.001152
      f+2     :     0.000999
      f-2     :     0.000969
      f+3     :     0.000604
      f-3     :     0.000873
  2 H s       :     0.867456  s :     0.867456
      pz      :     0.006933  p :     0.022503
      px      :     0.010322
      py      :     0.005248
  3 C s       :     3.197587  s :     3.197587
      pz      :     0.912741  p :     2.567743
      px      :     0.797497
      py      :     0.857505
      dz2     :     0.030418  d :     0.124335
      dxz     :     0.024524
      dyz     :     0.020040
      dx2y2   :     0.023399
      dxy     :     0.025953
      f0      :     0.000906  f :     0.009272
      f+1     :     0.002101
      f-1     :     0.001505
      f+2     :     0.001421
      f-2     :     0.001218
      f+3     :     0.001077
      f-3     :     0.001044
  4 H s       :     0.866647  s :     0.866647
      pz      :     0.006967  p :     0.022518
      px      :     0.006786
      py      :     0.008764
  5 C s       :     3.204557  s :     3.204557
      pz      :     0.966504  p :     2.843190
      px      :     0.929979
      py      :     0.946706
      dz2     :     0.021363  d :     0.085577
      dxz     :     0.013936
      dyz     :     0.011306
      dx2y2   :     0.020357
      dxy     :     0.018615
      f0      :     0.000362  f :     0.006717
      f+1     :     0.001358
      f-1     :     0.000990
      f+2     :     0.000961
      f-2     :     0.000963
      f+3     :     0.001098
      f-3     :     0.000985
  6 H s       :     0.847962  s :     0.847962
      pz      :     0.005868  p :     0.021585
      px      :     0.010201
      py      :     0.005517
  7 C s       :     3.202928  s :     3.202928
      pz      :     0.927889  p :     2.834685
      px      :     0.942333
      py      :     0.964463
      dz2     :     0.019800  d :     0.086195
      dxz     :     0.026034
      dyz     :     0.016604
      dx2y2   :     0.010467
      dxy     :     0.013290
      f0      :     0.001094  f :     0.006722
      f+1     :     0.001454
      f-1     :     0.000726
      f+2     :     0.000833
      f-2     :     0.001139
      f+3     :     0.000972
      f-3     :     0.000505
  8 H s       :     0.844529  s :     0.844529
      pz      :     0.011604  p :     0.021561
      px      :     0.004635
      py      :     0.005323
  9 C s       :     3.256278  s :     3.256278
      pz      :     0.965022  p :     2.869817
      px      :     0.952730
      py      :     0.952066
      dz2     :     0.020833  d :     0.093913
      dxz     :     0.023712
      dyz     :     0.023745
      dx2y2   :     0.015863
      dxy     :     0.009760
      f0      :     0.001136  f :     0.006844
      f+1     :     0.001113
      f-1     :     0.001204
      f+2     :     0.001046
      f-2     :     0.000962
      f+3     :     0.000559
      f-3     :     0.000824
 10 H s       :     0.847787  s :     0.847787
      pz      :     0.005855  p :     0.021588
      px      :     0.007140
      py      :     0.008593
 11 C s       :     2.969696  s :     2.969696
      pz      :     0.974932  p :     2.632605
      px      :     0.817658
      py      :     0.840015
      dz2     :     0.032218  d :     0.203787
      dxz     :     0.045980
      dyz     :     0.030804
      dx2y2   :     0.058199
      dxy     :     0.036586
      f0      :     0.001666  f :     0.023283
      f+1     :     0.005447
      f-1     :     0.003076
      f+2     :     0.003383
      f-2     :     0.003020
      f+3     :     0.003085
      f-3     :     0.003606
 12 O s       :     3.771808  s :     3.771808
      pz      :     1.686733  p :     4.717650
      px      :     1.559470
      py      :     1.471447
      dz2     :     0.003622  d :     0.025660
      dxz     :     0.004834
      dyz     :     0.004451
      dx2y2   :     0.006505
      dxy     :     0.006249
      f0      :     0.000141  f :     0.001554
      f+1     :     0.000191
      f-1     :     0.000185
      f+2     :     0.000185
      f-2     :     0.000306
      f+3     :     0.000270
      f-3     :     0.000274
 13 O s       :     3.771806  s :     3.771806
      pz      :     1.689837  p :     4.718063
      px      :     1.433655
      py      :     1.594570
      dz2     :     0.003589  d :     0.025649
      dxz     :     0.006393
      dyz     :     0.002796
      dx2y2   :     0.006692
      dxy     :     0.006179
      f0      :     0.000142  f :     0.001553
      f+1     :     0.000295
      f-1     :     0.000077
      f+2     :     0.000226
      f-2     :     0.000259
      f+3     :     0.000313
      f-3     :     0.000241


                     *******************************
                     * LOEWDIN POPULATION ANALYSIS *
                     *******************************

----------------------
LOEWDIN ATOMIC CHARGES
----------------------
   0 C :   -0.124675
   1 C :   -0.157280
   2 H :    0.147268
   3 C :   -0.141749
   4 H :    0.147476
   5 C :   -0.154267
   6 H :    0.149412
   7 C :   -0.157322
   8 H :    0.149655
   9 C :   -0.124617
  10 H :    0.149413
  11 C :   -0.653735
  12 O :   -0.114538
  13 O :   -0.115043

-------------------------------
LOEWDIN REDUCED ORBITAL CHARGES
-------------------------------
  0 C s       :     2.770421  s :     2.770421
      pz      :     1.018715  p :     2.932977
      px      :     0.980933
      py      :     0.933328
      dz2     :     0.089969  d :     0.379920
      dxz     :     0.110009
      dyz     :     0.076657
      dx2y2   :     0.040328
      dxy     :     0.062957
      f0      :     0.006535  f :     0.041358
      f+1     :     0.009788
      f-1     :     0.006316
      f+2     :     0.005946
      f-2     :     0.004704
      f+3     :     0.004198
      f-3     :     0.003871
  1 C s       :     2.774844  s :     2.774844
      pz      :     1.025986  p :     2.958331
      px      :     0.966353
      py      :     0.965992
      dz2     :     0.090010  d :     0.382429
      dxz     :     0.097246
      dyz     :     0.090065
      dx2y2   :     0.056041
      dxy     :     0.049068
      f0      :     0.006445  f :     0.041675
      f+1     :     0.007929
      f-1     :     0.008272
      f+2     :     0.005543
      f-2     :     0.004988
      f+3     :     0.003438
      f-3     :     0.005060
  2 H s       :     0.791943  s :     0.791943
      pz      :     0.018358  p :     0.060789
      px      :     0.027879
      py      :     0.014552
  3 C s       :     2.735740  s :     2.735740
      pz      :     0.959505  p :     2.871718
      px      :     0.982046
      py      :     0.930167
      dz2     :     0.114993  d :     0.482065
      dxz     :     0.107395
      dyz     :     0.086301
      dx2y2   :     0.085809
      dxy     :     0.087567
      f0      :     0.005314  f :     0.052227
      f+1     :     0.011808
      f-1     :     0.008365
      f+2     :     0.008637
      f-2     :     0.006303
      f+3     :     0.004785
      f-3     :     0.007014
  4 H s       :     0.791695  s :     0.791695
      pz      :     0.018407  p :     0.060828
      px      :     0.018744
      py      :     0.023678
  5 C s       :     2.775974  s :     2.775974
      pz      :     0.976675  p :     2.953791
      px      :     1.012428
      py      :     0.964688
      dz2     :     0.089719  d :     0.382709
      dxz     :     0.075215
      dyz     :     0.056732
      dx2y2   :     0.081019
      dxy     :     0.080025
      f0      :     0.002606  f :     0.041792
      f+1     :     0.008876
      f-1     :     0.005881
      f+2     :     0.007401
      f-2     :     0.005640
      f+3     :     0.004692
      f-3     :     0.006697
  6 H s       :     0.791819  s :     0.791819
      pz      :     0.016178  p :     0.058769
      px      :     0.027425
      py      :     0.015166
  7 C s       :     2.774847  s :     2.774847
      pz      :     1.025818  p :     2.958397
      px      :     0.992287
      py      :     0.940292
      dz2     :     0.090118  d :     0.382409
      dxz     :     0.111654
      dyz     :     0.075485
      dx2y2   :     0.041320
      dxy     :     0.063833
      f0      :     0.006434  f :     0.041668
      f+1     :     0.009948
      f-1     :     0.006239
      f+2     :     0.005890
      f-2     :     0.004669
      f+3     :     0.004416
      f-3     :     0.004072
  8 H s       :     0.791447  s :     0.791447
      pz      :     0.031234  p :     0.058898
      px      :     0.012984
      py      :     0.014680
  9 C s       :     2.770345  s :     2.770345
      pz      :     1.018232  p :     2.933023
      px      :     0.963760
      py      :     0.951031
      dz2     :     0.089869  d :     0.379888
      dxz     :     0.098244
      dyz     :     0.088280
      dx2y2   :     0.054895
      dxy     :     0.048600
      f0      :     0.006533  f :     0.041361
      f+1     :     0.007994
      f-1     :     0.008083
      f+2     :     0.005615
      f-2     :     0.005043
      f+3     :     0.003308
      f-3     :     0.004785
 10 H s       :     0.791814  s :     0.791814
      pz      :     0.016141  p :     0.058773
      px      :     0.019491
      py      :     0.023141
 11 C s       :     2.775573  s :     2.775573
      pz      :     0.949971  p :     2.750150
      px      :     0.926732
      py      :     0.873448
      dz2     :     0.198461  d :     0.979684
      dxz     :     0.209996
      dyz     :     0.144543
      dx2y2   :     0.218613
      dxy     :     0.208070
      f0      :     0.010586  f :     0.148328
      f+1     :     0.034609
      f-1     :     0.019619
      f+2     :     0.025413
      f-2     :     0.017868
      f+3     :     0.016100
      f-3     :     0.024133
 12 O s       :     3.438503  s :     3.438503
      pz      :     1.600397  p :     4.612058
      px      :     1.544457
      py      :     1.467204
      dz2     :     0.008280  d :     0.058954
      dxz     :     0.010270
      dyz     :     0.011989
      dx2y2   :     0.011450
      dxy     :     0.016965
      f0      :     0.000508  f :     0.005023
      f+1     :     0.000555
      f-1     :     0.000611
      f+2     :     0.000398
      f-2     :     0.001180
      f+3     :     0.000871
      f-3     :     0.000900
 13 O s       :     3.438817  s :     3.438817
      pz      :     1.601822  p :     4.612322
      px      :     1.483180
      py      :     1.527320
      dz2     :     0.008213  d :     0.058887
      dxz     :     0.017102
      dyz     :     0.004907
      dx2y2   :     0.013729
      dxy     :     0.014936
      f0      :     0.000509  f :     0.005017
      f+1     :     0.000945
      f-1     :     0.000210
      f+2     :     0.000755
      f-2     :     0.000801
      f+3     :     0.000793
      f-3     :     0.001005


                      *****************************
                      * MAYER POPULATION ANALYSIS *
                      *****************************

  NA   - Mulliken gross atomic population
  ZA   - Total nuclear charge
  QA   - Mulliken gross atomic charge
  VA   - Mayer's total valence
  BVA  - Mayer's bonded valence
  FA   - Mayer's free valence

  ATOM       NA         ZA         QA         VA         BVA        FA
  0 C      6.2262     6.0000    -0.2262     3.9976     3.9976     0.0000
  1 C      6.1302     6.0000    -0.1302     3.8790     3.8790     0.0000
  2 H      0.8900     1.0000     0.1100     1.0182     1.0182    -0.0000
  3 C      5.8989     6.0000     0.1011     3.2010     3.2010     0.0000
  4 H      0.8892     1.0000     0.1108     1.0185     1.0185    -0.0000
  5 C      6.1400     6.0000    -0.1400     3.8914     3.8914    -0.0000
  6 H      0.8695     1.0000     0.1305     0.9633     0.9633    -0.0000
  7 C      6.1305     6.0000    -0.1305     3.8800     3.8800     0.0000
  8 H      0.8661     1.0000     0.1339     0.9612     0.9612     0.0000
  9 C      6.2269     6.0000    -0.2269     3.9990     3.9990     0.0000
 10 H      0.8694     1.0000     0.1306     0.9632     0.9632     0.0000
 11 C      5.8294     6.0000     0.1706     4.6781     4.6781    -0.0000
 12 O      8.5167     8.0000    -0.5167     1.9331     1.9331    -0.0000
 13 O      8.5171     8.0000    -0.5171     1.9332     1.9332     0.0000

  Mayer bond orders larger than 0.100000
B(  0-C ,  1-C ) :   1.4046 B(  0-C ,  3-C ) :   1.3611 B(  0-C ,  4-H ) :   0.9605 
B(  1-C ,  5-C ) :   1.3834 B(  1-C ,  6-H ) :   0.9724 B(  2-H ,  9-C ) :   0.9612 
B(  3-C ,  9-C ) :   1.3606 B(  3-C , 11-C ) :   0.8405 B(  3-C , 12-O ) :  -0.2168 
B(  3-C , 13-O ) :  -0.2176 B(  5-C ,  7-C ) :   1.3840 B(  5-C ,  8-H ) :   0.9660 
B(  7-C ,  9-C ) :   1.4047 B(  7-C , 10-H ) :   0.9722 B( 11-C , 12-O ) :   1.9008 
B( 11-C , 13-O ) :   1.9019 

-------
TIMINGS
-------

Total SCF time: 0 days 0 hours 0 min 34 sec 

Total time                  ....      34.697 sec
Sum of individual times     ....      32.457 sec  ( 93.5%)

Fock matrix formation       ....      30.859 sec  ( 88.9%)
  Split-RI-J                ....       6.146 sec  ( 19.9% of F)
  XC integration            ....      15.013 sec  ( 48.7% of F)
    Basis function eval.    ....       4.587 sec  ( 30.6% of XC)
    Density eval.           ....       3.886 sec  ( 25.9% of XC)
    XC-Functional eval.     ....       0.579 sec  (  3.9% of XC)
    XC-Potential eval.      ....       3.719 sec  ( 24.8% of XC)
Diagonalization             ....       0.020 sec  (  0.1%)
Density matrix formation    ....       0.010 sec  (  0.0%)
Population analysis         ....       0.086 sec  (  0.2%)
Initial guess               ....       0.022 sec  (  0.1%)
Orbital Transformation      ....       0.000 sec  (  0.0%)
Orbital Orthonormalization  ....       0.018 sec  (  0.1%)
DIIS solution               ....       0.005 sec  (  0.0%)
SOSCF solution              ....       0.416 sec  (  1.2%)
Grid generation             ....       1.039 sec  (  3.0%)

Maximum memory used throughout the entire SCF-calculation: 130.5 MB


-------------------------------------------------------------------------------
                          DFT DISPERSION CORRECTION                            
                                                                               
                              DFTD3 V3.1  Rev 1                                
                          USING Becke-Johnson damping                          
-------------------------------------------------------------------------------
The PBE functional is recognized
Active option DFTDOPT                   ...         4   

molecular C6(AA) [au] = 2602.846083 


            DFT-D V3
 parameters
 s6 scaling factor         :     1.0000 
 a1 scaling factor         :     0.4289 
 s8 scaling factor         :     0.7875 
 a2 scaling factor         :     4.4407 
 ad hoc parameters k1-k3   :    16.0000     1.3333    -4.0000 

 Edisp/kcal,au: -9.221156144322  -0.014694846121 
 E6   /kcal   :  -6.389359226 
 E8   /kcal   :  -2.831796918 
 % E8         :  30.709781656 

-------------------------   ----------------
Dispersion correction           -0.014694846
-------------------------   ----------------


-------------------------   --------------------
FINAL SINGLE POINT ENERGY      -420.053052215857
-------------------------   --------------------

                                *** OPTIMIZATION RUN DONE ***

                            ***************************************
                            *     ORCA property calculations      *
                            ***************************************

                                    ---------------------
                                    Active property flags
                                    ---------------------
   (+) Dipole Moment


------------------------------------------------------------------------------
                       ORCA ELECTRIC PROPERTIES CALCULATION
------------------------------------------------------------------------------

Dipole Moment Calculation                       ... on
Quadrupole Moment Calculation                   ... off
Polarizability Calculation                      ... off
GBWName                                         ... inp.gbw
Electron density                                ... inp.scfp
The origin for moment calculation is the CENTER OF MASS  = (-9.942242, -4.785427  4.648396)

-------------
DIPOLE MOMENT
-------------
                                X             Y             Z
Electronic contribution:     -0.77082       1.04391       2.92264
Nuclear contribution   :      1.90059      -2.57751      -7.20971
                        -----------------------------------------
Total Dipole Moment    :      1.12977      -1.53359      -4.28708
                        -----------------------------------------
Magnitude (a.u.)       :      4.69120
Magnitude (Debye)      :     11.92407



--------------------
Rotational spectrum 
--------------------
 
Rotational constants in cm-1:     0.130150     0.041136     0.031258 
Rotational constants in MHz :  3901.811652  1233.218916   937.095607 

 Dipole components along the rotational axes: 
x,y,z [a.u.] :    -4.691195     0.001071     0.000869 
x,y,z [Debye]:   -11.924071     0.002723     0.002210 

 

Timings for individual modules:

Sum of individual times         ...      445.984 sec (=   7.433 min)
GTO integral calculation        ...       11.836 sec (=   0.197 min)   2.7 %
SCF iterations                  ...      326.951 sec (=   5.449 min)  73.3 %
SCF Gradient evaluation         ...      106.350 sec (=   1.772 min)  23.8 %
Geometry relaxation             ...        0.847 sec (=   0.014 min)   0.2 %
                             ****ORCA TERMINATED NORMALLY****
TOTAL RUN TIME: 0 days 0 hours 7 minutes 30 seconds 548 msec
