
                                 *****************
                                 * O   R   C   A *
                                 *****************

                                            #,                                       
                                            ###                                      
                                            ####                                     
                                            #####                                    
                                            ######                                   
                                           ########,                                 
                                     ,,################,,,,,                         
                               ,,#################################,,                 
                          ,,##########################################,,             
                       ,#########################################, ''#####,          
                    ,#############################################,,   '####,        
                  ,##################################################,,,,####,       
                ,###########''''           ''''###############################       
              ,#####''   ,,,,##########,,,,          '''####'''          '####       
            ,##' ,,,,###########################,,,                        '##       
           ' ,,###''''                  '''############,,,                           
         ,,##''                                '''############,,,,        ,,,,,,###''
      ,#''                                            '''#######################'''  
     '                                                          ''''####''''         
             ,#######,   #######,   ,#######,      ##                                
            ,#'     '#,  ##    ##  ,#'     '#,    #''#        ######   ,####,        
            ##       ##  ##   ,#'  ##            #'  '#       #        #'  '#        
            ##       ##  #######   ##           ,######,      #####,   #    #        
            '#,     ,#'  ##    ##  '#,     ,#' ,#      #,         ##   #,  ,#        
             '#######'   ##     ##  '#######'  #'      '#     #####' # '####'        



                  #######################################################
                  #                        -***-                        #
                  #          Department of theory and spectroscopy      #
                  #    Directorship and core code : Frank Neese         #
                  #        Max Planck Institute fuer Kohlenforschung    #
                  #                Kaiser Wilhelm Platz 1               #
                  #                 D-45470 Muelheim/Ruhr               #
                  #                      Germany                        #
                  #                                                     #
                  #                  All rights reserved                #
                  #                        -***-                        #
                  #######################################################


                         Program Version 5.0.4 -  RELEASE  -


 With contributions from (in alphabetic order):
   Daniel Aravena         : Magnetic Suceptibility
   Michael Atanasov       : Ab Initio Ligand Field Theory (pilot matlab implementation)
   Alexander A. Auer      : GIAO ZORA, VPT2 properties, NMR spectrum
   Ute Becker             : Parallelization
   Giovanni Bistoni       : ED, misc. LED, open-shell LED, HFLD
   Martin Brehm           : Molecular dynamics
   Dmytro Bykov           : SCF Hessian
   Vijay G. Chilkuri      : MRCI spin determinant printing, contributions to CSF-ICE
   Dipayan Datta          : RHF DLPNO-CCSD density
   Achintya Kumar Dutta   : EOM-CC, STEOM-CC
   Dmitry Ganyushin       : Spin-Orbit,Spin-Spin,Magnetic field MRCI
   Miquel Garcia          : C-PCM and meta-GGA Hessian, CC/C-PCM, Gaussian charge scheme
   Yang Guo               : DLPNO-NEVPT2, F12-NEVPT2, CIM, IAO-localization
   Andreas Hansen         : Spin unrestricted coupled pair/coupled cluster methods
   Benjamin Helmich-Paris : MC-RPA, TRAH-SCF, COSX integrals
   Lee Huntington         : MR-EOM, pCC
   Robert Izsak           : Overlap fitted RIJCOSX, COSX-SCS-MP3, EOM
   Marcus Kettner         : VPT2
   Christian Kollmar      : KDIIS, OOCD, Brueckner-CCSD(T), CCSD density, CASPT2, CASPT2-K
   Simone Kossmann        : Meta GGA functionals, TD-DFT gradient, OOMP2, MP2 Hessian
   Martin Krupicka        : Initial AUTO-CI
   Lucas Lang             : DCDCAS
   Marvin Lechner         : AUTO-CI (C++ implementation), FIC-MRCC
   Dagmar Lenk            : GEPOL surface, SMD
   Dimitrios Liakos       : Extrapolation schemes; Compound Job, initial MDCI parallelization
   Dimitrios Manganas     : Further ROCIS development; embedding schemes
   Dimitrios Pantazis     : SARC Basis sets
   Anastasios Papadopoulos: AUTO-CI, single reference methods and gradients
   Taras Petrenko         : DFT Hessian,TD-DFT gradient, ASA, ECA, R-Raman, ABS, FL, XAS/XES, NRVS
   Peter Pinski           : DLPNO-MP2, DLPNO-MP2 Gradient
   Christoph Reimann      : Effective Core Potentials
   Marius Retegan         : Local ZFS, SOC
   Christoph Riplinger    : Optimizer, TS searches, QM/MM, DLPNO-CCSD(T), (RO)-DLPNO pert. Triples
   Tobias Risthaus        : Range-separated hybrids, TD-DFT gradient, RPA, STAB
   Michael Roemelt        : Original ROCIS implementation
   Masaaki Saitow         : Open-shell DLPNO-CCSD energy and density
   Barbara Sandhoefer     : DKH picture change effects
   Avijit Sen             : IP-ROCIS
   Kantharuban Sivalingam : CASSCF convergence, NEVPT2, FIC-MRCI
   Bernardo de Souza      : ESD, SOC TD-DFT
   Georgi Stoychev        : AutoAux, RI-MP2 NMR, DLPNO-MP2 response
   Willem Van den Heuvel  : Paramagnetic NMR
   Boris Wezisla          : Elementary symmetry handling
   Frank Wennmohs         : Technical directorship


 We gratefully acknowledge several colleagues who have allowed us to
 interface, adapt or use parts of their codes:
   Stefan Grimme, W. Hujo, H. Kruse, P. Pracht,  : VdW corrections, initial TS optimization,
                  C. Bannwarth, S. Ehlert          DFT functionals, gCP, sTDA/sTD-DF
   Ed Valeev, F. Pavosevic, A. Kumar             : LibInt (2-el integral package), F12 methods
   Garnet Chan, S. Sharma, J. Yang, R. Olivares  : DMRG
   Ulf Ekstrom                                   : XCFun DFT Library
   Mihaly Kallay                                 : mrcc  (arbitrary order and MRCC methods)
   Jiri Pittner, Ondrej Demel                    : Mk-CCSD
   Frank Weinhold                                : gennbo (NPA and NBO analysis)
   Christopher J. Cramer and Donald G. Truhlar   : smd solvation model
   Lars Goerigk                                  : TD-DFT with DH, B97 family of functionals
   V. Asgeirsson, H. Jonsson                     : NEB implementation
   FAccTs GmbH                                   : IRC, NEB, NEB-TS, DLPNO-Multilevel, CI-OPT
                                                   MM, QMMM, 2- and 3-layer-ONIOM, Crystal-QMMM,
                                                   LR-CPCM, SF, NACMEs, symmetry and pop. for TD-DFT,
                                                   nearIR, NL-DFT gradient (VV10), updates on ESD,
                                                   ML-optimized integration grids
   S Lehtola, MJT Oliveira, MAL Marques          : LibXC Library
   Liviu Ungur et al                             : ANISO software


 Your calculation uses the libint2 library for the computation of 2-el integrals
 For citations please refer to: http://libint.valeyev.net

 Your ORCA version has been built with support for libXC version: 5.1.0
 For citations please refer to: https://tddft.org/programs/libxc/

 This ORCA versions uses:
   CBLAS   interface :  Fast vector & matrix operations
   LAPACKE interface :  Fast linear algebra routines
   SCALAPACK package :  Parallel linear algebra routines
   Shared memory     :  Shared parallel matrices
   BLAS/LAPACK       :  OpenBLAS 0.3.15  USE64BITINT DYNAMIC_ARCH NO_AFFINITY Haswell SINGLE_THREADED
        Core in use  :  Haswell
   Copyright (c) 2011-2014, The OpenBLAS Project


Your calculation utilizes the atom-pairwise dispersion correction
with the Becke-Johnson damping scheme (D3BJ)
Cite in your paper:
S.Grimme, S.Ehrlich, L.Goerigk, J Comput Chem, (2011), 32, 1456–1465 
S.Grimme, J.Antony, S.Ehrlich and H.Krieg, J.Chem.Phys., 132, (2010), 154104 
   

================================================================================

----- Orbital basis set information -----
Your calculation utilizes the basis: def2-TZVP
   F. Weigend and R. Ahlrichs, Phys. Chem. Chem. Phys. 7, 3297 (2005).

----- AuxJ basis set information -----
Your calculation utilizes the auxiliary basis: def2/J
   F. Weigend, Phys. Chem. Chem. Phys. 8, 1057 (2006).

================================================================================
                                        WARNINGS
                       Please study these warnings very carefully!
================================================================================


WARNING: Geometry Optimization
  ===> : Switching off AutoStart
         For restart on a previous wavefunction, please use MOREAD

INFO   : the flag for use of the SHARK integral package has been found!

================================================================================
                                       INPUT FILE
================================================================================
NAME = inp.inp
|  1> !OPT PBE D3BJ def2-TZVP CPCM(water)
|  2> 
|  3> *xyz -1 1
|  4> C     -2.078328   -2.841072    1.558084
|  5> C     -2.489481   -2.194607    0.451053
|  6> C     -3.742483   -2.564201   -0.182657
|  7> C     -4.478397   -3.558210    0.355009
|  8> C     -4.031073   -4.253353    1.549833
|  9> C     -2.868804   -3.923943    2.153372
| 10> O     -2.307418   -4.388732    3.175523
| 11> H     -1.140148   -2.565781    2.034259
| 12> H     -1.896604   -1.396978    0.021612
| 13> H     -4.031550   -2.015689   -1.071057
| 14> N     -5.737240   -3.910382   -0.304075
| 15> H     -4.640287   -5.049851    1.964043
| 16> O     -6.068386   -3.279951   -1.324221
| 17> O     -6.419490   -4.824077    0.185210
| 18> *
| 19> 
| 20>                          ****END OF INPUT****
================================================================================

                       *****************************
                       * Geometry Optimization Run *
                       *****************************

Geometry optimization settings:
Update method            Update   .... BFGS
Choice of coordinates    CoordSys .... Z-matrix Internals
Initial Hessian          InHess   .... Almoef's Model

Convergence Tolerances:
Energy Change            TolE     ....  5.0000e-06 Eh
Max. Gradient            TolMAXG  ....  3.0000e-04 Eh/bohr
RMS Gradient             TolRMSG  ....  1.0000e-04 Eh/bohr
Max. Displacement        TolMAXD  ....  4.0000e-03 bohr
RMS Displacement         TolRMSD  ....  2.0000e-03 bohr
Strict Convergence                ....  False
------------------------------------------------------------------------------
                        ORCA OPTIMIZATION COORDINATE SETUP
------------------------------------------------------------------------------

The optimization will be done in new redundant internal coordinates
Making redundant internal coordinates   ...  (new redundants) done
Evaluating the initial hessian          ...  (Almloef) done
Evaluating the coordinates              ...  done
Calculating the B-matrix                .... done
Calculating the G-matrix                .... done
Diagonalizing the G-matrix              .... done
The first mode is                       ....   27
The number of degrees of freedom        ....   36

    -----------------------------------------------------------------
                    Redundant Internal Coordinates


    -----------------------------------------------------------------
         Definition                    Initial Value    Approx d2E/dq
    -----------------------------------------------------------------
      1. B(C   1,C   0)                  1.3463         0.733642   
      2. B(C   2,C   1)                  1.4520         0.497597   
      3. B(C   3,C   2)                  1.3486         0.727441   
      4. B(C   4,C   3)                  1.4529         0.495885   
      5. B(C   5,C   4)                  1.3504         0.722575   
      6. B(C   5,C   0)                  1.4669         0.471011   
      7. B(O   6,C   5)                  1.2554         0.917604   
      8. B(H   7,C   0)                  1.0875         0.363390   
      9. B(H   8,C   1)                  1.0827         0.369953   
     10. B(H   9,C   2)                  1.0834         0.368985   
     11. B(N  10,C   3)                  1.4639         0.426500   
     12. B(H  11,C   4)                  1.0850         0.366840   
     13. B(O  12,N  10)                  1.2441         0.856599   
     14. B(O  13,N  10)                  1.2408         0.866912   
     15. A(C   5,C   0,H   7)          118.2975         0.337503   
     16. A(C   1,C   0,H   7)          120.1289         0.363721   
     17. A(C   1,C   0,C   5)          121.5736         0.425845   
     18. A(C   0,C   1,H   8)          120.8434         0.364836   
     19. A(C   0,C   1,C   2)          120.0137         0.430057   
     20. A(C   2,C   1,H   8)          119.1429         0.341632   
     21. A(C   1,C   2,C   3)          118.9814         0.429403   
     22. A(C   3,C   2,H   9)          123.6774         0.364143   
     23. A(C   1,C   2,H   9)          117.3411         0.341483   
     24. A(C   2,C   3,N  10)          117.8436         0.415024   
     25. A(C   2,C   3,C   4)          120.8312         0.429137   
     26. A(C   4,C   3,N  10)          121.3251         0.387939   
     27. A(C   3,C   4,C   5)          121.0520         0.428621   
     28. A(C   5,C   4,H  11)          119.4543         0.363364   
     29. A(C   3,C   4,H  11)          119.4937         0.340953   
     30. A(C   0,C   5,O   6)          111.2693         0.440427   
     31. A(C   0,C   5,C   4)          117.5481         0.424688   
     32. A(C   4,C   5,O   6)          131.1826         0.476169   
     33. A(O  12,N  10,O  13)          123.3750         0.476374   
     34. A(C   3,N  10,O  13)          118.1909         0.422612   
     35. A(C   3,N  10,O  12)          118.4341         0.421710   
     36. D(H   8,C   1,C   0,C   5)   -180.0000         0.038224   
     37. D(C   2,C   1,C   0,C   5)      0.0001         0.038224   
     38. D(C   2,C   1,C   0,H   7)    180.0000         0.038224   
     39. D(H   8,C   1,C   0,H   7)     -0.0001         0.038224   
     40. D(C   3,C   2,C   1,C   0)     -0.0001         0.016863   
     41. D(C   3,C   2,C   1,H   8)    180.0000         0.016863   
     42. D(H   9,C   2,C   1,H   8)     -0.0000         0.016863   
     43. D(H   9,C   2,C   1,C   0)    179.9999         0.016863   
     44. D(N  10,C   3,C   2,H   9)     -0.0000         0.037522   
     45. D(N  10,C   3,C   2,C   1)    180.0000         0.037522   
     46. D(C   4,C   3,C   2,H   9)   -180.0000         0.037522   
     47. D(C   4,C   3,C   2,C   1)      0.0000         0.037522   
     48. D(H  11,C   4,C   3,C   2)    180.0000         0.016747   
     49. D(C   5,C   4,C   3,N  10)   -180.0000         0.016747   
     50. D(C   5,C   4,C   3,C   2)     -0.0000         0.016747   
     51. D(H  11,C   4,C   3,N  10)      0.0000         0.016747   
     52. D(O   6,C   5,C   4,H  11)     -0.0001         0.036977   
     53. D(C   0,C   5,C   4,H  11)   -180.0000         0.036977   
     54. D(C   0,C   5,C   4,C   3)      0.0000         0.036977   
     55. D(O   6,C   5,C   0,H   7)      0.0001         0.015106   
     56. D(O   6,C   5,C   0,C   1)   -180.0000         0.015106   
     57. D(O   6,C   5,C   4,C   3)    179.9999         0.036977   
     58. D(C   4,C   5,C   0,H   7)   -180.0000         0.015106   
     59. D(C   4,C   5,C   0,C   1)     -0.0001         0.015106   
     60. D(O  13,N  10,C   3,C   4)     -0.0002         0.014330   
     61. D(O  13,N  10,C   3,C   2)    179.9999         0.014330   
     62. D(O  12,N  10,C   3,C   4)    179.9998         0.014330   
     63. D(O  12,N  10,C   3,C   2)     -0.0001         0.014330   
    -----------------------------------------------------------------

Number of atoms                         .... 14
Number of degrees of freedom            .... 63

         *************************************************************
         *                GEOMETRY OPTIMIZATION CYCLE   1            *
         *************************************************************
---------------------------------
CARTESIAN COORDINATES (ANGSTROEM)
---------------------------------
  C     -2.078328   -2.841072    1.558084
  C     -2.489481   -2.194607    0.451053
  C     -3.742483   -2.564201   -0.182657
  C     -4.478397   -3.558210    0.355009
  C     -4.031073   -4.253353    1.549833
  C     -2.868804   -3.923943    2.153372
  O     -2.307418   -4.388732    3.175523
  H     -1.140148   -2.565781    2.034259
  H     -1.896604   -1.396978    0.021612
  H     -4.031550   -2.015689   -1.071057
  N     -5.737240   -3.910382   -0.304075
  H     -4.640287   -5.049851    1.964043
  O     -6.068386   -3.279951   -1.324221
  O     -6.419490   -4.824077    0.185210

----------------------------
CARTESIAN COORDINATES (A.U.)
----------------------------
  NO LB      ZA    FRAG     MASS         X           Y           Z
   0 C     6.0000    0    12.011   -3.927471   -5.368848    2.944352
   1 C     6.0000    0    12.011   -4.704437   -4.147206    0.852367
   2 C     6.0000    0    12.011   -7.072268   -4.845638   -0.345172
   3 C     6.0000    0    12.011   -8.462944   -6.724042    0.670870
   4 C     6.0000    0    12.011   -7.617624   -8.037672    2.928760
   5 C     6.0000    0    12.011   -5.421254   -7.415178    4.069283
   6 O     8.0000    0    15.999   -4.360388   -8.293502    6.000869
   7 H     1.0000    0     1.008   -2.154567   -4.848623    3.844192
   8 H     1.0000    0     1.008   -3.584062   -2.639906    0.040841
   9 H     1.0000    0     1.008   -7.618525   -3.809100   -2.024004
  10 N     7.0000    0    14.007  -10.841812   -7.389551   -0.574618
  11 H     1.0000    0     1.008   -8.768872   -9.542835    3.711503
  12 O     8.0000    0    15.999  -11.467588   -6.198209   -2.502415
  13 O     8.0000    0    15.999  -12.131078   -9.116184    0.349996

--------------------------------
INTERNAL COORDINATES (ANGSTROEM)
--------------------------------
 C      0   0   0     0.000000000000     0.00000000     0.00000000
 C      1   0   0     1.346284301548     0.00000000     0.00000000
 C      2   1   0     1.451964910368   120.01366697     0.00000000
 C      3   2   1     1.348594837241   118.98144849     0.00000000
 C      4   3   2     1.452902936332   120.83123736     0.00000000
 C      5   4   3     1.350421971453   121.05198324     0.00000000
 O      6   5   4     1.255378716690   131.18262253   179.99991416
 H      1   2   3     1.087524472233   120.12893310   179.99999322
 H      2   1   3     1.082651712810   120.84343573   179.99995350
 H      3   2   1     1.083364991419   117.34113495   179.99992346
 N      4   3   2     1.463933924496   117.84363385   179.99999246
 H      5   4   3     1.084951927921   119.49373853   179.99999251
 O     11   4   3     1.244105614646   118.43411353     0.00000000
 O     11   4   3     1.240847866078   118.19090765   179.99985667

---------------------------
INTERNAL COORDINATES (A.U.)
---------------------------
 C      0   0   0     0.000000000000     0.00000000     0.00000000
 C      1   0   0     2.544108628323     0.00000000     0.00000000
 C      2   1   0     2.743816036659   120.01366697     0.00000000
 C      3   2   1     2.548474908006   118.98144849     0.00000000
 C      4   3   2     2.745588648837   120.83123736     0.00000000
 C      5   4   3     2.551927691275   121.05198324     0.00000000
 O      6   5   4     2.372321968897   131.18262253   179.99991416
 H      1   2   3     2.055123416458   120.12893310   179.99999322
 H      2   1   3     2.045915235632   120.84343573   179.99995350
 H      3   2   1     2.047263136860   117.34113495   179.99992346
 N      4   3   2     2.766434195453   117.84363385   179.99999246
 H      5   4   3     2.050262012241   119.49373853   179.99999251
 O     11   4   3     2.351018893354   118.43411353     0.00000000
 O     11   4   3     2.344862640748   118.19090765   179.99985667

---------------------
BASIS SET INFORMATION
---------------------
There are 4 groups of distinct atoms

 Group   1 Type C   : 11s6p2d1f contracted to 5s3p2d1f pattern {62111/411/11/1}
 Group   2 Type O   : 11s6p2d1f contracted to 5s3p2d1f pattern {62111/411/11/1}
 Group   3 Type H   : 5s1p contracted to 3s1p pattern {311/1}
 Group   4 Type N   : 11s6p2d1f contracted to 5s3p2d1f pattern {62111/411/11/1}

Atom   0C    basis set group =>   1
Atom   1C    basis set group =>   1
Atom   2C    basis set group =>   1
Atom   3C    basis set group =>   1
Atom   4C    basis set group =>   1
Atom   5C    basis set group =>   1
Atom   6O    basis set group =>   2
Atom   7H    basis set group =>   3
Atom   8H    basis set group =>   3
Atom   9H    basis set group =>   3
Atom  10N    basis set group =>   4
Atom  11H    basis set group =>   3
Atom  12O    basis set group =>   2
Atom  13O    basis set group =>   2
---------------------------------
AUXILIARY/J BASIS SET INFORMATION
---------------------------------
There are 4 groups of distinct atoms

 Group   1 Type C   : 12s5p4d2f1g contracted to 6s4p3d1f1g pattern {711111/2111/211/2/1}
 Group   2 Type O   : 12s5p4d2f1g contracted to 6s4p3d1f1g pattern {711111/2111/211/2/1}
 Group   3 Type H   : 5s2p1d contracted to 3s1p1d pattern {311/2/1}
 Group   4 Type N   : 12s5p4d2f1g contracted to 6s4p3d1f1g pattern {711111/2111/211/2/1}

Atom   0C    basis set group =>   1
Atom   1C    basis set group =>   1
Atom   2C    basis set group =>   1
Atom   3C    basis set group =>   1
Atom   4C    basis set group =>   1
Atom   5C    basis set group =>   1
Atom   6O    basis set group =>   2
Atom   7H    basis set group =>   3
Atom   8H    basis set group =>   3
Atom   9H    basis set group =>   3
Atom  10N    basis set group =>   4
Atom  11H    basis set group =>   3
Atom  12O    basis set group =>   2
Atom  13O    basis set group =>   2
------------------------------------------------------------------------------
                           ORCA GTO INTEGRAL CALCULATION
                           -- RI-GTO INTEGRALS CHOSEN --
------------------------------------------------------------------------------
------------------------------------------------------------------------------
                   ___                                                        
                  /   \      - P O W E R E D   B Y -                         
                 /     \                                                     
                 |  |  |   _    _      __       _____    __    __             
                 |  |  |  | |  | |    /  \     |  _  \  |  |  /  |          
                  \  \/   | |  | |   /    \    | | | |  |  | /  /          
                 / \  \   | |__| |  /  /\  \   | |_| |  |  |/  /          
                |  |  |   |  __  | /  /__\  \  |    /   |      \           
                |  |  |   | |  | | |   __   |  |    \   |  |\   \          
                \     /   | |  | | |  |  |  |  | |\  \  |  | \   \       
                 \___/    |_|  |_| |__|  |__|  |_| \__\ |__|  \__/        
                                                                              
                      - O R C A' S   B I G   F R I E N D -                    
                                      &                                       
                       - I N T E G R A L  F E E D E R -                       
                                                                              
 v1 FN, 2020, v2 2021                                                         
------------------------------------------------------------------------------


Reading SHARK input file inp.SHARKINP.tmp ... ok
----------------------
SHARK INTEGRAL PACKAGE
----------------------

Number of atoms                             ...     14
Number of basis functions                   ...    334
Number of shells                            ...    126
Maximum angular momentum                    ...      3
Integral batch strategy                     ... SHARK/LIBINT Hybrid
RI-J (if used) integral strategy            ... SPLIT-RIJ (Revised 2003 algorithm where possible)
Printlevel                                  ...      1
Contraction scheme used                     ... SEGMENTED contraction
Coulomb Range Separation                    ... NOT USED
Exchange Range Separation                   ... NOT USED
Finite Nucleus Model                        ... NOT USED
Auxiliary Coulomb fitting basis             ... AVAILABLE
   # of basis functions in Aux-J            ...    534
   # of shells in Aux-J                     ...    170
   Maximum angular momentum in Aux-J        ...      4
Auxiliary J/K fitting basis                 ... NOT available
Auxiliary Correlation fitting basis         ... NOT available
Auxiliary 'external' fitting basis          ... NOT available
Integral threshold                          ...     2.500000e-11
Primitive cut-off                           ...     2.500000e-12
Primitive pair pre-selection threshold      ...     2.500000e-12

Calculating pre-screening integrals         ... done (  0.1 sec) Dimension = 126
Organizing shell pair data                  ... done (  0.3 sec)
Shell pair information
Total number of shell pairs                 ...      8001
Shell pairs after pre-screening             ...      7056
Total number of primitive shell pairs       ...     25432
Primitive shell pairs kept                  ...     16411
          la=0 lb=0:   1624 shell pairs
          la=1 lb=0:   1912 shell pairs
          la=1 lb=1:    566 shell pairs
          la=2 lb=0:   1078 shell pairs
          la=2 lb=1:    630 shell pairs
          la=2 lb=2:    188 shell pairs
          la=3 lb=0:    521 shell pairs
          la=3 lb=1:    314 shell pairs
          la=3 lb=2:    175 shell pairs
          la=3 lb=3:     48 shell pairs

Calculating one electron integrals          ... done (  0.0 sec)
Calculating RI/J V-Matrix + Cholesky decomp.... done (  0.3 sec)
Calculating Nuclear repulsion               ... done (  0.0 sec) ENN=    484.106785274197 Eh

SHARK setup successfully completed in   1.6 seconds

Maximum memory used throughout the entire GTOINT-calculation: 121.7 MB
-------------------------------------------------------------------------------
                                 ORCA SCF
-------------------------------------------------------------------------------

------------
SCF SETTINGS
------------
Hamiltonian:
 Density Functional     Method          .... DFT(GTOs)
 Exchange Functional    Exchange        .... PBE
   PBE kappa parameter   XKappa         ....  0.804000
   PBE mue parameter    XMuePBE         ....  0.219520
 Correlation Functional Correlation     .... PBE
   PBE beta parameter  CBetaPBE         ....  0.066725
 LDA part of GGA corr.  LDAOpt          .... PW91-LDA
 Gradients option       PostSCFGGA      .... off
   Density functional embedding theory  .... OFF
   NL short-range parameter             ....  6.400000
 RI-approximation to the Coulomb term is turned on
   Number of AuxJ basis functions       .... 534


General Settings:
 Integral files         IntName         .... inp
 Hartree-Fock type      HFTyp           .... RHF
 Total Charge           Charge          ....   -1
 Multiplicity           Mult            ....    1
 Number of Electrons    NEL             ....   72
 Basis Dimension        Dim             ....  334
 Nuclear Repulsion      ENuc            ....    484.1067852742 Eh

Convergence Acceleration:
 DIIS                   CNVDIIS         .... on
   Start iteration      DIISMaxIt       ....    12
   Startup error        DIISStart       ....  0.200000
   # of expansion vecs  DIISMaxEq       ....     5
   Bias factor          DIISBfac        ....   1.050
   Max. coefficient     DIISMaxC        ....  10.000
 Trust-Rad. Augm. Hess. CNVTRAH         .... auto
   Auto Start mean grad. ratio tolernc. ....  1.125000
   Auto Start start iteration           ....    20
   Auto Start num. interpolation iter.  ....    10
   Max. Number of Micro iterations      ....    16
   Max. Number of Macro iterations      .... Maxiter - #DIIS iter
   Number of Davidson start vectors     ....     2
   Converg. threshold I  (grad. norm)   ....   1.000e-05
   Converg. threshold II (energy diff.) ....   1.000e-08
   Grad. Scal. Fac. for Micro threshold ....   0.100
   Minimum threshold for Micro iter.    ....   0.010
   NR start threshold (gradient norm)   ....   0.001
   Initial trust radius                 ....   0.400
   Minimum AH scaling param. (alpha)    ....   1.000
   Maximum AH scaling param. (alpha)    .... 1000.000
   Orbital update algorithm             .... Taylor
   White noise on init. David. guess    .... on
   Maximum white noise                  ....   0.010
   Quad. conv. algorithm                .... NR
 SOSCF                  CNVSOSCF        .... on
   Start iteration      SOSCFMaxIt      ....   150
   Startup grad/error   SOSCFStart      ....  0.003300
 Level Shifting         CNVShift        .... on
   Level shift para.    LevelShift      ....    0.2500
   Turn off err/grad.   ShiftErr        ....    0.0010
 Zerner damping         CNVZerner       .... off
 Static damping         CNVDamp         .... on
   Fraction old density DampFac         ....    0.7000
   Max. Damping (<1)    DampMax         ....    0.9800
   Min. Damping (>=0)   DampMin         ....    0.0000
   Turn off err/grad.   DampErr         ....    0.1000
 Fernandez-Rico         CNVRico         .... off

SCF Procedure:
 Maximum # iterations   MaxIter         ....   125
 SCF integral mode      SCFMode         .... Direct
   Integral package                     .... SHARK and LIBINT hybrid scheme
 Reset frequency        DirectResetFreq ....    20
 Integral Threshold     Thresh          ....  2.500e-11 Eh
 Primitive CutOff       TCut            ....  2.500e-12 Eh

Convergence Tolerance:
 Convergence Check Mode ConvCheckMode   .... Total+1el-Energy
 Convergence forced     ConvForced      .... 0
 Energy Change          TolE            ....  1.000e-08 Eh
 1-El. energy change                    ....  1.000e-05 Eh
 Orbital Gradient       TolG            ....  1.000e-05
 Orbital Rotation angle TolX            ....  1.000e-05
 DIIS Error             TolErr          ....  5.000e-07


Diagonalization of the overlap matrix:
Smallest eigenvalue                        ... 1.073e-05
Time for diagonalization                   ...    0.018 sec
Threshold for overlap eigenvalues          ... 1.000e-08
Number of eigenvalues below threshold      ... 0
Time for construction of square roots      ...    0.147 sec
Total time needed                          ...    0.166 sec

Time for model grid setup =    0.417 sec

------------------------------
INITIAL GUESS: MODEL POTENTIAL
------------------------------
Loading Hartree-Fock densities                     ... done
Calculating cut-offs                               ... done
Initializing the effective Hamiltonian             ... done
Setting up the integral package (SHARK)            ... done
Starting the Coulomb interaction                   ... done (   0.5 sec)
Reading the grid                                   ... done
Mapping shells                                     ... done
Starting the XC term evaluation                    ... done (   0.6 sec)
  promolecular density results
     # of electrons  =     70.994532532
     EX              =    -62.810490894
     EC              =     -2.396992624
     EX+EC           =    -65.207483519
Transforming the Hamiltonian                       ... done (   0.0 sec)
Diagonalizing the Hamiltonian                      ... done (   0.0 sec)
Back transforming the eigenvectors                 ... done (   0.0 sec)
Now organizing SCF variables                       ... done
                      ------------------
                      INITIAL GUESS DONE (   1.5 sec)
                      ------------------
-------------------
DFT GRID GENERATION
-------------------

General Integration Accuracy     IntAcc      ... 4.388
Radial Grid Type                 RadialGrid  ... OptM3 with GC (2021)
Angular Grid (max. ang.)         AngularGrid ... 4 (Lebedev-302)
Angular grid pruning method      GridPruning ... 4 (adaptive)
Weight generation scheme         WeightScheme... Becke
Basis function cutoff            BFCut       ... 1.0000e-11
Integration weight cutoff        WCut        ... 1.0000e-14
Angular grids for H and He will be reduced by one unit
Partially contracted basis set               ... off
Rotationally invariant grid construction     ... off

Total number of grid points                  ...    73412
Total number of batches                      ...     1154
Average number of points per batch           ...       63
Average number of grid points per atom       ...     5244
Time for grid setup =    1.123 sec


--------------------
CPCM SOLVATION MODEL
--------------------
CPCM parameters:
  Epsilon                                         ...      80.4000
  Refrac                                          ...       1.3300
  Rsolv                                           ...       1.3000
  Surface type                                    ... GAUSSIAN VDW
  Epsilon function type                           ...         CPCM
Radii:
 Radius for C  used is    3.8550 Bohr (=   2.0400 Ang.)
 Radius for O  used is    3.4469 Bohr (=   1.8240 Ang.)
 Radius for H  used is    2.4944 Bohr (=   1.3200 Ang.)
 Radius for N  used is    3.5149 Bohr (=   1.8600 Ang.)
Calculating surface                               ...        done! (  0.0s)
GEPOL surface points                              ...          810
GEPOL Volume                                      ...    1047.2852
GEPOL Surface-area                                ...     588.0464
Calculating surface distance matrix               ...        done! (  0.0s)
Performing Cholesky decomposition & store         ...        done! (  0.1s)
Overall time for CPCM initialization              ...                 0.1s
--------------
SCF ITERATIONS
--------------
ITER       Energy         Delta-E        Max-DP      RMS-DP      [F,P]     Damp
               ***  Starting incremental Fock matrix formation  ***
  0   -510.7774557858   0.000000000000 1.31074244  0.01141752  0.3262437 0.7000
  1   -510.9659047453  -0.188448959465 1.00775260  0.00884359  0.0987990 0.7000
                               ***Turning on DIIS***
  2   -511.0173310530  -0.051426307746 0.39705900  0.00496491  0.0324136 0.0000
  3   -511.1264140886  -0.109083035638 1.01696363  0.00863406  0.0484863 0.0000
  4   -511.1413515917  -0.014937503040 0.18384576  0.00162136  0.0287029 0.0000
  5   -511.1451719068  -0.003820315174 0.05222455  0.00053172  0.0040493 0.0000
                      *** Initiating the SOSCF procedure ***
                           *** Shutting down DIIS ***
                      *** Re-Reading the Fockian *** 
                      *** Removing any level shift *** 
ITER      Energy       Delta-E        Grad      Rot      Max-DP    RMS-DP
  6   -511.14531115  -0.0001392475  0.000613  0.000613  0.020398  0.000216
               *** Restarting incremental Fock matrix formation ***
  7   -511.14533493  -0.0000237783  0.000386  0.007719  0.011112  0.000100
  8   -511.14533611  -0.0000011777  0.000874  0.003103  0.022810  0.000210
  9   -511.14534290  -0.0000067915  0.000350  0.003061  0.008315  0.000097
 10   -511.14534480  -0.0000018966  0.000122  0.000746  0.004850  0.000043
 11   -511.14534476   0.0000000378  0.000186  0.001317  0.003754  0.000039
 12   -511.14534521  -0.0000004510  0.000165  0.000582  0.003445  0.000034
 13   -511.14534473   0.0000004845  0.000178  0.000932  0.003256  0.000034
 14   -511.14534554  -0.0000008179  0.000028  0.000119  0.000414  0.000004
 15   -511.14534549   0.0000000508  0.000054  0.000090  0.000465  0.000005
 16   -511.14534558  -0.0000000810  0.000009  0.000021  0.000564  0.000006
 17   -511.14534557   0.0000000046  0.000012  0.000033  0.000242  0.000003
 18   -511.14534557   0.0000000034  0.000003  0.000033  0.000220  0.000003
 19   -511.14534557  -0.0000000027  0.000006  0.000020  0.000182  0.000002
                  ***Gradient check signals convergence***
              ***Rediagonalizing the Fockian in SOSCF/NRSCF***

               *****************************************************
               *                     SUCCESS                       *
               *           SCF CONVERGED AFTER  20 CYCLES          *
               *****************************************************


----------------
TOTAL SCF ENERGY
----------------

Total Energy       :         -511.14534557 Eh          -13908.97197 eV

Components:
Nuclear Repulsion  :          484.10678527 Eh           13173.21534 eV
Electronic Energy  :         -995.25213084 Eh          -27082.18731 eV
One Electron Energy:        -1669.41979968 Eh          -45427.22222 eV
Two Electron Energy:          674.16766884 Eh           18345.03491 eV
CPCM Dielectric    :           -0.08867493 Eh              -2.41297 eV

Virial components:
Potential Energy   :        -1020.54598363 Eh          -27770.46804 eV
Kinetic Energy     :          509.40063806 Eh           13861.49607 eV
Virial Ratio       :            2.00342502


DFT components:
N(Alpha)           :       35.999949960112 electrons
N(Beta)            :       35.999949960112 electrons
N(Total)           :       71.999899920224 electrons
E(X)               :      -63.973426279228 Eh       
E(C)               :       -2.435070924108 Eh       
E(XC)              :      -66.408497203336 Eh       
DFET-embed. en.    :        0.000000000000 Eh       
CPCM Solvation Model Properties:
Surface-charge          :            0.97441354
Charge-correction       :           -0.00346846 Eh              -0.09438 eV
Free-energy (cav+disp)  :  This term is not implemented in the current solvation scheme

---------------
SCF CONVERGENCE
---------------

  Last Energy change         ...   -7.4772e-10  Tolerance :   1.0000e-08
  Last MAX-Density change    ...    4.1706e-04  Tolerance :   1.0000e-07
  Last RMS-Density change    ...    6.1477e-06  Tolerance :   5.0000e-09
  Last Orbital Gradient      ...    9.7920e-07  Tolerance :   1.0000e-05
  Last Orbital Rotation      ...    3.4175e-06  Tolerance :   1.0000e-05

             **** THE GBW FILE WAS UPDATED (inp.gbw) ****
             **** DENSITY inp.scfp WAS UPDATED ****
             **** ENERGY FILE WAS UPDATED (inp.en.tmp) ****
             **** THE GBW FILE WAS UPDATED (inp.gbw) ****
             **** DENSITY inp.scfp WAS UPDATED ****
----------------
ORBITAL ENERGIES
----------------

  NO   OCC          E(Eh)            E(eV) 
   0   2.0000     -18.775712      -510.9131 
   1   2.0000     -18.773817      -510.8615 
   2   2.0000     -18.661749      -507.8120 
   3   2.0000     -14.199314      -386.3830 
   4   2.0000      -9.927163      -270.1318 
   5   2.0000      -9.903955      -269.5003 
   6   2.0000      -9.877203      -268.7724 
   7   2.0000      -9.876553      -268.7547 
   8   2.0000      -9.864248      -268.4198 
   9   2.0000      -9.859893      -268.3013 
  10   2.0000      -1.119135       -30.4532 
  11   2.0000      -0.955387       -25.9974 
  12   2.0000      -0.883529       -24.0420 
  13   2.0000      -0.775353       -21.0984 
  14   2.0000      -0.703704       -19.1488 
  15   2.0000      -0.648443       -17.6450 
  16   2.0000      -0.611908       -16.6509 
  17   2.0000      -0.525733       -14.3059 
  18   2.0000      -0.510555       -13.8929 
  19   2.0000      -0.474582       -12.9140 
  20   2.0000      -0.473605       -12.8874 
  21   2.0000      -0.456325       -12.4172 
  22   2.0000      -0.426940       -11.6176 
  23   2.0000      -0.402049       -10.9403 
  24   2.0000      -0.374306       -10.1854 
  25   2.0000      -0.345307        -9.3963 
  26   2.0000      -0.341558        -9.2943 
  27   2.0000      -0.312775        -8.5110 
  28   2.0000      -0.296980        -8.0812 
  29   2.0000      -0.279801        -7.6138 
  30   2.0000      -0.274842        -7.4788 
  31   2.0000      -0.263862        -7.1800 
  32   2.0000      -0.241260        -6.5650 
  33   2.0000      -0.229776        -6.2525 
  34   2.0000      -0.164009        -4.4629 
  35   2.0000      -0.157056        -4.2737 
  36   0.0000      -0.117189        -3.1889 
  37   0.0000      -0.021153        -0.5756 
  38   0.0000       0.007947         0.2162 
  39   0.0000       0.044962         1.2235 
  40   0.0000       0.072220         1.9652 
  41   0.0000       0.081434         2.2159 
  42   0.0000       0.091156         2.4805 
  43   0.0000       0.111686         3.0391 
  44   0.0000       0.117845         3.2067 
  45   0.0000       0.126019         3.4291 
  46   0.0000       0.142294         3.8720 
  47   0.0000       0.169974         4.6252 
  48   0.0000       0.185410         5.0453 
  49   0.0000       0.190256         5.1771 
  50   0.0000       0.202088         5.4991 
  51   0.0000       0.208886         5.6841 
  52   0.0000       0.210167         5.7189 
  53   0.0000       0.226254         6.1567 
  54   0.0000       0.234976         6.3940 
  55   0.0000       0.235418         6.4060 
  56   0.0000       0.255758         6.9595 
  57   0.0000       0.278170         7.5694 
  58   0.0000       0.299866         8.1598 
  59   0.0000       0.301394         8.2014 
  60   0.0000       0.303877         8.2689 
  61   0.0000       0.317244         8.6326 
  62   0.0000       0.327359         8.9079 
  63   0.0000       0.349312         9.5053 
  64   0.0000       0.354271         9.6402 
  65   0.0000       0.361019         9.8238 
  66   0.0000       0.362201         9.8560 
  67   0.0000       0.376894        10.2558 
  68   0.0000       0.381221        10.3735 
  69   0.0000       0.385399        10.4873 
  70   0.0000       0.413792        11.2599 
  71   0.0000       0.423189        11.5156 
  72   0.0000       0.430148        11.7049 
  73   0.0000       0.438518        11.9327 
  74   0.0000       0.447891        12.1877 
  75   0.0000       0.463697        12.6178 
  76   0.0000       0.464494        12.6395 
  77   0.0000       0.470466        12.8020 
  78   0.0000       0.476015        12.9530 
  79   0.0000       0.490016        13.3340 
  80   0.0000       0.502942        13.6858 
  81   0.0000       0.528039        14.3687 
  82   0.0000       0.538889        14.6639 
  83   0.0000       0.559566        15.2266 
  84   0.0000       0.590199        16.0601 
  85   0.0000       0.592185        16.1142 
  86   0.0000       0.609926        16.5969 
  87   0.0000       0.610168        16.6035 
  88   0.0000       0.626899        17.0588 
  89   0.0000       0.628810        17.1108 
  90   0.0000       0.655641        17.8409 
  91   0.0000       0.675350        18.3772 
  92   0.0000       0.702626        19.1194 
  93   0.0000       0.711100        19.3500 
  94   0.0000       0.719239        19.5715 
  95   0.0000       0.728757        19.8305 
  96   0.0000       0.731195        19.8968 
  97   0.0000       0.766991        20.8709 
  98   0.0000       0.769108        20.9285 
  99   0.0000       0.792830        21.5740 
 100   0.0000       0.821775        22.3616 
 101   0.0000       0.827070        22.5057 
 102   0.0000       0.836012        22.7490 
 103   0.0000       0.845363        23.0035 
 104   0.0000       0.875214        23.8158 
 105   0.0000       0.906078        24.6556 
 106   0.0000       0.961608        26.1667 
 107   0.0000       0.975252        26.5380 
 108   0.0000       0.981443        26.7064 
 109   0.0000       0.982435        26.7334 
 110   0.0000       1.005176        27.3522 
 111   0.0000       1.031831        28.0775 
 112   0.0000       1.050021        28.5725 
 113   0.0000       1.078073        29.3359 
 114   0.0000       1.114658        30.3314 
 115   0.0000       1.128911        30.7192 
 116   0.0000       1.130198        30.7543 
 117   0.0000       1.140631        31.0382 
 118   0.0000       1.169352        31.8197 
 119   0.0000       1.215750        33.0822 
 120   0.0000       1.234611        33.5955 
 121   0.0000       1.238319        33.6964 
 122   0.0000       1.246878        33.9293 
 123   0.0000       1.247594        33.9488 
 124   0.0000       1.291927        35.1551 
 125   0.0000       1.333951        36.2987 
 126   0.0000       1.346132        36.6301 
 127   0.0000       1.346978        36.6531 
 128   0.0000       1.392708        37.8975 
 129   0.0000       1.400194        38.1012 
 130   0.0000       1.403058        38.1792 
 131   0.0000       1.416026        38.5320 
 132   0.0000       1.434434        39.0329 
 133   0.0000       1.455634        39.6098 
 134   0.0000       1.464884        39.8615 
 135   0.0000       1.500564        40.8324 
 136   0.0000       1.531094        41.6632 
 137   0.0000       1.556169        42.3455 
 138   0.0000       1.559984        42.4493 
 139   0.0000       1.584049        43.1042 
 140   0.0000       1.608069        43.7578 
 141   0.0000       1.613611        43.9086 
 142   0.0000       1.620712        44.1018 
 143   0.0000       1.641563        44.6692 
 144   0.0000       1.666380        45.3445 
 145   0.0000       1.695202        46.1288 
 146   0.0000       1.695474        46.1362 
 147   0.0000       1.712149        46.5899 
 148   0.0000       1.722873        46.8818 
 149   0.0000       1.771853        48.2146 
 150   0.0000       1.790231        48.7147 
 151   0.0000       1.805866        49.1401 
 152   0.0000       1.867475        50.8166 
 153   0.0000       1.874956        51.0201 
 154   0.0000       1.894668        51.5565 
 155   0.0000       1.896816        51.6150 
 156   0.0000       1.923627        52.3446 
 157   0.0000       1.955487        53.2115 
 158   0.0000       1.983656        53.9780 
 159   0.0000       1.989413        54.1347 
 160   0.0000       2.005230        54.5651 
 161   0.0000       2.020360        54.9768 
 162   0.0000       2.047706        55.7209 
 163   0.0000       2.072448        56.3942 
 164   0.0000       2.076497        56.5044 
 165   0.0000       2.092968        56.9526 
 166   0.0000       2.101764        57.1919 
 167   0.0000       2.116606        57.5958 
 168   0.0000       2.174192        59.1628 
 169   0.0000       2.183827        59.4250 
 170   0.0000       2.215904        60.2978 
 171   0.0000       2.227229        60.6060 
 172   0.0000       2.285243        62.1846 
 173   0.0000       2.331609        63.4463 
 174   0.0000       2.348222        63.8984 
 175   0.0000       2.404712        65.4355 
 176   0.0000       2.416260        65.7498 
 177   0.0000       2.443985        66.5042 
 178   0.0000       2.474968        67.3473 
 179   0.0000       2.494449        67.8774 
 180   0.0000       2.508986        68.2730 
 181   0.0000       2.534823        68.9760 
 182   0.0000       2.542523        69.1856 
 183   0.0000       2.562088        69.7180 
 184   0.0000       2.571443        69.9725 
 185   0.0000       2.589438        70.4622 
 186   0.0000       2.601529        70.7912 
 187   0.0000       2.614956        71.1566 
 188   0.0000       2.615291        71.1657 
 189   0.0000       2.632904        71.6450 
 190   0.0000       2.651043        72.1385 
 191   0.0000       2.655424        72.2578 
 192   0.0000       2.696889        73.3861 
 193   0.0000       2.724623        74.1408 
 194   0.0000       2.734555        74.4110 
 195   0.0000       2.748887        74.8010 
 196   0.0000       2.750759        74.8520 
 197   0.0000       2.771149        75.4068 
 198   0.0000       2.789691        75.9113 
 199   0.0000       2.795129        76.0593 
 200   0.0000       2.829289        76.9889 
 201   0.0000       2.836119        77.1747 
 202   0.0000       2.877242        78.2937 
 203   0.0000       2.882859        78.4466 
 204   0.0000       2.899053        78.8872 
 205   0.0000       2.915091        79.3237 
 206   0.0000       2.954231        80.3887 
 207   0.0000       2.964854        80.6778 
 208   0.0000       2.988717        81.3271 
 209   0.0000       3.012179        81.9655 
 210   0.0000       3.017671        82.1150 
 211   0.0000       3.036444        82.6258 
 212   0.0000       3.044038        82.8325 
 213   0.0000       3.065088        83.4053 
 214   0.0000       3.068058        83.4861 
 215   0.0000       3.081356        83.8480 
 216   0.0000       3.107526        84.5601 
 217   0.0000       3.137716        85.3816 
 218   0.0000       3.151631        85.7602 
 219   0.0000       3.182325        86.5955 
 220   0.0000       3.185559        86.6835 
 221   0.0000       3.201253        87.1105 
 222   0.0000       3.220589        87.6367 
 223   0.0000       3.250699        88.4560 
 224   0.0000       3.256061        88.6019 
 225   0.0000       3.273723        89.0825 
 226   0.0000       3.302828        89.8745 
 227   0.0000       3.305123        89.9370 
 228   0.0000       3.314278        90.1861 
 229   0.0000       3.338391        90.8422 
 230   0.0000       3.365732        91.5862 
 231   0.0000       3.389004        92.2195 
 232   0.0000       3.401765        92.5667 
 233   0.0000       3.418445        93.0206 
 234   0.0000       3.428542        93.2954 
 235   0.0000       3.462257        94.2128 
 236   0.0000       3.511241        95.5457 
 237   0.0000       3.555591        96.7525 
 238   0.0000       3.595513        97.8389 
 239   0.0000       3.623885        98.6109 
 240   0.0000       3.649202        99.2998 
 241   0.0000       3.678201       100.0890 
 242   0.0000       3.689407       100.3939 
 243   0.0000       3.724102       101.3380 
 244   0.0000       3.762481       102.3823 
 245   0.0000       3.836939       104.4084 
 246   0.0000       3.870659       105.3260 
 247   0.0000       3.890258       105.8593 
 248   0.0000       3.902782       106.2001 
 249   0.0000       3.916782       106.5810 
 250   0.0000       3.948424       107.4421 
 251   0.0000       3.960535       107.7716 
 252   0.0000       3.965134       107.8968 
 253   0.0000       4.031169       109.6937 
 254   0.0000       4.046643       110.1148 
 255   0.0000       4.060732       110.4981 
 256   0.0000       4.066802       110.6633 
 257   0.0000       4.153272       113.0163 
 258   0.0000       4.155401       113.0742 
 259   0.0000       4.184152       113.8566 
 260   0.0000       4.209015       114.5331 
 261   0.0000       4.217500       114.7640 
 262   0.0000       4.249314       115.6297 
 263   0.0000       4.403572       119.8273 
 264   0.0000       4.437611       120.7535 
 265   0.0000       4.441317       120.8544 
 266   0.0000       4.453520       121.1864 
 267   0.0000       4.473942       121.7421 
 268   0.0000       4.549451       123.7969 
 269   0.0000       4.554105       123.9235 
 270   0.0000       4.596304       125.0718 
 271   0.0000       4.630175       125.9935 
 272   0.0000       4.660676       126.8234 
 273   0.0000       4.703456       127.9875 
 274   0.0000       4.742432       129.0481 
 275   0.0000       4.787688       130.2796 
 276   0.0000       4.818897       131.1288 
 277   0.0000       4.847796       131.9152 
 278   0.0000       4.871450       132.5589 
 279   0.0000       4.961121       134.9990 
 280   0.0000       4.981177       135.5447 
 281   0.0000       5.014479       136.4509 
 282   0.0000       5.015876       136.4889 
 283   0.0000       5.029737       136.8661 
 284   0.0000       5.050428       137.4291 
 285   0.0000       5.087259       138.4314 
 286   0.0000       5.144159       139.9797 
 287   0.0000       5.151169       140.1704 
 288   0.0000       5.166198       140.5794 
 289   0.0000       5.207774       141.7107 
 290   0.0000       5.262211       143.1920 
 291   0.0000       5.280520       143.6903 
 292   0.0000       5.349909       145.5784 
 293   0.0000       5.408113       147.1622 
 294   0.0000       5.468018       148.7923 
 295   0.0000       5.492112       149.4480 
 296   0.0000       5.510091       149.9372 
 297   0.0000       5.615272       152.7993 
 298   0.0000       5.669068       154.2632 
 299   0.0000       5.749988       156.4651 
 300   0.0000       5.806570       158.0048 
 301   0.0000       6.010346       163.5498 
 302   0.0000       6.095270       165.8607 
 303   0.0000       6.133040       166.8885 
 304   0.0000       6.163153       167.7079 
 305   0.0000       6.245588       169.9511 
 306   0.0000       6.255555       170.2223 
 307   0.0000       6.293790       171.2627 
 308   0.0000       6.304575       171.5562 
 309   0.0000       6.305233       171.5741 
 310   0.0000       6.501715       176.9207 
 311   0.0000       6.547664       178.1710 
 312   0.0000       6.599344       179.5773 
 313   0.0000       6.706707       182.4988 
 314   0.0000       6.723534       182.9567 
 315   0.0000       6.735997       183.2958 
 316   0.0000       6.771200       184.2537 
 317   0.0000       6.964218       189.5060 
 318   0.0000       6.989092       190.1829 
 319   0.0000       7.009226       190.7307 
 320   0.0000       7.098880       193.1703 
 321   0.0000       7.219750       196.4594 
 322   0.0000       7.401041       201.3926 
 323   0.0000       7.453585       202.8224 
 324   0.0000      21.938385       596.9738 
 325   0.0000      22.313771       607.1886 
 326   0.0000      22.454846       611.0274 
 327   0.0000      22.571413       614.1994 
 328   0.0000      22.788463       620.1056 
 329   0.0000      23.276122       633.3755 
 330   0.0000      32.110600       873.7739 
 331   0.0000      43.607039      1186.6078 
 332   0.0000      43.663640      1188.1480 
 333   0.0000      43.679957      1188.5921 

                    ********************************
                    * MULLIKEN POPULATION ANALYSIS *
                    ********************************

-----------------------
MULLIKEN ATOMIC CHARGES
-----------------------
   0 C :   -0.242694
   1 C :   -0.125335
   2 C :   -0.244343
   3 C :    0.148046
   4 C :   -0.401764
   5 C :    0.253750
   6 O :   -0.558794
   7 H :    0.101268
   8 H :    0.130139
   9 H :    0.135007
  10 N :    0.398134
  11 H :    0.081683
  12 O :   -0.338841
  13 O :   -0.336254
Sum of atomic charges:   -1.0000000

--------------------------------
MULLIKEN REDUCED ORBITAL CHARGES
--------------------------------
  0 C s       :     3.285677  s :     3.285677
      pz      :     0.953956  p :     2.875231
      px      :     0.972958
      py      :     0.948317
      dz2     :     0.016595  d :     0.074926
      dxz     :     0.018074
      dyz     :     0.012859
      dx2y2   :     0.016542
      dxy     :     0.010856
      f0      :     0.001186  f :     0.006860
      f+1     :     0.000670
      f-1     :     0.001039
      f+2     :     0.001421
      f-2     :     0.001153
      f+3     :     0.000554
      f-3     :     0.000838
  1 C s       :     3.171553  s :     3.171553
      pz      :     0.958333  p :     2.860445
      px      :     0.927340
      py      :     0.974772
      dz2     :     0.019394  d :     0.086614
      dxz     :     0.025789
      dyz     :     0.010627
      dx2y2   :     0.013392
      dxy     :     0.017413
      f0      :     0.001150  f :     0.006724
      f+1     :     0.001201
      f-1     :     0.000420
      f+2     :     0.001167
      f-2     :     0.001268
      f+3     :     0.000837
      f-3     :     0.000682
  2 C s       :     3.253971  s :     3.253971
      pz      :     0.971706  p :     2.892513
      px      :     0.945704
      py      :     0.975103
      dz2     :     0.015844  d :     0.090842
      dxz     :     0.017493
      dyz     :     0.014877
      dx2y2   :     0.023238
      dxy     :     0.019390
      f0      :     0.000236  f :     0.007018
      f+1     :     0.001250
      f-1     :     0.001163
      f+2     :     0.001007
      f-2     :     0.001086
      f+3     :     0.000883
      f-3     :     0.001392
  3 C s       :     3.064174  s :     3.064174
      pz      :     0.875556  p :     2.641876
      px      :     0.834047
      py      :     0.932272
      dz2     :     0.032400  d :     0.134611
      dxz     :     0.026935
      dyz     :     0.024487
      dx2y2   :     0.032475
      dxy     :     0.018313
      f0      :     0.001352  f :     0.011294
      f+1     :     0.001794
      f-1     :     0.001248
      f+2     :     0.002002
      f-2     :     0.001677
      f+3     :     0.001396
      f-3     :     0.001825
  4 C s       :     3.372524  s :     3.372524
      pz      :     0.952711  p :     2.948821
      px      :     0.995669
      py      :     1.000441
      dz2     :     0.019921  d :     0.073917
      dxz     :     0.013895
      dyz     :     0.011311
      dx2y2   :     0.010272
      dxy     :     0.018519
      f0      :     0.000947  f :     0.006501
      f+1     :     0.001307
      f-1     :     0.000630
      f+2     :     0.000907
      f-2     :     0.001302
      f+3     :     0.000801
      f-3     :     0.000606
  5 C s       :     2.864498  s :     2.864498
      pz      :     0.899009  p :     2.697961
      px      :     0.895561
      py      :     0.903391
      dz2     :     0.050642  d :     0.166342
      dxz     :     0.029225
      dyz     :     0.030131
      dx2y2   :     0.024363
      dxy     :     0.031981
      f0      :     0.002511  f :     0.017450
      f+1     :     0.003511
      f-1     :     0.002164
      f+2     :     0.003819
      f-2     :     0.002302
      f+3     :     0.001593
      f-3     :     0.001550
  6 O s       :     3.744779  s :     3.744779
      pz      :     1.449155  p :     4.785476
      px      :     1.668207
      py      :     1.668114
      dz2     :     0.008394  d :     0.026965
      dxz     :     0.006904
      dyz     :     0.006035
      dx2y2   :     0.002527
      dxy     :     0.003105
      f0      :     0.000363  f :     0.001574
      f+1     :     0.000316
      f-1     :     0.000232
      f+2     :     0.000257
      f-2     :     0.000274
      f+3     :     0.000065
      f-3     :     0.000067
  7 H s       :     0.877039  s :     0.877039
      pz      :     0.005901  p :     0.021693
      px      :     0.010988
      py      :     0.004804
  8 H s       :     0.847982  s :     0.847982
      pz      :     0.005698  p :     0.021879
      px      :     0.006888
      py      :     0.009293
  9 H s       :     0.842335  s :     0.842335
      pz      :     0.010733  p :     0.022658
      px      :     0.005300
      py      :     0.006625
 10 N s       :     3.265042  s :     3.265042
      pz      :     1.003672  p :     3.088221
      px      :     1.075698
      py      :     1.008851
      dz2     :     0.053400  d :     0.235482
      dxz     :     0.049031
      dyz     :     0.044658
      dx2y2   :     0.051960
      dxy     :     0.036433
      f0      :     0.001796  f :     0.013121
      f+1     :     0.002153
      f-1     :     0.001948
      f+2     :     0.002033
      f-2     :     0.001854
      f+3     :     0.001305
      f-3     :     0.002031
 11 H s       :     0.895487  s :     0.895487
      pz      :     0.005584  p :     0.022831
      px      :     0.007507
      py      :     0.009739
 12 O s       :     3.862639  s :     3.862639
      pz      :     1.243760  p :     4.433639
      px      :     1.705256
      py      :     1.484623
      dz2     :     0.012617  d :     0.039509
      dxz     :     0.007556
      dyz     :     0.011832
      dx2y2   :     0.003185
      dxy     :     0.004319
      f0      :     0.000653  f :     0.003054
      f+1     :     0.000389
      f-1     :     0.000812
      f+2     :     0.000431
      f-2     :     0.000537
      f+3     :     0.000134
      f-3     :     0.000098
 13 O s       :     3.863276  s :     3.863276
      pz      :     1.601081  p :     4.430181
      px      :     1.546574
      py      :     1.282526
      dz2     :     0.005368  d :     0.039720
      dxz     :     0.006085
      dyz     :     0.007955
      dx2y2   :     0.009366
      dxy     :     0.010946
      f0      :     0.000312  f :     0.003078
      f+1     :     0.000232
      f-1     :     0.000393
      f+2     :     0.000309
      f-2     :     0.000698
      f+3     :     0.000619
      f-3     :     0.000515


                     *******************************
                     * LOEWDIN POPULATION ANALYSIS *
                     *******************************

----------------------
LOEWDIN ATOMIC CHARGES
----------------------
   0 C :   -0.128082
   1 C :   -0.166597
   2 C :   -0.155006
   3 C :   -0.198803
   4 C :   -0.168856
   5 C :   -0.477744
   6 O :   -0.118923
   7 H :    0.142878
   8 H :    0.145102
   9 H :    0.149816
  10 N :   -0.025423
  11 H :    0.141253
  12 O :   -0.072344
  13 O :   -0.067271

-------------------------------
LOEWDIN REDUCED ORBITAL CHARGES
-------------------------------
  0 C s       :     2.785389  s :     2.785389
      pz      :     1.008617  p :     2.926808
      px      :     0.955631
      py      :     0.962560
      dz2     :     0.074335  d :     0.374678
      dxz     :     0.087535
      dyz     :     0.086108
      dx2y2   :     0.073275
      dxy     :     0.053424
      f0      :     0.006241  f :     0.041206
      f+1     :     0.006035
      f-1     :     0.006988
      f+2     :     0.007325
      f-2     :     0.005625
      f+3     :     0.003608
      f-3     :     0.005385
  1 C s       :     2.773605  s :     2.773605
      pz      :     1.020553  p :     2.960982
      px      :     0.982270
      py      :     0.958159
      dz2     :     0.082883  d :     0.389709
      dxz     :     0.103510
      dyz     :     0.069259
      dx2y2   :     0.058197
      dxy     :     0.075860
      f0      :     0.006029  f :     0.042301
      f+1     :     0.008006
      f-1     :     0.005695
      f+2     :     0.007582
      f-2     :     0.005333
      f+3     :     0.004815
      f-3     :     0.004842
  2 C s       :     2.767126  s :     2.767126
      pz      :     0.974422  p :     2.967994
      px      :     1.007367
      py      :     0.986205
      dz2     :     0.061780  d :     0.376937
      dxz     :     0.075988
      dyz     :     0.066350
      dx2y2   :     0.089575
      dxy     :     0.083244
      f0      :     0.002519  f :     0.042949
      f+1     :     0.007685
      f-1     :     0.005842
      f+2     :     0.007064
      f-2     :     0.005764
      f+3     :     0.005442
      f-3     :     0.008633
  3 C s       :     2.728782  s :     2.728782
      pz      :     0.973762  p :     2.844708
      px      :     0.867741
      py      :     1.003205
      dz2     :     0.122546  d :     0.559379
      dxz     :     0.123552
      dyz     :     0.095440
      dx2y2   :     0.120953
      dxy     :     0.096888
      f0      :     0.008269  f :     0.065934
      f+1     :     0.010633
      f-1     :     0.007058
      f+2     :     0.012004
      f-2     :     0.008329
      f+3     :     0.008977
      f-3     :     0.010663
  4 C s       :     2.768083  s :     2.768083
      pz      :     0.993186  p :     3.011358
      px      :     1.031243
      py      :     0.986929
      dz2     :     0.080891  d :     0.348327
      dxz     :     0.083028
      dyz     :     0.056143
      dx2y2   :     0.046443
      dxy     :     0.081823
      f0      :     0.005960  f :     0.041087
      f+1     :     0.007920
      f-1     :     0.004562
      f+2     :     0.007084
      f-2     :     0.005624
      f+3     :     0.004902
      f-3     :     0.005035
  5 C s       :     2.719613  s :     2.719613
      pz      :     0.911267  p :     2.821765
      px      :     1.000657
      py      :     0.909842
      dz2     :     0.197434  d :     0.821711
      dxz     :     0.197777
      dyz     :     0.153603
      dx2y2   :     0.132409
      dxy     :     0.140488
      f0      :     0.018788  f :     0.114654
      f+1     :     0.021572
      f-1     :     0.015934
      f+2     :     0.022005
      f-2     :     0.012099
      f+3     :     0.012025
      f-3     :     0.012231
  6 O s       :     3.408616  s :     3.408616
      pz      :     1.481795  p :     4.638938
      px      :     1.582381
      py      :     1.574762
      dz2     :     0.017583  d :     0.065792
      dxz     :     0.017747
      dyz     :     0.016916
      dx2y2   :     0.007379
      dxy     :     0.006167
      f0      :     0.000933  f :     0.005577
      f+1     :     0.001197
      f-1     :     0.001034
      f+2     :     0.001103
      f-2     :     0.000941
      f+3     :     0.000178
      f-3     :     0.000192
  7 H s       :     0.797841  s :     0.797841
      pz      :     0.016149  p :     0.059281
      px      :     0.029560
      py      :     0.013571
  8 H s       :     0.794663  s :     0.794663
      pz      :     0.015844  p :     0.060235
      px      :     0.019189
      py      :     0.025202
  9 H s       :     0.787007  s :     0.787007
      pz      :     0.029558  p :     0.063178
      px      :     0.014752
      py      :     0.018867
 10 N s       :     2.942276  s :     2.942276
      pz      :     1.088821  p :     3.288759
      px      :     1.124090
      py      :     1.075848
      dz2     :     0.154926  d :     0.728031
      dxz     :     0.146264
      dyz     :     0.160779
      dx2y2   :     0.144709
      dxy     :     0.121353
      f0      :     0.008775  f :     0.066357
      f+1     :     0.012196
      f-1     :     0.009945
      f+2     :     0.010041
      f-2     :     0.007843
      f+3     :     0.006916
      f-3     :     0.010642
 11 H s       :     0.795662  s :     0.795662
      pz      :     0.016159  p :     0.063085
      px      :     0.020365
      py      :     0.026560
 12 O s       :     3.516719  s :     3.516719
      pz      :     1.333750  p :     4.450793
      px      :     1.633319
      py      :     1.483724
      dz2     :     0.028079  d :     0.094636
      dxz     :     0.018888
      dyz     :     0.031064
      dx2y2   :     0.007464
      dxy     :     0.009141
      f0      :     0.001820  f :     0.010196
      f+1     :     0.001422
      f-1     :     0.003004
      f+2     :     0.001572
      f-2     :     0.001794
      f+3     :     0.000315
      f-3     :     0.000269
 13 O s       :     3.515759  s :     3.515759
      pz      :     1.566303  p :     4.446041
      px      :     1.529773
      py      :     1.349965
      dz2     :     0.012681  d :     0.095153
      dxz     :     0.013504
      dyz     :     0.020430
      dx2y2   :     0.019317
      dxy     :     0.029221
      f0      :     0.001067  f :     0.010318
      f+1     :     0.000692
      f-1     :     0.001291
      f+2     :     0.000985
      f-2     :     0.002434
      f+3     :     0.002138
      f-3     :     0.001712


                      *****************************
                      * MAYER POPULATION ANALYSIS *
                      *****************************

  NA   - Mulliken gross atomic population
  ZA   - Total nuclear charge
  QA   - Mulliken gross atomic charge
  VA   - Mayer's total valence
  BVA  - Mayer's bonded valence
  FA   - Mayer's free valence

  ATOM       NA         ZA         QA         VA         BVA        FA
  0 C      6.2427     6.0000    -0.2427     3.7021     3.7021    -0.0000
  1 C      6.1253     6.0000    -0.1253     3.7622     3.7622     0.0000
  2 C      6.2443     6.0000    -0.2443     3.9925     3.9925    -0.0000
  3 C      5.8520     6.0000     0.1480     3.6649     3.6649    -0.0000
  4 C      6.4018     6.0000    -0.4018     3.8666     3.8666     0.0000
  5 C      5.7463     6.0000     0.2537     4.1745     4.1745     0.0000
  6 O      8.5588     8.0000    -0.5588     1.9568     1.9568     0.0000
  7 H      0.8987     1.0000     0.1013     0.9957     0.9957     0.0000
  8 H      0.8699     1.0000     0.1301     0.9648     0.9648    -0.0000
  9 H      0.8650     1.0000     0.1350     1.0040     1.0040    -0.0000
 10 N      6.6019     7.0000     0.3981     4.2484     4.2484     0.0000
 11 H      0.9183     1.0000     0.0817     1.0391     1.0391     0.0000
 12 O      8.3388     8.0000    -0.3388     1.9571     1.9571     0.0000
 13 O      8.3363     8.0000    -0.3363     1.9591     1.9591     0.0000

  Mayer bond orders larger than 0.100000
B(  0-C ,  1-C ) :   1.4667 B(  0-C ,  5-C ) :   1.0424 B(  0-C ,  7-H ) :   0.9788 
B(  1-C ,  2-C ) :   1.2316 B(  1-C ,  8-H ) :   0.9519 B(  2-C ,  3-C ) :   1.4664 
B(  2-C ,  9-H ) :   0.9487 B(  3-C ,  4-C ) :   1.1859 B(  3-C , 10-N ) :   1.0160 
B(  4-C ,  5-C ) :   1.3577 B(  4-C , 11-H ) :   0.9856 B(  5-C ,  6-O ) :   1.7278 
B( 10-N , 12-O ) :   1.5965 B( 10-N , 13-O ) :   1.6006 B( 12-O , 13-O ) :   0.2053 


-------
TIMINGS
-------

Total SCF time: 0 days 0 hours 1 min 23 sec 

Total time                  ....      83.667 sec
Sum of individual times     ....      80.089 sec  ( 95.7%)

Fock matrix formation       ....      76.054 sec  ( 90.9%)
  Split-RI-J                ....      16.256 sec  ( 21.4% of F)
  XC integration            ....      36.297 sec  ( 47.7% of F)
    Basis function eval.    ....      10.734 sec  ( 29.6% of XC)
    Density eval.           ....       9.523 sec  ( 26.2% of XC)
    XC-Functional eval.     ....       1.314 sec  (  3.6% of XC)
    XC-Potential eval.      ....      10.949 sec  ( 30.2% of XC)
Diagonalization             ....       0.165 sec  (  0.2%)
Density matrix formation    ....       0.025 sec  (  0.0%)
Population analysis         ....       0.174 sec  (  0.2%)
Initial guess               ....       1.067 sec  (  1.3%)
Orbital Transformation      ....       0.000 sec  (  0.0%)
Orbital Orthonormalization  ....       0.000 sec  (  0.0%)
DIIS solution               ....       0.152 sec  (  0.2%)
SOSCF solution              ....       0.912 sec  (  1.1%)
Grid generation             ....       1.540 sec  (  1.8%)

Maximum memory used throughout the entire SCF-calculation: 146.3 MB


-------------------------------------------------------------------------------
                          DFT DISPERSION CORRECTION                            
                                                                               
                              DFTD3 V3.1  Rev 1                                
                          USING Becke-Johnson damping                          
-------------------------------------------------------------------------------
The PBE functional is recognized
Active option DFTDOPT                   ...         4   

molecular C6(AA) [au] = 2665.034678 


            DFT-D V3
 parameters
 s6 scaling factor         :     1.0000 
 a1 scaling factor         :     0.4289 
 s8 scaling factor         :     0.7875 
 a2 scaling factor         :     4.4407 
 ad hoc parameters k1-k3   :    16.0000     1.3333    -4.0000 

 Edisp/kcal,au: -9.434368124037  -0.015034621002 
 E6   /kcal   :  -6.550624113 
 E8   /kcal   :  -2.883744012 
 % E8         :  30.566371522 

-------------------------   ----------------
Dispersion correction           -0.015034621
-------------------------   ----------------


-------------------------   --------------------
FINAL SINGLE POINT ENERGY      -511.160380191593
-------------------------   --------------------

------------------------------------------------------------------------------
                         ORCA SCF GRADIENT CALCULATION
------------------------------------------------------------------------------

Gradient of the Kohn-Sham DFT energy:
Kohn-Sham wavefunction type      ... RKS
Hartree-Fock exchange scaling    ...    0.000
Number of operators              ...    1
Number of atoms                  ...   14
Basis set dimensions             ...  334
Integral neglect threshold       ... 2.5e-11
Integral primitive cutoff        ... 2.5e-12
SHARK Integral package           ... ON

Nuc. rep. gradient       (SHARK) ... done (  0.0 sec)
HCore & Overlap gradient (SHARK) ... done (  0.5 sec)
RI-J gradient            (SHARK) ... done (  3.7 sec)
Exchange-correlation gradient    ... done
Dispersion correction            ... done

------------------
CARTESIAN GRADIENT
------------------

   1   C   :    0.007935942    0.004928348    0.000997759
   2   C   :    0.029498635   -0.001408033    0.026759144
   3   C   :   -0.041049909   -0.037557957    0.009013697
   4   C   :   -0.000058154    0.029060413   -0.034087472
   5   C   :    0.063567116    0.009211083    0.043333889
   6   C   :   -0.067030615   -0.046404309   -0.002786346
   7   O   :    0.002266033    0.037589036   -0.042012216
   8   H   :   -0.001853639    0.002004853   -0.003917952
   9   H   :   -0.001881495   -0.005343952    0.004653799
  10   H   :    0.004749485    0.001201616    0.002642471
  11   N   :   -0.003172169    0.000379130   -0.003155674
  12   H   :    0.003827677    0.002953683   -0.000187769
  13   O   :    0.002172196    0.003794927   -0.002580327
  14   O   :    0.001028895   -0.000408837    0.001326998

Difference to translation invariance:
           :    0.0000000000    0.0000000000   -0.0000000000

Difference to rotation invariance:
           :   -0.0000090669   -0.0003211388   -0.0000526103

Norm of the cartesian gradient     ...    0.1512631262
RMS gradient                       ...    0.0233404071
MAX gradient                       ...    0.0670306155

-------
TIMINGS
-------

Total SCF gradient time            ...       17.893 sec

One electron gradient       ....       0.501 sec  (  2.8%)
RI-J Coulomb gradient       ....       3.690 sec  ( 20.6%)
XC gradient                 ....      11.610 sec  ( 64.9%)
CPCM gradient               ....       0.791 sec  (  4.4%)
   A-Matrix (El+Nuc)        ....       0.038 sec  (  0.2%)
   Potential                ....       0.753 sec  (  4.2%)

Maximum memory used throughout the entire SCFGRAD-calculation: 145.2 MB
------------------------------------------------------------------------------
                         ORCA GEOMETRY RELAXATION STEP
------------------------------------------------------------------------------

Reading the OPT-File                    .... done
Getting information on internals        .... done
Copying old internal coords+grads       .... done
Making the new internal coordinates     .... (new redundants).... done
Validating the new internal coordinates .... (new redundants).... done
Calculating the B-matrix                .... done
Calculating the G,G- and P matrices     .... done
Transforming gradient to internals      .... done
Projecting the internal gradient        .... done
Number of atoms                         ....  14
Number of internal coordinates          ....  63
Current Energy                          ....  -511.160380192 Eh
Current gradient norm                   ....     0.151263126 Eh/bohr
Maximum allowed component of the step   ....  0.300
Current trust radius                    ....  0.300
Evaluating the initial hessian          ....  (Almloef) done
Projecting the Hessian                  .... done
Forming the augmented Hessian           .... done
Diagonalizing the augmented Hessian     .... done
Last element of RFO vector              ....  0.982504017
Lowest eigenvalues of augmented Hessian:
 -0.020806083  0.014330324  0.014330349  0.020254461  0.021014012
Length of the computed step             ....  0.189557896
The final length of the internal step   ....  0.189557896
Converting the step to cartesian space:
 Initial RMS(Int)=    0.0238820501
Transforming coordinates:
 Iter   0:  RMS(Cart)=    0.0464136110 RMS(Int)=    2.5032896576
 Iter   1:  RMS(Cart)=    0.0012948341 RMS(Int)=    0.0009718509
 Iter   2:  RMS(Cart)=    0.0000814160 RMS(Int)=    0.0000564660
 Iter   3:  RMS(Cart)=    0.0000071745 RMS(Int)=    0.0000049365
 Iter   4:  RMS(Cart)=    0.0000004981 RMS(Int)=    0.0000003930
 Iter   5:  RMS(Cart)=    0.0000000413 RMS(Int)=    0.0000000244
done
Storing new coordinates                 .... done

                                .--------------------.
          ----------------------|Geometry convergence|-------------------------
          Item                value                   Tolerance       Converged
          ---------------------------------------------------------------------
          RMS gradient        0.0143503587            0.0001000000      NO
          MAX gradient        0.0578988688            0.0003000000      NO
          RMS step            0.0238820501            0.0020000000      NO
          MAX step            0.0951309811            0.0040000000      NO
          ........................................................
          Max(Bonds)      0.0417      Max(Angles)    5.45
          Max(Dihed)        0.03      Max(Improp)    0.00
          ---------------------------------------------------------------------

The optimization has not yet converged - more geometry cycles are needed


    ---------------------------------------------------------------------------
                         Redundant Internal Coordinates
                            (Angstroem and degrees)

        Definition                    Value    dE/dq     Step     New-Value
    ----------------------------------------------------------------------------
     1. B(C   1,C   0)                1.3463 -0.031944  0.0222    1.3685   
     2. B(C   2,C   1)                1.4520  0.021865 -0.0231    1.4289   
     3. B(C   3,C   2)                1.3486 -0.035227  0.0246    1.3732   
     4. B(C   4,C   3)                1.4529  0.025935 -0.0263    1.4266   
     5. B(C   5,C   4)                1.3504 -0.057899  0.0417    1.3922   
     6. B(C   5,C   0)                1.4669 -0.009130  0.0103    1.4772   
     7. B(O   6,C   5)                1.2554 -0.047111  0.0266    1.2819   
     8. B(H   7,C   0)                1.0875 -0.002807  0.0039    1.0914   
     9. B(H   8,C   1)                1.0827 -0.006813  0.0092    1.0919   
    10. B(H   9,C   2)                1.0834 -0.002825  0.0038    1.0872   
    11. B(N  10,C   3)                1.4639  0.001054 -0.0012    1.4627   
    12. B(H  11,C   4)                1.0850 -0.004390  0.0060    1.0909   
    13. B(O  12,N  10)                1.2441  0.003457 -0.0021    1.2420   
    14. B(O  13,N  10)                1.2408  0.000262 -0.0002    1.2407   
    15. A(C   5,C   0,H   7)          118.30  0.007427   -1.12    117.18   
    16. A(C   1,C   0,H   7)          120.13 -0.000523    0.14    120.27   
    17. A(C   1,C   0,C   5)          121.57 -0.006904    0.97    122.55   
    18. A(C   0,C   1,H   8)          120.84 -0.001700    0.35    121.19   
    19. A(C   0,C   1,C   2)          120.01 -0.002132    0.16    120.17   
    20. A(C   2,C   1,H   8)          119.14  0.003831   -0.50    118.64   
    21. A(C   1,C   2,C   3)          118.98  0.004123   -0.74    118.24   
    22. A(C   3,C   2,H   9)          123.68  0.002844   -0.39    123.28   
    23. A(C   1,C   2,H   9)          117.34 -0.006966    1.13    118.47   
    24. A(C   2,C   3,N  10)          117.84 -0.003906    0.59    118.44   
[...]

-----------------------
MULLIKEN ATOMIC CHARGES
-----------------------
   0 C :   -0.256715
   1 C :   -0.119061
   2 C :   -0.274498
   3 C :    0.141515
   4 C :   -0.338130
   5 C :    0.239412
   6 O :   -0.579263
   7 H :    0.093880
   8 H :    0.130623
   9 H :    0.136258
  10 N :    0.399339
  11 H :    0.103870
  12 O :   -0.340221
  13 O :   -0.337010
Sum of atomic charges:   -1.0000000

--------------------------------
MULLIKEN REDUCED ORBITAL CHARGES
--------------------------------
  0 C s       :     3.287406  s :     3.287406
      pz      :     0.950140  p :     2.888397
      px      :     0.965714
      py      :     0.972542
      dz2     :     0.016852  d :     0.074459
      dxz     :     0.016576
      dyz     :     0.013960
      dx2y2   :     0.015775
      dxy     :     0.011297
      f0      :     0.001072  f :     0.006454
      f+1     :     0.000646
      f-1     :     0.001028
      f+2     :     0.001281
      f-2     :     0.001117
      f+3     :     0.000522
      f-3     :     0.000788
  1 C s       :     3.177949  s :     3.177949
      pz      :     0.940428  p :     2.843998
      px      :     0.939433
      py      :     0.964137
      dz2     :     0.022182  d :     0.090283
      dxz     :     0.023994
      dyz     :     0.012136
      dx2y2   :     0.012727
      dxy     :     0.019244
      f0      :     0.001061  f :     0.006831
      f+1     :     0.001316
      f-1     :     0.000509
      f+2     :     0.001070
      f-2     :     0.001281
      f+3     :     0.000920
      f-3     :     0.000672
  2 C s       :     3.278495  s :     3.278495
      pz      :     0.983756  p :     2.901387
      px      :     0.941182
      py      :     0.976450
      dz2     :     0.015944  d :     0.087736
      dxz     :     0.017917
      dyz     :     0.012718
      dx2y2   :     0.021170
      dxy     :     0.019987
      f0      :     0.000244  f :     0.006880
      f+1     :     0.001401
      f-1     :     0.001022
      f+2     :     0.000889
      f-2     :     0.001191
      f+3     :     0.000876
      f-3     :     0.001256
  3 C s       :     3.086122  s :     3.086122
      pz      :     0.888300  p :     2.625057
      px      :     0.814469
      py      :     0.922288
      dz2     :     0.030845  d :     0.136008
      dxz     :     0.028441
      dyz     :     0.024612
      dx2y2   :     0.033764
      dxy     :     0.018345
      f0      :     0.001456  f :     0.011299
      f+1     :     0.001707
      f-1     :     0.001155
      f+2     :     0.002046
      f-2     :     0.001764
      f+3     :     0.001375
      f-3     :     0.001795
  4 C s       :     3.333810  s :     3.333810
      pz      :     0.957456  p :     2.921784
      px      :     0.973843
      py      :     0.990484
      dz2     :     0.019743  d :     0.075789
      dxz     :     0.015514
      dyz     :     0.011850
      dx2y2   :     0.011482
      dxy     :     0.017201
      f0      :     0.001137  f :     0.006746
      f+1     :     0.001269
      f-1     :     0.000559
      f+2     :     0.001102
      f-2     :     0.001321
      f+3     :     0.000747
      f-3     :     0.000612
  5 C s       :     2.942006  s :     2.942006
      pz      :     0.867833  p :     2.649481
      px      :     0.900723
      py      :     0.880925
      dz2     :     0.048268  d :     0.153371
      dxz     :     0.028134
      dyz     :     0.026356
      dx2y2   :     0.023066
      dxy     :     0.027548
      f0      :     0.002421  f :     0.015730
      f+1     :     0.002755
      f-1     :     0.002308
      f+2     :     0.003239
      f-2     :     0.002324
      f+3     :     0.001220
      f-3     :     0.001462
  6 O s       :     3.767954  s :     3.767954
      pz      :     1.436063  p :     4.783546
      px      :     1.728104
      py      :     1.619379
      dz2     :     0.008379  d :     0.026264
      dxz     :     0.005682
      dyz     :     0.007131
      dx2y2   :     0.002309
      dxy     :     0.002763
      f0      :     0.000353  f :     0.001499
      f+1     :     0.000225
      f-1     :     0.000321
      f+2     :     0.000226
      f-2     :     0.000259
      f+3     :     0.000063
      f-3     :     0.000053
  7 H s       :     0.884298  s :     0.884298
      pz      :     0.005825  p :     0.021822
      px      :     0.010952
      py      :     0.005045
  8 H s       :     0.847850  s :     0.847850
      pz      :     0.005479  p :     0.021527
      px      :     0.006868
      py      :     0.009180
  9 H s       :     0.841122  s :     0.841122
      pz      :     0.010752  p :     0.022620
      px      :     0.005523
      py      :     0.006345
 10 N s       :     3.271027  s :     3.271027
      pz      :     0.994131  p :     3.080872
      px      :     1.076035
      py      :     1.010707
      dz2     :     0.054699  d :     0.235538
      dxz     :     0.048616
      dyz     :     0.044882
      dx2y2   :     0.051110
      dxy     :     0.036231
      f0      :     0.001786  f :     0.013224
      f+1     :     0.002216
      f-1     :     0.002010
      f+2     :     0.002127
      f-2     :     0.001775
      f+3     :     0.001288
      f-3     :     0.002023
 11 H s       :     0.873380  s :     0.873380
      pz      :     0.005288  p :     0.022750
      px      :     0.007887
      py      :     0.009574
 12 O s       :     3.864302  s :     3.864302
      pz      :     1.239307  p :     4.433114
      px      :     1.697920
      py      :     1.495887
      dz2     :     0.012817  d :     0.039728
      dxz     :     0.008018
      dyz     :     0.011536
      dx2y2   :     0.003059
      dxy     :     0.004298
      f0      :     0.000675  f :     0.003076
      f+1     :     0.000434
      f-1     :     0.000781
      f+2     :     0.000413
      f-2     :     0.000547
      f+3     :     0.000130
      f-3     :     0.000096
 13 O s       :     3.861894  s :     3.861894
      pz      :     1.596084  p :     4.432181
      px      :     1.551299
      py      :     1.284797
      dz2     :     0.005466  d :     0.039848
      dxz     :     0.006236
      dyz     :     0.008119
      dx2y2   :     0.009266
      dxy     :     0.010761
      f0      :     0.000311  f :     0.003088
      f+1     :     0.000236
      f-1     :     0.000402
      f+2     :     0.000330
      f-2     :     0.000707
      f+3     :     0.000601
      f-3     :     0.000502


                     *******************************
                     * LOEWDIN POPULATION ANALYSIS *
                     *******************************

----------------------
LOEWDIN ATOMIC CHARGES
----------------------
   0 C :   -0.149456
   1 C :   -0.173279
   2 C :   -0.173340
   3 C :   -0.203885
   4 C :   -0.136332
   5 C :   -0.428375
   6 O :   -0.153805
   7 H :    0.140546
   8 H :    0.150144
   9 H :    0.148649
  10 N :   -0.025816
  11 H :    0.144896
  12 O :   -0.070817
  13 O :   -0.069129

-------------------------------
LOEWDIN REDUCED ORBITAL CHARGES
-------------------------------
  0 C s       :     2.789441  s :     2.789441
      pz      :     1.008984  p :     2.966235
      px      :     0.971415
      py      :     0.985835
      dz2     :     0.071706  d :     0.355618
      dxz     :     0.079670
      dyz     :     0.079114
      dx2y2   :     0.069978
      dxy     :     0.055150
      f0      :     0.005701  f :     0.038162
      f+1     :     0.005324
      f-1     :     0.006496
      f+2     :     0.006804
      f-2     :     0.005267
      f+3     :     0.003538
      f-3     :     0.005031
  1 C s       :     2.773659  s :     2.773659
      pz      :     1.006103  p :     2.957304
      px      :     1.000704
      py      :     0.950497
      dz2     :     0.093355  d :     0.399997
      dxz     :     0.101026
      dyz     :     0.064730
      dx2y2   :     0.054801
      dxy     :     0.086086
      f0      :     0.005911  f :     0.042318
      f+1     :     0.008241
      f-1     :     0.005153
      f+2     :     0.007455
      f-2     :     0.005201
      f+3     :     0.005329
      f-3     :     0.005027
  2 C s       :     2.769052  s :     2.769052
      pz      :     0.984086  p :     2.990235
      px      :     1.022620
      py      :     0.983529
      dz2     :     0.062375  d :     0.371638
      dxz     :     0.081213
      dyz     :     0.058659
      dx2y2   :     0.083783
      dxy     :     0.085608
      f0      :     0.002482  f :     0.042415
      f+1     :     0.008306
      f-1     :     0.005201
      f+2     :     0.007287
      f-2     :     0.005783
      f+3     :     0.005194
      f-3     :     0.008162
  3 C s       :     2.731177  s :     2.731177
      pz      :     0.990169  p :     2.845528
      px      :     0.858387
      py      :     0.996972
      dz2     :     0.120018  d :     0.561866
      dxz     :     0.127856
      dyz     :     0.096443
      dx2y2   :     0.123004
      dxy     :     0.094544
      f0      :     0.008394  f :     0.065314
      f+1     :     0.010395
      f-1     :     0.007532
      f+2     :     0.011777
      f-2     :     0.008340
      f+3     :     0.008403
      f-3     :     0.010474
  4 C s       :     2.782108  s :     2.782108
      pz      :     0.997597  p :     2.969363
      px      :     0.999245
      py      :     0.972520
      dz2     :     0.080716  d :     0.345776
      dxz     :     0.083301
      dyz     :     0.059633
      dx2y2   :     0.046692
      dxy     :     0.075434
      f0      :     0.006327  f :     0.039084
      f+1     :     0.007233
      f-1     :     0.004943
      f+2     :     0.006635
      f-2     :     0.005462
      f+3     :     0.004154
      f-3     :     0.004329
  5 C s       :     2.740047  s :     2.740047
      pz      :     0.906887  p :     2.810636
      px      :     0.979185
      py      :     0.924564
      dz2     :     0.188382  d :     0.776859
      dxz     :     0.183222
      dyz     :     0.155086
      dx2y2   :     0.127427
      dxy     :     0.122744
      f0      :     0.016606  f :     0.100832
      f+1     :     0.018345
      f-1     :     0.016150
      f+2     :     0.017570
      f-2     :     0.011594
      f+3     :     0.009025
      f-3     :     0.011544
  6 O s       :     3.436201  s :     3.436201
      pz      :     1.472197  p :     4.652695
      px      :     1.625418
      py      :     1.555080
      dz2     :     0.016751  d :     0.060050
      dxz     :     0.014412
      dyz     :     0.017442
      dx2y2   :     0.005914
      dxy     :     0.005531
      f0      :     0.000854  f :     0.004858
      f+1     :     0.000826
      f-1     :     0.001196
      f+2     :     0.000851
      f-2     :     0.000840
      f+3     :     0.000135
      f-3     :     0.000156
  7 H s       :     0.799829  s :     0.799829
      pz      :     0.016076  p :     0.059625
      px      :     0.029477
      py      :     0.014071
  8 H s       :     0.791532  s :     0.791532
      pz      :     0.015113  p :     0.058324
      px      :     0.018669
      py      :     0.024542
  9 H s       :     0.788181  s :     0.788181
      pz      :     0.029622  p :     0.063170
      px      :     0.015407
      py      :     0.018141
 10 N s       :     2.943874  s :     2.943874
      pz      :     1.087167  p :     3.287533
      px      :     1.125424
      py      :     1.074942
      dz2     :     0.157998  d :     0.727276
      dxz     :     0.146559
      dyz     :     0.160693
      dx2y2   :     0.142008
      dxy     :     0.120018
      f0      :     0.008707  f :     0.067133
      f+1     :     0.012537
      f-1     :     0.010390
      f+2     :     0.010589
      f-2     :     0.007505
      f+3     :     0.006868
      f-3     :     0.010537
 11 H s       :     0.792244  s :     0.792244
      pz      :     0.015176  p :     0.062861
      px      :     0.021426
      py      :     0.026259
 12 O s       :     3.515316  s :     3.515316
      pz      :     1.332453  p :     4.450047
      px      :     1.628014
      py      :     1.489581
      dz2     :     0.028580  d :     0.095158
      dxz     :     0.020290
      dyz     :     0.030023
      dx2y2   :     0.007192
      dxy     :     0.009074
      f0      :     0.001884  f :     0.010296
      f+1     :     0.001595
      f-1     :     0.002904
      f+2     :     0.001520
      f-2     :     0.001831
      f+3     :     0.000301
      f-3     :     0.000260
 13 O s       :     3.514565  s :     3.514565
      pz      :     1.565184  p :     4.448869
      px      :     1.532015
      py      :     1.351670
      dz2     :     0.012804  d :     0.095364
      dxz     :     0.013842
      dyz     :     0.021008
      dx2y2   :     0.019023
      dxy     :     0.028687
      f0      :     0.001066  f :     0.010332
      f+1     :     0.000693
      f-1     :     0.001319
      f+2     :     0.001053
      f-2     :     0.002470
      f+3     :     0.002073
      f-3     :     0.001658


                      *****************************
                      * MAYER POPULATION ANALYSIS *
                      *****************************

  NA   - Mulliken gross atomic population
  ZA   - Total nuclear charge
  QA   - Mulliken gross atomic charge
  VA   - Mayer's total valence
  BVA  - Mayer's bonded valence
  FA   - Mayer's free valence

  ATOM       NA         ZA         QA         VA         BVA        FA
  0 C      6.2567     6.0000    -0.2567     3.7529     3.7529     0.0000
  1 C      6.1191     6.0000    -0.1191     3.8263     3.8263    -0.0000
  2 C      6.2745     6.0000    -0.2745     3.9636     3.9636     0.0000
  3 C      5.8585     6.0000     0.1415     3.6165     3.6165    -0.0000
  4 C      6.3381     6.0000    -0.3381     3.7190     3.7190    -0.0000
  5 C      5.7606     6.0000     0.2394     4.1725     4.1725    -0.0000
  6 O      8.5793     8.0000    -0.5793     1.9472     1.9472     0.0000
  7 H      0.9061     1.0000     0.0939     0.9971     0.9971     0.0000
  8 H      0.8694     1.0000     0.1306     0.9627     0.9627     0.0000
  9 H      0.8637     1.0000     0.1363     1.0040     1.0040     0.0000
 10 N      6.6007     7.0000     0.3993     4.2451     4.2451    -0.0000
 11 H      0.8961     1.0000     0.1039     1.0298     1.0298    -0.0000
 12 O      8.3402     8.0000    -0.3402     1.9540     1.9540     0.0000
 13 O      8.3370     8.0000    -0.3370     1.9595     1.9595    -0.0000

  Mayer bond orders larger than 0.100000
B(  0-C ,  1-C ) :   1.3855 B(  0-C ,  5-C ) :   1.1807 B(  0-C ,  7-H ) :   0.9754 
B(  1-C ,  2-C ) :   1.3762 B(  1-C ,  8-H ) :   0.9587 B(  2-C ,  3-C ) :   1.3104 
B(  2-C ,  9-H ) :   0.9518 B(  3-C ,  4-C ) :   1.2842 B(  3-C , 10-N ) :   1.0074 
B(  4-C ,  5-C ) :   1.1698 B(  4-C , 11-H ) :   0.9651 B(  5-C ,  6-O ) :   1.7526 
B( 10-N , 12-O ) :   1.5981 B( 10-N , 13-O ) :   1.6034 B( 12-O , 13-O ) :   0.2041 


-------
TIMINGS
-------

Total SCF time: 0 days 0 hours 0 min 35 sec 

Total time                  ....      35.351 sec
Sum of individual times     ....      33.119 sec  ( 93.7%)

Fock matrix formation       ....      31.473 sec  ( 89.0%)
  Split-RI-J                ....       6.693 sec  ( 21.3% of F)
  XC integration            ....      14.548 sec  ( 46.2% of F)
    Basis function eval.    ....       4.721 sec  ( 32.4% of XC)
    Density eval.           ....       4.044 sec  ( 27.8% of XC)
    XC-Functional eval.     ....       0.581 sec  (  4.0% of XC)
    XC-Potential eval.      ....       3.725 sec  ( 25.6% of XC)
Diagonalization             ....       0.022 sec  (  0.1%)
Density matrix formation    ....       0.012 sec  (  0.0%)
Population analysis         ....       0.067 sec  (  0.2%)
Initial guess               ....       0.028 sec  (  0.1%)
Orbital Transformation      ....       0.000 sec  (  0.0%)
Orbital Orthonormalization  ....       0.021 sec  (  0.1%)
DIIS solution               ....       0.005 sec  (  0.0%)
SOSCF solution              ....       0.374 sec  (  1.1%)
Grid generation             ....       1.137 sec  (  3.2%)

Maximum memory used throughout the entire SCF-calculation: 146.2 MB


-------------------------------------------------------------------------------
                          DFT DISPERSION CORRECTION                            
                                                                               
                              DFTD3 V3.1  Rev 1                                
                          USING Becke-Johnson damping                          
-------------------------------------------------------------------------------
The PBE functional is recognized
Active option DFTDOPT                   ...         4   

molecular C6(AA) [au] = 2668.394915 


            DFT-D V3
 parameters
 s6 scaling factor         :     1.0000 
 a1 scaling factor         :     0.4289 
 s8 scaling factor         :     0.7875 
 a2 scaling factor         :     4.4407 
 ad hoc parameters k1-k3   :    16.0000     1.3333    -4.0000 

 Edisp/kcal,au: -9.407830241761  -0.014992330199 
 E6   /kcal   :  -6.532342602 
 E8   /kcal   :  -2.875487640 
 % E8         :  30.564833401 

-------------------------   ----------------
Dispersion correction           -0.014992330
-------------------------   ----------------


-------------------------   --------------------
FINAL SINGLE POINT ENERGY      -511.179792157711
-------------------------   --------------------

                                *** OPTIMIZATION RUN DONE ***

                            ***************************************
                            *     ORCA property calculations      *
                            ***************************************

                                    ---------------------
                                    Active property flags
                                    ---------------------
   (+) Dipole Moment


------------------------------------------------------------------------------
                       ORCA ELECTRIC PROPERTIES CALCULATION
------------------------------------------------------------------------------

Dipole Moment Calculation                       ... on
Quadrupole Moment Calculation                   ... off
Polarizability Calculation                      ... off
GBWName                                         ... inp.gbw
Electron density                                ... inp.scfp
The origin for moment calculation is the CENTER OF MASS  = (-7.735391, -6.836712  1.422022)

-------------
DIPOLE MOMENT
-------------
                                X             Y             Z
Electronic contribution:     -4.55061      -1.79678      -1.77016
Nuclear contribution   :      4.29799       3.27358      -0.17420
                        -----------------------------------------
Total Dipole Moment    :     -0.25262       1.47680      -1.94436
                        -----------------------------------------
Magnitude (a.u.)       :      2.45464
Magnitude (Debye)      :      6.23921



--------------------
Rotational spectrum 
--------------------
 
Rotational constants in cm-1:     0.091839     0.033029     0.024293 
Rotational constants in MHz :  2753.269020   990.190359   728.276920 

 Dipole components along the rotational axes: 
x,y,z [a.u.] :    -1.293534    -2.086153    -0.002333 
x,y,z [Debye]:    -3.287903    -5.302580    -0.005929 

 

Timings for individual modules:

Sum of individual times         ...      710.752 sec (=  11.846 min)
GTO integral calculation        ...       15.073 sec (=   0.251 min)   2.1 %
SCF iterations                  ...      545.322 sec (=   9.089 min)  76.7 %
SCF Gradient evaluation         ...      149.213 sec (=   2.487 min)  21.0 %
Geometry relaxation             ...        1.143 sec (=   0.019 min)   0.2 %
                             ****ORCA TERMINATED NORMALLY****
TOTAL RUN TIME: 0 days 0 hours 11 minutes 56 seconds 37 msec
