 Entering Gaussian System
 *********************************************
 Gaussian 98:
 frequency output generated by the xtb code
 *********************************************
                         Standard orientation:
 --------------------------------------------------------------------
  Center     Atomic     Atomic              Coordinates (Angstroms)
  Number     Number      Type              X           Y           Z
 --------------------------------------------------------------------
    1          6             0       -2.174255    1.501297    0.013643
    2          6             0       -0.720958    1.735955   -0.373194
    3          1             0       -2.214731    0.991997    0.974861
    4          1             0       -2.680851    2.459560    0.113888
    5          1             0       -2.677721    0.898663   -0.740978
    6         16             0        0.180908    2.737315    0.845685
    7          1             0       -0.190182    0.778894   -0.471074
    8          1             0       -0.659809    2.257265   -1.338471
 --------------------------------------------------------------------
     1 basis functions        1 primitive gaussians
     1 alpha electrons        1 beta electrons
 
 Harmonic frequencies (cm**-1), IR intensities (km*mol⁻¹),
 Raman scattering activities (A**4/amu), Raman depolarization ratios,
 reduced masses (AMU), force constants (mDyne/A) and normal coordinates:
                      1                      2                      3
                        a                      a                      a 
 Frequencies --   211.0576               301.0385               684.9906
 Red. masses --     2.4480                14.4674                16.4080
 Frc consts  --     0.0000                 0.0000                 0.0000
 IR Inten    --     1.2913                11.2140                 0.5064
 Raman Activ --     0.0000                 0.0000                 0.0000
 Depolar     --     0.0000                 0.0000                 0.0000
 Atom AN      X      Y      Z        X      Y      Z        X      Y      Z
   1   6    -0.01   0.02  -0.02     0.39   0.29   0.28     0.17   0.09   0.05
   2   6     0.07  -0.21   0.12     0.26  -0.10  -0.31     0.19   0.39   0.56
   3   1    -0.06  -0.46  -0.25     0.23   0.15   0.12    -0.07  -0.05  -0.03
   4   1     0.19   0.06   0.49     0.23   0.14   0.13    -0.08  -0.04  -0.04
   5   1    -0.15   0.48  -0.28    -0.08   0.09   0.20     0.28   0.01  -0.13
   6  16    -0.04   0.13  -0.08    -0.48  -0.17  -0.03    -0.25  -0.30  -0.38
   7   1     0.00  -0.08   0.10     0.06  -0.04  -0.08     0.02   0.08   0.11
   8   1     0.06  -0.11   0.01     0.06  -0.03  -0.09     0.02   0.07   0.11
                      4                      5                      6
                        a                      a                      a 
 Frequencies --   786.8673              1016.0065              1023.1177
 Red. masses --     2.4935                 5.5906                 3.0700
 Frc consts  --     0.0000                 0.0000                 0.0000
 IR Inten    --     0.2081                 0.6952                 2.4953
 Raman Activ --     0.0000                 0.0000                 0.0000
 Depolar     --     0.0000                 0.0000                 0.0000
 Atom AN      X      Y      Z        X      Y      Z        X      Y      Z
   1   6     0.02  -0.07   0.04    -0.39  -0.21  -0.14     0.07  -0.20   0.12
   2   6     0.09  -0.28   0.16     0.34   0.18   0.12    -0.09   0.27  -0.16
   3   1    -0.38   0.10   0.05     0.12   0.12   0.07    -0.34   0.04   0.06
   4   1     0.29   0.16  -0.20     0.14   0.06   0.10     0.29   0.12  -0.15
   5   1    -0.04   0.12  -0.07    -0.54  -0.03   0.24    -0.04   0.13  -0.08
   6  16    -0.02   0.07  -0.04    -0.01  -0.06  -0.09     0.02  -0.08   0.05
   7   1     0.18   0.07  -0.49     0.27   0.14   0.08     0.32   0.22   0.35
   8   1    -0.31   0.34   0.24     0.27   0.12   0.08    -0.28  -0.34  -0.29
                      7                      8                      9
                        a                      a                      a 
 Frequencies --  1059.1084              1241.4596              1261.1308
 Red. masses --     8.5864                 3.2492                 3.3491
 Frc consts  --     0.0000                 0.0000                 0.0000
 IR Inten    --     2.6163                 0.6632                81.3915
 Raman Activ --     0.0000                 0.0000                 0.0000
 Depolar     --     0.0000                 0.0000                 0.0000
 Atom AN      X      Y      Z        X      Y      Z        X      Y      Z
   1   6     0.41  -0.07  -0.34    -0.10   0.30  -0.18    -0.01   0.10   0.18
   2   6    -0.56  -0.02   0.28     0.07  -0.22   0.13    -0.29  -0.20  -0.19
   3   1     0.32   0.12  -0.00     0.30  -0.04  -0.08    -0.05  -0.07  -0.01
   4   1     0.32   0.09   0.01    -0.27  -0.08   0.15    -0.07  -0.01  -0.05
   5   1    -0.20   0.00   0.11     0.04  -0.11   0.07     0.22   0.01  -0.10
   6  16     0.02  -0.01  -0.03     0.01  -0.02   0.01    -0.00  -0.03  -0.05
   7   1    -0.03   0.06   0.11     0.49   0.22   0.00     0.49   0.26   0.24
   8   1    -0.02   0.06   0.12    -0.52  -0.13  -0.06     0.47   0.31   0.21
                     10                     11                     12
                        a                      a                      a 
 Frequencies --  1385.0661              1480.8800              1481.2508
 Red. masses --     3.0875                 1.9095                 1.5166
 Frc consts  --     0.0000                 0.0000                 0.0000
 IR Inten    --     1.0650                20.5113                 0.4152
 Raman Activ --     0.0000                 0.0000                 0.0000
 Depolar     --     0.0000                 0.0000                 0.0000
 Atom AN      X      Y      Z        X      Y      Z        X      Y      Z
   1   6     0.42   0.08  -0.08    -0.06  -0.02  -0.03     0.05  -0.18   0.10
   2   6    -0.01  -0.02  -0.04     0.19  -0.05  -0.20     0.02  -0.04   0.01
   3   1    -0.51  -0.03  -0.05     0.06   0.01   0.00     0.31   0.31   0.19
   4   1    -0.44  -0.25   0.08     0.09   0.05   0.02    -0.34  -0.17  -0.27
   5   1    -0.42   0.03   0.28     0.05  -0.04  -0.02    -0.19   0.59  -0.35
   6  16    -0.00  -0.01  -0.01    -0.01  -0.01  -0.01    -0.00  -0.00  -0.00
   7   1     0.01   0.00   0.11    -0.21  -0.16   0.62     0.02  -0.00   0.02
   8   1    -0.02   0.09   0.05    -0.41   0.47   0.24    -0.05   0.02   0.02
                     13                     14                     15
                        a                      a                      a 
 Frequencies --  1504.5986              2822.1335              2865.1098
 Red. masses --     1.5861                 1.9912                 1.4219
 Frc consts  --     0.0000                 0.0000                 0.0000
 IR Inten    --     0.1996               154.9998               125.4441
 Raman Activ --     0.0000                 0.0000                 0.0000
 Depolar     --     0.0000                 0.0000                 0.0000
 Atom AN      X      Y      Z        X      Y      Z        X      Y      Z
   1   6     0.01   0.12   0.19     0.00  -0.00   0.00    -0.01  -0.00  -0.00
   2   6     0.02   0.02   0.03     0.08  -0.25   0.15    -0.10   0.06   0.15
   3   1     0.21  -0.56  -0.28    -0.01  -0.01   0.02    -0.01  -0.00   0.00
   4   1     0.01   0.08  -0.65     0.01  -0.01  -0.00    -0.01   0.00   0.00
   5   1    -0.24   0.02   0.16    -0.00   0.00  -0.00     0.01   0.02   0.02
   6  16    -0.00  -0.00  -0.00     0.00  -0.00   0.00     0.01   0.01   0.01
   7   1    -0.02  -0.01   0.01    -0.34   0.58   0.07     0.33  -0.61  -0.01
   8   1    -0.03   0.00   0.00     0.06   0.32  -0.59     0.02   0.37  -0.58
                     16                     17                     18
                        a                      a                      a 
 Frequencies --  2983.8384              3011.4073              3021.3574
 Red. masses --     1.7442                 1.9404                 1.4241
 Frc consts  --     0.0000                 0.0000                 0.0000
 IR Inten    --   116.4703                69.4195                35.7495
 Raman Activ --     0.0000                 0.0000                 0.0000
 Depolar     --     0.0000                 0.0000                 0.0000
 Atom AN      X      Y      Z        X      Y      Z        X      Y      Z
   1   6    -0.10  -0.14  -0.19    -0.08   0.24  -0.14    -0.09   0.06   0.16
   2   6    -0.00  -0.01  -0.01    -0.00   0.01  -0.01    -0.00   0.00   0.00
   3   1    -0.02  -0.05   0.02    -0.03  -0.30   0.61     0.00   0.34  -0.60
   4   1    -0.04   0.02  -0.03     0.31  -0.60  -0.08     0.31  -0.62  -0.04
   5   1     0.43   0.53   0.68    -0.01   0.04  -0.02     0.02   0.05   0.07
   6  16    -0.00  -0.00   0.00     0.00  -0.00   0.00    -0.00  -0.00  -0.00
   7   1    -0.01   0.02   0.00     0.00  -0.01   0.00    -0.00  -0.00   0.00
   8   1    -0.00  -0.01   0.02     0.00  -0.01   0.01    -0.00   0.00   0.00
