8
 energy: -10.364454790682 gnorm: 0.014042206113 xtb: 6.7.1 (edcfbbe)
C           -2.16840055483329        1.50698672942772        0.02023909460222
C           -0.72011145138349        1.73208764529682       -0.37980774734410
H           -2.22367782728806        0.98716347605143        0.97375928297245
H           -2.68928822967117        2.45681611952334        0.11482662853117
H           -2.67091431290841        0.90635837232884       -0.73509097735862
S            0.17244356453591        2.72649434620791        0.82859662009412
H           -0.18446335624118        0.78520250103369       -0.46546518874143
H           -0.65325283221031        2.25977881013024       -1.33271371275580
8
 energy: -10.364820633562 gnorm: 0.003531412240 xtb: 6.7.1 (edcfbbe)
C           -2.17235672021849        1.50101548039339        0.01217354882952
C           -0.71958360424240        1.73856675827728       -0.36924388171177
H           -2.21424561497073        0.98963140775935        0.97203528881504
H           -2.67997612116724        2.45853647829043        0.11252349209749
H           -2.67779992760140        0.89850972411892       -0.74361788178640
S            0.18634008281930        2.73831171158874        0.84225668331075
H           -0.19550327073553        0.78034378535129       -0.46726242547969
H           -0.66453982388350        2.25597265422058       -1.33452082407492
8
 energy: -10.364846714848 gnorm: 0.001232793708 xtb: 6.7.1 (edcfbbe)
C           -2.17327882735892        1.50162742169452        0.01370704440731
C           -0.71994804380204        1.73662617513837       -0.37245486754883
H           -2.21472867596271        0.99124360814616        0.97445326229891
H           -2.68061517308627        2.45960248229034        0.11434307245039
H           -2.67698372329222        0.89917204661629       -0.74194685862354
S            0.18060138313336        2.73769079858104        0.84519376105126
H           -0.19160162322096        0.77873712029568       -0.47060930250994
H           -0.66111031641023        2.25618834723758       -1.33834211152554
8
 energy: -10.364848698577 gnorm: 0.000512143643 xtb: 6.7.1 (edcfbbe)
C           -2.17426287243957        1.50128541217746        0.01363762015487
C           -0.72096543721544        1.73595144341490       -0.37319372325209
H           -2.21473971935390        0.99198333796370        0.97485540314584
H           -2.68086382503092        2.45954599646291        0.11388278608235
H           -2.67772302824789        0.89864978228203       -0.74098532151661
S            0.18089100546434        2.73731426769252        0.84569014095022
H           -0.19018472131081        0.77889364875355       -0.47107357115507
H           -0.65981640186580        2.25726411125293       -1.33846933440950
