 Entering Gaussian System
 *********************************************
 Gaussian 98:
 frequency output generated by the xtb code
 *********************************************
                         Standard orientation:
 --------------------------------------------------------------------
  Center     Atomic     Atomic              Coordinates (Angstroms)
  Number     Number      Type              X           Y           Z
 --------------------------------------------------------------------
    1          6             0       -3.098737   -2.927470    0.324148
    2          6             0       -4.573113   -3.402200    0.298078
    3          9             0       -2.228037   -3.857048   -0.158646
    4          9             0       -2.869913   -1.825185   -0.415988
    5          9             0       -2.643074   -2.637969    1.558415
    6          8             0       -5.415053   -2.508105    0.767218
    7          1             0       -4.542655   -4.370920    0.873616
    8          1             0       -4.734763   -3.683340   -0.781416
 --------------------------------------------------------------------
     1 basis functions        1 primitive gaussians
     1 alpha electrons        1 beta electrons
 
 Harmonic frequencies (cm**-1), IR intensities (km*mol⁻¹),
 Raman scattering activities (A**4/amu), Raman depolarization ratios,
 reduced masses (AMU), force constants (mDyne/A) and normal coordinates:
                      1                      2                      3
                        a                      a                      a 
 Frequencies --    84.7298               182.2803               290.4594
 Red. masses --    13.1897                17.3123                13.3360
 Frc consts  --     0.0000                 0.0000                 0.0000
 IR Inten    --    23.1943                21.0148                 0.3819
 Raman Activ --     0.0000                 0.0000                 0.0000
 Depolar     --     0.0000                 0.0000                 0.0000
 Atom AN      X      Y      Z        X      Y      Z        X      Y      Z
   1   6     0.01  -0.04   0.10    -0.04  -0.18  -0.07     0.02  -0.07   0.18
   2   6     0.04  -0.13   0.32    -0.01  -0.06  -0.03    -0.04   0.14  -0.33
   3   9    -0.02   0.07  -0.18     0.42   0.14   0.01     0.03  -0.09   0.21
   4   9    -0.29   0.04   0.20    -0.40  -0.14  -0.05    -0.50  -0.10   0.07
   5   9     0.31  -0.15   0.05    -0.39  -0.16   0.01     0.51   0.06   0.02
   6   8    -0.06   0.23  -0.56     0.48   0.38   0.10    -0.01   0.03  -0.08
   7   1     0.00   0.09   0.31    -0.08  -0.01   0.00    -0.15  -0.08  -0.31
   8   1     0.05  -0.28   0.15    -0.08  -0.01   0.00     0.10   0.29  -0.18
                      4                      5                      6
                        a                      a                      a 
 Frequencies --   383.4933               464.3397               475.1004
 Red. masses --    16.9128                17.6829                16.8903
 Frc consts  --     0.0000                 0.0000                 0.0000
 IR Inten    --     1.3695                15.2961                30.1051
 Raman Activ --     0.0000                 0.0000                 0.0000
 Depolar     --     0.0000                 0.0000                 0.0000
 Atom AN      X      Y      Z        X      Y      Z        X      Y      Z
   1   6    -0.00  -0.00  -0.00    -0.03   0.12  -0.28    -0.04  -0.25  -0.10
   2   6    -0.30   0.17   0.11    -0.00  -0.00   0.00    -0.33  -0.11  -0.01
   3   9     0.45   0.31   0.07     0.06  -0.22   0.55     0.33  -0.19  -0.11
   4   9     0.13  -0.20  -0.28    -0.12   0.49  -0.01     0.13   0.02   0.52
   5   9     0.16  -0.32   0.03     0.08  -0.34  -0.37     0.03   0.39  -0.37
   6   8    -0.52   0.06   0.08     0.00  -0.01   0.03    -0.14   0.08   0.05
   7   1    -0.08   0.05   0.03     0.09   0.05   0.08    -0.13  -0.02   0.01
   8   1    -0.08   0.05   0.03    -0.08  -0.10   0.04    -0.13  -0.02   0.01
                      7                      8                      9
                        a                      a                      a 
 Frequencies --   603.2648               736.3290               921.4774
 Red. masses --    16.1112                15.1343                 9.9695
 Frc consts  --     0.0000                 0.0000                 0.0000
 IR Inten    --    55.3557                37.8262               250.9447
 Raman Activ --     0.0000                 0.0000                 0.0000
 Depolar     --     0.0000                 0.0000                 0.0000
 Atom AN      X      Y      Z        X      Y      Z        X      Y      Z
   1   6    -0.34  -0.01   0.03    -0.14  -0.04  -0.00     0.05  -0.17   0.41
   2   6    -0.21  -0.35  -0.12     0.50   0.35   0.09     0.05  -0.17   0.41
   3   9    -0.27   0.52   0.25    -0.05   0.20   0.09    -0.00   0.01  -0.01
   4   9     0.25  -0.16   0.05    -0.04  -0.38   0.29     0.10   0.28  -0.19
   5   9     0.22  -0.06  -0.19    -0.13  -0.07  -0.46    -0.15  -0.08  -0.30
   6   8     0.29   0.02  -0.03    -0.13  -0.03   0.00    -0.01   0.04  -0.10
   7   1    -0.08  -0.09  -0.03     0.15   0.08   0.01    -0.30  -0.20  -0.20
   8   1    -0.08  -0.09  -0.03     0.15   0.07   0.02     0.27   0.31  -0.06
                     10                     11                     12
                        a                      a                      a 
 Frequencies --   978.0598              1073.2645              1133.5840
 Red. masses --    13.4150                10.1532                13.5995
 Frc consts  --     0.0000                 0.0000                 0.0000
 IR Inten    --   335.9361               113.7234               285.5300
 Raman Activ --     0.0000                 0.0000                 0.0000
 Depolar     --     0.0000                 0.0000                 0.0000
 Atom AN      X      Y      Z        X      Y      Z        X      Y      Z
   1   6     0.43  -0.68  -0.33    -0.07   0.26  -0.63    -0.58  -0.35  -0.08
   2   6     0.02   0.12   0.05     0.05  -0.17   0.40     0.45  -0.18  -0.13
   3   9    -0.27   0.29   0.15     0.00  -0.01   0.03     0.11  -0.07  -0.04
   4   9    -0.02   0.12  -0.03    -0.01  -0.16   0.13     0.08   0.22  -0.13
   5   9    -0.00   0.06   0.11     0.05   0.02   0.20     0.12   0.07   0.22
   6   8    -0.05  -0.03  -0.01    -0.01   0.05  -0.12    -0.24   0.23   0.12
   7   1    -0.05   0.01   0.01    -0.09  -0.21  -0.25     0.00  -0.00  -0.02
   8   1    -0.05   0.01   0.01     0.05   0.33  -0.04     0.01  -0.02   0.01
                     13                     14                     15
                        a                      a                      a 
 Frequencies --  1163.3299              1246.1832              1322.3322
 Red. masses --    13.3244                 2.2363                 3.1257
 Frc consts  --     0.0000                 0.0000                 0.0000
 IR Inten    --   387.1426                26.7510                45.0292
 Raman Activ --     0.0000                 0.0000                 0.0000
 Depolar     --     0.0000                 0.0000                 0.0000
 Atom AN      X      Y      Z        X      Y      Z        X      Y      Z
   1   6    -0.46  -0.22  -0.04     0.02  -0.08   0.20    -0.02   0.10   0.04
   2   6    -0.26   0.52   0.24     0.01  -0.04   0.11     0.29   0.14   0.03
   3   9     0.11  -0.05  -0.03    -0.00   0.00  -0.01     0.01  -0.02  -0.01
   4   9     0.04   0.10  -0.06    -0.01   0.02  -0.03     0.01   0.00  -0.00
   5   9     0.06   0.03   0.11     0.00   0.00  -0.03     0.01  -0.00   0.00
   6   8     0.34  -0.36  -0.19    -0.02   0.07  -0.17     0.06  -0.21  -0.09
   7   1     0.08   0.01   0.01     0.60  -0.19  -0.23    -0.64   0.04   0.04
   8   1     0.08   0.02  -0.01    -0.62   0.25   0.09    -0.63   0.00   0.12
                     16                     17                     18
                        a                      a                      a 
 Frequencies --  1466.8215              2429.3228              2558.6507
 Red. masses --     1.6650                 1.7917                 1.3071
 Frc consts  --     0.0000                 0.0000                 0.0000
 IR Inten    --    49.2944               490.8093               356.8083
 Raman Activ --     0.0000                 0.0000                 0.0000
 Depolar     --     0.0000                 0.0000                 0.0000
 Atom AN      X      Y      Z        X      Y      Z        X      Y      Z
   1   6     0.03   0.03   0.01    -0.00   0.01  -0.03    -0.01  -0.02  -0.01
   2   6     0.02   0.19   0.07    -0.03   0.10  -0.24    -0.06  -0.12  -0.04
   3   9     0.01  -0.00  -0.00     0.00  -0.00   0.00    -0.00   0.00   0.00
   4   9    -0.00  -0.00  -0.00     0.00   0.00   0.00    -0.00  -0.00   0.00
   5   9    -0.00  -0.00  -0.00    -0.00  -0.00   0.00    -0.00  -0.00  -0.00
   6   8    -0.05   0.09   0.04    -0.00   0.00  -0.01     0.05  -0.05  -0.03
   7   1    -0.05  -0.39  -0.56    -0.03  -0.60   0.33    -0.01   0.56  -0.42
   8   1     0.03  -0.68   0.12     0.15   0.20   0.63     0.12   0.10   0.68
