8
 energy: -23.863930601752 gnorm: 0.000226137293 xtb: 6.7.1 (edcfbbe)
C           -3.09873700395810       -2.92746997180567        0.32414802472983
C           -4.57311268362048       -3.40219927278917        0.29807824095702
F           -2.22803709502097       -3.85704760822086       -0.15864554019409
F           -2.86991265400842       -1.82518501565924       -0.41598833703692
F           -2.64307394791625       -2.63796874535015        1.55841469392615
O           -5.41505286335926       -2.50810428962467        0.76721811719195
H           -4.54265442514719       -4.37091910411495        0.87361561832817
H           -4.73476273255722       -3.68334005881471       -0.78141572694643
