8
 energy: -23.860873648011 gnorm: 0.039486108308 xtb: 6.7.1 (edcfbbe)
C           -3.09117100000000       -2.90227100000000        0.33386200000000
C           -4.56890400000000       -3.39849200000000        0.29911200000000
F           -2.27574400000000       -3.88098400000000       -0.16081400000000
F           -2.86861400000000       -1.80882000000000       -0.43577700000000
F           -2.63702700000000       -2.63615300000000        1.58296000000000
O           -5.42306100000000       -2.49170500000000        0.77733800000000
H           -4.52952300000000       -4.37241600000000        0.81349300000000
H           -4.71117600000000       -3.72155500000000       -0.74489800000000
8
 energy: -23.863712176223 gnorm: 0.013366774860 xtb: 6.7.1 (edcfbbe)
C           -3.09883555938439       -2.92268124063430        0.32620112097556
C           -4.57590564676824       -3.40535940914552        0.29709072246530
F           -2.24081758978804       -3.86760590449594       -0.15976779035322
F           -2.87001319420700       -1.82393021882898       -0.42343012058882
F           -2.64237588256401       -2.63919439503124        1.56412733623820
O           -5.42482662936899       -2.50724339587555        0.77071090568494
H           -4.53039827740182       -4.36661271474082        0.86815653928733
H           -4.72204722051750       -3.67976872124766       -0.77781271370929
8
 energy: -23.863908234654 gnorm: 0.003855416341 xtb: 6.7.1 (edcfbbe)
C           -3.09789920245638       -2.92567717169127        0.32482197762915
C           -4.57380836603154       -3.40510724661480        0.29691096869319
F           -2.22742705647023       -3.85880427005639       -0.15808029831982
F           -2.86601076295575       -1.82522169632037       -0.41720236511960
F           -2.63980202565562       -2.63624654248785        1.55822827073898
O           -5.42032785202063       -2.51281276017587        0.76743018520063
H           -4.54362469484014       -4.36911405565304        0.87393399293301
H           -4.73632003956970       -3.67941225700041       -0.78076673175554
8
 energy: -23.863924036960 gnorm: 0.002094797819 xtb: 6.7.1 (edcfbbe)
C           -3.09846353714852       -2.92684049960558        0.32439197010907
C           -4.57340173455150       -3.40389818279380        0.29737675760281
F           -2.22720185993294       -3.85806305703573       -0.15815082500367
F           -2.86820529987718       -1.82570757335651       -0.41647278860598
F           -2.64196936594893       -2.63685788747754        1.55786685293457
O           -5.41741992280133       -2.51062810267317        0.76759804917435
H           -4.54296062742581       -4.36990908828371        0.87403039988702
H           -4.73559765231379       -3.68049160877396       -0.78136441609815
8
 energy: -23.863930250973 gnorm: 0.000548461022 xtb: 6.7.1 (edcfbbe)
C           -3.09877993023099       -2.92749144971923        0.32414690301011
C           -4.57295450913938       -3.40247416093849        0.29792754656622
F           -2.22768078207328       -3.85722807969559       -0.15835785597525
F           -2.87001938805208       -1.82556147920376       -0.41605274818569
F           -2.64346394693092       -2.63761612754449        1.55813772346362
O           -5.41472374088254       -2.50821759349245        0.76759062185837
H           -4.54264742381633       -4.37099841383472        0.87337286684289
H           -4.73495027887448       -3.68280869557129       -0.78148905758027
8
 energy: -23.863930601720 gnorm: 0.000222689207 xtb: 6.7.1 (edcfbbe)
C           -3.09872280718988       -2.92748676243624        0.32413209872090
C           -4.57309591014554       -3.40222373771618        0.29805633984255
F           -2.22801634574540       -3.85705899723479       -0.15866004927739
F           -2.86990164523198       -1.82519931640486       -0.41600154046042
F           -2.64306557538537       -2.63798530434345        1.55840086374577
O           -5.41504240894513       -2.50813398175219        0.76719483761435
H           -4.54263458847213       -4.37094441405055        0.87359213281162
H           -4.73474071888457       -3.68336348606173       -0.78143868299738
