 Entering Gaussian System
 *********************************************
 Gaussian 98:
 frequency output generated by the xtb code
 *********************************************
                         Standard orientation:
 --------------------------------------------------------------------
  Center     Atomic     Atomic              Coordinates (Angstroms)
  Number     Number      Type              X           Y           Z
 --------------------------------------------------------------------
    1          6             0       -5.778977   -2.765373    2.583073
    2         17             0       -4.345897   -1.782856    2.520592
    3         17             0       -6.207476   -3.765012    1.226581
    4         17             0       -6.783584   -2.748212    4.002027
 --------------------------------------------------------------------
     1 basis functions        1 primitive gaussians
     1 alpha electrons        1 beta electrons
 
 Harmonic frequencies (cm**-1), IR intensities (km*mol⁻¹),
 Raman scattering activities (A**4/amu), Raman depolarization ratios,
 reduced masses (AMU), force constants (mDyne/A) and normal coordinates:
                      1                      2                      3
                        a                      a                      a 
 Frequencies --  -931.4984               211.1398               211.2046
 Red. masses --    14.3894                33.7912                33.7865
 Frc consts  --     0.0000                 0.0000                 0.0000
 IR Inten    --    29.0024                 4.1818                 3.9797
 Raman Activ --     0.0000                 0.0000                 0.0000
 Depolar     --     0.0000                 0.0000                 0.0000
 Atom AN      X      Y      Z        X      Y      Z        X      Y      Z
   1   6    -0.51   0.71  -0.37     0.22   0.11  -0.09    -0.02  -0.13  -0.23
   2  17     0.10  -0.14   0.07     0.35   0.34   0.16    -0.24   0.10   0.53
   3  17     0.10  -0.14   0.07    -0.46  -0.14   0.37    -0.22  -0.32  -0.33
   4  17     0.10  -0.14   0.07    -0.03  -0.27  -0.48     0.47   0.30  -0.07
                      4                      5                      6
                        a                      a                      a 
 Frequencies --   443.2242               812.9577               813.0995
 Red. masses --    35.4529                16.0558                16.0511
 Frc consts  --     0.0000                 0.0000                 0.0000
 IR Inten    --     0.0001                39.5395                39.4904
 Raman Activ --     0.0000                 0.0000                 0.0000
 Depolar     --     0.0000                 0.0000                 0.0000
 Atom AN      X      Y      Z        X      Y      Z        X      Y      Z
   1   6    -0.00  -0.00  -0.00    -0.02  -0.43  -0.80    -0.77  -0.42   0.24
   2  17    -0.48  -0.33   0.02     0.07   0.05   0.01     0.27   0.18  -0.02
   3  17     0.14   0.33   0.45     0.08   0.19   0.26     0.03   0.06   0.06
   4  17     0.33  -0.01  -0.47    -0.13   0.01   0.20     0.14   0.00  -0.19
