      -----------------------------------------------------------      
     |                   =====================                   |     
     |                           x T B                           |     
     |                   =====================                   |     
     |                         S. Grimme                         |     
     |          Mulliken Center for Theoretical Chemistry        |     
     |                    University of Bonn                     |     
      -----------------------------------------------------------      

   * xtb version 6.7.1 (edcfbbe) compiled by 'albert@albert-system' on 2024-07-22

   xtb is free software: you can redistribute it and/or modify it under
   the terms of the GNU Lesser General Public License as published by
   the Free Software Foundation, either version 3 of the License, or
   (at your option) any later version.
   
   xtb is distributed in the hope that it will be useful,
   but WITHOUT ANY WARRANTY; without even the implied warranty of
   MERCHANTABILITY or FITNESS FOR A PARTICULAR PURPOSE.  See the
   GNU Lesser General Public License for more details.
   
   Cite this work as:
   * C. Bannwarth, E. Caldeweyher, S. Ehlert, A. Hansen, P. Pracht,
     J. Seibert, S. Spicher, S. Grimme, WIREs Comput. Mol. Sci., 2020, 11,
     e01493. DOI: 10.1002/wcms.1493
   
   for GFN2-xTB:
   * C. Bannwarth, S. Ehlert and S. Grimme., J. Chem. Theory Comput., 2019,
     15, 1652-1671. DOI: 10.1021/acs.jctc.8b01176
   for GFN1-xTB:
   * S. Grimme, C. Bannwarth, P. Shushkov, J. Chem. Theory Comput., 2017,
     13, 1989-2009. DOI: 10.1021/acs.jctc.7b00118
   for GFN0-xTB:
   * P. Pracht, E. Caldeweyher, S. Ehlert, S. Grimme, ChemRxiv, 2019, preprint.
     DOI: 10.26434/chemrxiv.8326202.v1
   for GFN-FF:
   * S. Spicher and S. Grimme, Angew. Chem. Int. Ed., 2020, 59, 15665-15673.
     DOI: 10.1002/anie.202004239
   
   for ALPB and GBSA implicit solvation:
   * S. Ehlert, M. Stahn, S. Spicher, S. Grimme, J. Chem. Theory Comput.,
     2021, 17, 4250-4261. DOI: 10.1021/acs.jctc.1c00471
   
   for ddCOSMO and CPCM-X implicit solvation:
   * M. Stahn, S. Ehlert, S. Grimme, J. Phys. Chem. A,
     2023, XX, XXXX-XXXX. DOI: 10.1021/acs.jpca.3c04382
   
   for DFT-D4:
   * E. Caldeweyher, C. Bannwarth and S. Grimme, J. Chem. Phys., 2017,
     147, 034112. DOI: 10.1063/1.4993215
   * E. Caldeweyher, S. Ehlert, A. Hansen, H. Neugebauer, S. Spicher,
     C. Bannwarth and S. Grimme, J. Chem. Phys., 2019, 150, 154122.
     DOI: 10.1063/1.5090222
   * E. Caldeweyher, J.-M. Mewes, S. Ehlert and S. Grimme, Phys. Chem. Chem. Phys.
     2020, 22, 8499-8512. DOI: 10.1039/D0CP00502A
   
   for sTDA-xTB:
   * S. Grimme and C. Bannwarth, J. Chem. Phys., 2016, 145, 054103.
     DOI: 10.1063/1.4959605
   
   in the mass-spec context:
   * V. Asgeirsson, C. Bauer and S. Grimme, Chem. Sci., 2017, 8, 4879.
     DOI: 10.1039/c7sc00601b
   * J. Koopman and S. Grimme, ACS Omega 2019, 4, 12, 15120-15133.
     DOI: 10.1021/acsomega.9b02011
   
   for metadynamics refer to:
   * S. Grimme, J. Chem. Theory Comput., 2019, 155, 2847-2862
     DOI: 10.1021/acs.jctc.9b00143
   
   for SPH calculations refer to:
   * S. Spicher and S. Grimme, J. Chem. Theory Comput., 2021, 17, 1701-1714
     DOI: 10.1021/acs.jctc.0c01306
   
   for ONIOM refer to:
   * C. Plett, A. Katbashev, S. Ehlert, S. Grimme, M. Bursch,
     Phys. Chem. Chem. Phys., 2023, 25, 17860-17868. DOI: 10.1039/D3CP02178E
   
   for DIPRO refer to:
   * J. Kohn, N. Gildemeister, S. Grimme, D. Fazzi, A. Hansen,
     J. Chem. Phys., 2023, just accepted.
   
   for PTB refer to:
   * S. Grimme, M. Mueller, A. Hansen, J. Chem. Phys., 2023, 158, 124111.
     DOI: 10.1063/5.0137838
   
   with help from (in alphabetical order)
   P. Atkinson, C. Bannwarth, F. Bohle, G. Brandenburg, E. Caldeweyher
   M. Checinski, S. Dohm, S. Ehlert, S. Ehrlich, I. Gerasimov, C. Hölzer
   A. Katbashev, J. Kohn, J. Koopman, C. Lavigne, S. Lehtola, F. März, M. Müller,
   F. Musil, H. Neugebauer, J. Pisarek, C. Plett, P. Pracht, F. Pultar,
   J. Seibert, P. Shushkov, S. Spicher, M. Stahn, M. Steiner, T. Strunk,
   J. Stückrath, T. Rose, and J. Unsleber
   
 * started run on 2025/10/18 at 05:41:24.146     
   ID    Z sym.   atoms
    1    6 C      1
    2   17 Cl     2-4

           -------------------------------------------------
          |                Calculation Setup                |
           -------------------------------------------------

          program call               : xtb xyz.xyz --charge -1 --ohess
          hostname                   : m003
          coordinate file            : xyz.xyz
          omp threads                :                     2


           -------------------------------------------------
          |                 G F N 2 - x T B                 |
           -------------------------------------------------

        Reference                      10.1021/acs.jctc.8b01176
      * Hamiltonian:
        H0-scaling (s, p, d)           1.850000    2.230000    2.230000
        zeta-weighting                 0.500000
      * Dispersion:
        s8                             2.700000
        a1                             0.520000
        a2                             5.000000
        s9                             5.000000
      * Repulsion:
        kExp                           1.500000    1.000000
        rExp                           1.000000
      * Coulomb:
        alpha                          2.000000
        third order                    shell-resolved
        anisotropic                    true
        a3                             3.000000
        a5                             4.000000
        cn-shift                       1.200000
        cn-exp                         4.000000
        max-rad                        5.000000

q/qsh data taken from xtbrestart
CAMM data taken from xtbrestart

          ...................................................
          :                      SETUP                      :
          :.................................................:
          :  # basis functions                  34          :
          :  # atomic orbitals                  31          :
          :  # shells                           11          :
          :  # electrons                        26          :
          :  max. iterations                   250          :
          :  Hamiltonian                  GFN2-xTB          :
          :  restarted?                       true          :
          :  GBSA solvation                  false          :
          :  PC potential                    false          :
          :  electronic temp.          300.0000000     K    :
          :  accuracy                    1.0000000          :
          :  -> integral cutoff          0.2500000E+02      :
          :  -> integral neglect         0.1000000E-07      :
          :  -> SCF convergence          0.1000000E-05 Eh   :
          :  -> wf. convergence          0.1000000E-03 e    :
          :  Broyden damping             0.4000000          :
          :  net charge                         -1          :
          :  unpaired electrons                  0          :
          ...................................................

 iter      E             dE          RMSdq      gap      omega  full diag
   1    -15.9516453 -0.159516E+02  0.237E-01    1.73       0.0  T
   2    -15.9517359 -0.905645E-04  0.185E-01    1.77       1.0  T
   3    -15.9517421 -0.624985E-05  0.129E-01    1.76       1.0  T
   4    -15.9517483 -0.613297E-05  0.399E-02    1.75       1.3  T
   5    -15.9517488 -0.521547E-06  0.834E-04    1.75      59.9  T
   6    -15.9517488 -0.514961E-09  0.248E-04    1.75     201.8  T

   *** convergence criteria satisfied after 6 iterations ***

         #    Occupation            Energy/Eh            Energy/eV
      -------------------------------------------------------------
         1        2.0000           -0.8894846             -24.2041
       ...           ...                  ...                  ...
         7        2.0000           -0.2888451              -7.8599
         8        2.0000           -0.2541115              -6.9147
         9        2.0000           -0.2541114              -6.9147
        10        2.0000           -0.2513774              -6.8403
        11        2.0000           -0.2513774              -6.8403
        12        2.0000           -0.2448382              -6.6624
        13        2.0000           -0.0825184              -2.2454 (HOMO)
        14                         -0.0182258              -0.4959 (LUMO)
        15                          0.0943183               2.5665
        16                          0.0943184               2.5665
        17                          0.2000528               5.4437
        18                          0.2000649               5.4440
       ...                                ...                  ...
        31                          0.4517363              12.2924
      -------------------------------------------------------------
                  HL-Gap            0.0642926 Eh            1.7495 eV
             Fermi-level           -0.0503721 Eh           -1.3707 eV

 SCC (total)                   0 d,  0 h,  0 min,  0.013 sec
 SCC setup                      ...        0 min,  0.000 sec (  0.997%)
 Dispersion                     ...        0 min,  0.000 sec (  0.190%)
 classical contributions        ...        0 min,  0.000 sec (  0.135%)
 integral evaluation            ...        0 min,  0.009 sec ( 74.897%)
 iterations                     ...        0 min,  0.002 sec ( 14.190%)
 molecular gradient             ...        0 min,  0.001 sec (  8.660%)
 printout                       ...        0 min,  0.000 sec (  0.719%)

         :::::::::::::::::::::::::::::::::::::::::::::::::::::
         ::                     SUMMARY                     ::
         :::::::::::::::::::::::::::::::::::::::::::::::::::::
         :: total energy             -15.932851202808 Eh    ::
         :: gradient norm              0.021011577707 Eh/a0 ::
         :: HOMO-LUMO gap              1.749489853304 eV    ::
         ::.................................................::
         :: SCC energy               -15.951748430180 Eh    ::
         :: -> isotropic ES            0.115188932092 Eh    ::
         :: -> anisotropic ES         -0.012755761034 Eh    ::
         :: -> anisotropic XC         -0.003838233047 Eh    ::
         :: -> dispersion             -0.003848026774 Eh    ::
         :: repulsion energy           0.018897227372 Eh    ::
         :: add. restraining           0.000000000000 Eh    ::
         :: total charge              -1.000000000000 e     ::
         :::::::::::::::::::::::::::::::::::::::::::::::::::::

      ----------------------------------------------------------- 
     |                   =====================                   |
     |                        A N C O P T                        |
     |                   =====================                   |
     |               Approximate Normal Coordinate               |
     |                Rational Function Optimizer                |
      ----------------------------------------------------------- 
      ----------------------------------------------------------- 
     |                   =====================                   |
     |                        A N C O P T                        |
     |                   =====================                   |
     |               Approximate Normal Coordinate               |
     |                Rational Function Optimizer                |
      ----------------------------------------------------------- 

          ...................................................
          :                      SETUP                      :
          :.................................................:
          :   optimization level            normal          :
          :   max. optcycles                   200          :
          :   ANC micro-cycles                  20          :
          :   degrees of freedom                 6          :
          :.................................................:
          :   RF solver                   davidson          :
          :   write xtbopt.log                true          :
          :   linear?                        false          :
          :   energy convergence         0.5000000E-05 Eh   :
          :   grad. convergence          0.1000000E-02 Eh/α :
          :   maxmium RF displ.          1.0000000          :
          :   Hlow (freq-cutoff)         0.1000000E-01      :
          :   Hmax (freq-cutoff)         5.0000000          :
          :   S6 in model hess.         20.0000000          :
          ...................................................

generating ANC from exact Hessian ...
Using Lindh-Hessian (1995)
 Shifting diagonal of input Hessian by   9.350350188690586E-003
 Lowest  eigenvalues of input Hessian
    0.000000    0.000000    0.000000    0.000000    0.010000    0.000000
    0.000000    0.108935    0.108935    0.539570    1.416621    1.416623
 Highest eigenvalues
    0.000000    0.108935    0.108935    0.539570    1.416621    1.416623
 

........................................................................
.............................. CYCLE    1 ..............................
........................................................................

 iter      E             dE          RMSdq      gap      omega  full diag
   1    -15.9517488 -0.159517E+02  0.380E-06    1.75       0.0  T
   2    -15.9517488 -0.888178E-14  0.197E-06    1.75   25420.3  T
   3    -15.9517488 -0.177636E-14  0.102E-06    1.75   48882.8  T
     SCC iter.                  ...        0 min,  0.001 sec
     gradient                   ...        0 min,  0.001 sec
 * total energy  :   -15.9328512 Eh     change       -0.9432455E-12 Eh
   gradient norm :     0.0210116 Eh/α   predicted     0.0000000E+00 (-100.00%)
   displ. norm   :     0.0388826 α      lambda       -0.8169874E-03
   maximum displ.:     0.0388826 α      in ANC's #4, #2, #5, ...

........................................................................
.............................. CYCLE    2 ..............................
........................................................................

 iter      E             dE          RMSdq      gap      omega  full diag
   1    -15.9506535 -0.159507E+02  0.124E-01    1.67       0.0  T
   2    -15.9506795 -0.259165E-04  0.968E-02    1.65       1.0  T
   3    -15.9506813 -0.183764E-05  0.676E-02    1.65       1.0  T
   4    -15.9506830 -0.169862E-05  0.209E-02    1.66       2.4  T
   5    -15.9506831 -0.148191E-06  0.275E-04    1.66     181.5  T
   6    -15.9506831 -0.294982E-10  0.135E-04    1.66     370.8  T
     SCC iter.                  ...        0 min,  0.001 sec
     gradient                   ...        0 min,  0.001 sec
 * total energy  :   -15.9334482 Eh     change       -0.5969647E-03 Eh
   gradient norm :     0.0098089 Eh/α   predicted    -0.4091112E-03 ( -31.47%)
   displ. norm   :     0.0340057 α      lambda       -0.3335582E-03
   maximum displ.:     0.0340057 α      in ANC's #4, #5, #2, ...

........................................................................
.............................. CYCLE    3 ..............................
........................................................................

 iter      E             dE          RMSdq      gap      omega  full diag
   1    -15.9495001 -0.159495E+02  0.105E-01    1.58       0.0  T
   2    -15.9495184 -0.182597E-04  0.825E-02    1.57       1.0  T
   3    -15.9495197 -0.139528E-05  0.574E-02    1.57       1.0  T
   4    -15.9495210 -0.124264E-05  0.180E-02    1.57       2.8  T
   5    -15.9495211 -0.112647E-06  0.229E-04    1.58     218.3  T
   6    -15.9495211 -0.194049E-10  0.112E-04    1.58     447.8  T
     SCC iter.                  ...        0 min,  0.001 sec
     gradient                   ...        0 min,  0.001 sec
 * total energy  :   -15.9336230 Eh     change       -0.1748795E-03 Eh
   gradient norm :     0.0005592 Eh/α   predicted    -0.1669731E-03 (  -4.52%)
   displ. norm   :     0.0030837 α      lambda       -0.1149177E-05
   maximum displ.:     0.0030837 α      in ANC's #4, #5, #3, ...

........................................................................
.............................. CYCLE    4 ..............................
........................................................................

 iter      E             dE          RMSdq      gap      omega  full diag
   1    -15.9494053 -0.159494E+02  0.938E-03    1.57       0.0  T
   2    -15.9494054 -0.142196E-06  0.737E-03    1.57       6.8  T
   3    -15.9494054 -0.110737E-07  0.512E-03    1.57       9.8  T
   4    -15.9494054 -0.990273E-08  0.161E-03    1.57      31.1  T
   5    -15.9494054 -0.903952E-09  0.160E-05    1.57    3118.2  T
   6    -15.9494054 -0.888178E-14  0.716E-06    1.57    6978.6  T
     SCC iter.                  ...        0 min,  0.001 sec
     gradient                   ...        0 min,  0.001 sec
 * total energy  :   -15.9336235 Eh     change       -0.4674238E-06 Eh
   gradient norm :     0.0002553 Eh/α   predicted    -0.5748059E-06 (  22.97%)
   displ. norm   :     0.0009667 α      lambda       -0.1646578E-06
   maximum displ.:     0.0009667 α      in ANC's #4, #5, #2, ...

   *** GEOMETRY OPTIMIZATION CONVERGED AFTER 4 ITERATIONS ***

------------------------------------------------------------------------
 total energy gain   :        -0.0007723 Eh       -0.4846 kcal/mol
 total RMSD          :         0.0379860 a0        0.0201 Å
 total power (kW/mol):        -0.5069260 (step) -131.3707 (real)
------------------------------------------------------------------------

 ANCopt (total)                0 d,  0 h,  0 min,  0.015 sec
 optimizer setup                ...        0 min,  0.000 sec (  0.543%)
 model hessian                  ...        0 min,  0.000 sec (  0.420%)
 ANC generation                 ...        0 min,  0.000 sec (  0.349%)
 coordinate transformation      ...        0 min,  0.000 sec (  0.177%)
 single point calculation       ...        0 min,  0.012 sec ( 74.934%)
 optimization log               ...        0 min,  0.003 sec ( 21.199%)
 hessian update                 ...        0 min,  0.000 sec (  0.167%)
 rational function              ...        0 min,  0.000 sec (  0.985%)

================
 final structure:
================
4
 xtb: 6.7.1 (edcfbbe)
C           -5.77897069002008       -2.76540762844890        2.58304812034455
Cl          -4.34589647815409       -1.78288326444241        2.52057306968082
Cl          -6.20746038628662       -3.76504609096953        1.22655303626694
Cl          -6.78358344553922       -2.74825401613916        4.00199777370769
 
 Bond Distances (Angstroems)
 ---------------------------
C1-Cl2=1.7387        C1-Cl3=1.7387        C1-Cl4=1.7387        Cl2-C1=1.7387        Cl3-C1=1.7387        Cl4-C1=1.7387        
 Cl C  Rav=1.7387 sigma=0.0000  Rmin=1.7387  Rmax=1.7387     3
 
 selected bond angles (degree)
 --------------------
Cl3-C1-Cl2=120.00              Cl4-C1-Cl2=120.00              Cl4-C1-Cl3=120.00              
 
 selected dihedral angles (degree)
 ---------------------------------

           -------------------------------------------------
          |                Final Singlepoint                |
           -------------------------------------------------

          ...................................................
          :                      SETUP                      :
          :.................................................:
          :  # basis functions                  34          :
          :  # atomic orbitals                  31          :
          :  # shells                           11          :
          :  # electrons                        26          :
          :  max. iterations                   250          :
          :  Hamiltonian                  GFN2-xTB          :
          :  restarted?                      false          :
          :  GBSA solvation                  false          :
          :  PC potential                    false          :
          :  electronic temp.          300.0000000     K    :
          :  accuracy                    1.0000000          :
          :  -> integral cutoff          0.2500000E+02      :
          :  -> integral neglect         0.1000000E-07      :
          :  -> SCF convergence          0.1000000E-05 Eh   :
          :  -> wf. convergence          0.1000000E-03 e    :
          :  Broyden damping             0.4000000          :
          :  net charge                         -1          :
          :  unpaired electrons                  0          :
          ...................................................

 iter      E             dE          RMSdq      gap      omega  full diag
   1    -15.9494054 -0.159494E+02  0.180E-07    1.57       0.0  T
   2    -15.9494054  0.142109E-13  0.123E-07    1.57  100000.0  T
   3    -15.9494054 -0.710543E-14  0.666E-08    1.57  100000.0  T

   *** convergence criteria satisfied after 3 iterations ***

         #    Occupation            Energy/Eh            Energy/eV
      -------------------------------------------------------------
         1        2.0000           -0.8886269             -24.1808
       ...           ...                  ...                  ...
         7        2.0000           -0.2861805              -7.7874
         8        2.0000           -0.2541726              -6.9164
         9        2.0000           -0.2541726              -6.9164
        10        2.0000           -0.2517247              -6.8498
        11        2.0000           -0.2517247              -6.8498
        12        2.0000           -0.2456666              -6.6849
        13        2.0000           -0.0856491              -2.3306 (HOMO)
        14                         -0.0280363              -0.7629 (LUMO)
        15                          0.0891679               2.4264
        16                          0.0891679               2.4264
        17                          0.2004500               5.4545
        18                          0.2004664               5.4550
       ...                                ...                  ...
        31                          0.4218265              11.4785
      -------------------------------------------------------------
                  HL-Gap            0.0576127 Eh            1.5677 eV
             Fermi-level           -0.0568427 Eh           -1.5468 eV

 SCC (total)                   0 d,  0 h,  0 min,  0.002 sec
 SCC setup                      ...        0 min,  0.000 sec (  2.706%)
 Dispersion                     ...        0 min,  0.000 sec (  0.634%)
 classical contributions        ...        0 min,  0.000 sec (  0.302%)
 integral evaluation            ...        0 min,  0.001 sec ( 26.710%)
 iterations                     ...        0 min,  0.001 sec ( 26.378%)
 molecular gradient             ...        0 min,  0.001 sec ( 39.708%)
 printout                       ...        0 min,  0.000 sec (  2.575%)

         :::::::::::::::::::::::::::::::::::::::::::::::::::::
         ::                     SUMMARY                     ::
         :::::::::::::::::::::::::::::::::::::::::::::::::::::
         :: total energy             -15.933623514438 Eh    ::
         :: gradient norm              0.000255697396 Eh/a0 ::
         :: HOMO-LUMO gap              1.567722063012 eV    ::
         ::.................................................::
         :: SCC energy               -15.949405064236 Eh    ::
         :: -> isotropic ES            0.114506646956 Eh    ::
         :: -> anisotropic ES         -0.011964184294 Eh    ::
         :: -> anisotropic XC         -0.002379174153 Eh    ::
         :: -> dispersion             -0.003836447779 Eh    ::
         :: repulsion energy           0.015781549798 Eh    ::
         :: add. restraining           0.000000000000 Eh    ::
         :: total charge              -1.000000000000 e     ::
         :::::::::::::::::::::::::::::::::::::::::::::::::::::

           ------------------------------------------------- 
          |                Numerical Hessian                |
           ------------------------------------------------- 
step length          :   0.00500
SCC accuracy         :   0.30000
Hessian scale factor :   1.00000
frozen atoms in %    :   0.00000    0
RMS gradient         :   0.00026
estimated CPU  time      0.00 min
estimated wall time      0.00 min

writing file <hessian>.

 projected vibrational frequencies (cm⁻¹)
eigval :       -0.00    -0.00    -0.00    -0.00     0.00     0.00
eigval :     -931.50   211.14   211.20   443.22   812.96   813.10
           -------------------------------------------------
          |                Property Printout                |
           -------------------------------------------------

    * Orbital Energies and Occupations

         #    Occupation            Energy/Eh            Energy/eV
      -------------------------------------------------------------
         1        2.0000           -0.8886269             -24.1808
         2        2.0000           -0.8871010             -24.1392
         3        2.0000           -0.8871010             -24.1392
         4        2.0000           -0.3760894             -10.2339
         5        2.0000           -0.3178130              -8.6481
         6        2.0000           -0.3178130              -8.6481
         7        2.0000           -0.2861805              -7.7874
         8        2.0000           -0.2541726              -6.9164
         9        2.0000           -0.2541726              -6.9164
        10        2.0000           -0.2517247              -6.8498
        11        2.0000           -0.2517247              -6.8498
        12        2.0000           -0.2456666              -6.6849
        13        2.0000           -0.0856491              -2.3306 (HOMO)
        14                         -0.0280363              -0.7629 (LUMO)
        15                          0.0891679               2.4264
        16                          0.0891679               2.4264
        17                          0.2004500               5.4545
        18                          0.2004664               5.4550
        19                          0.2004664               5.4550
        20                          0.2005464               5.4571
        21                          0.2005683               5.4577
        22                          0.2005683               5.4577
        23                          0.2014208               5.4809
        24                          0.2014208               5.4809
       ...                                ...                  ...
        31                          0.4218265              11.4785
      -------------------------------------------------------------
                  HL-Gap            0.0576127 Eh            1.5677 eV
             Fermi-level           -0.0568427 Eh           -1.5468 eV

     #   Z          covCN         q      C6AA      α(0)
     1   6 C        2.671     0.015    27.666     8.607
     2  17 Cl       1.023    -0.338   110.069    16.051
     3  17 Cl       1.023    -0.338   110.069    16.051
     4  17 Cl       1.023    -0.338   110.069    16.051

 Mol. C6AA /au·bohr⁶  :       1349.068607
 Mol. C8AA /au·bohr⁸  :      53623.056963
 Mol. α(0) /au        :         56.759091


Wiberg/Mayer (AO) data.
largest (>0.10) Wiberg bond orders for each atom

 ---------------------------------------------------------------------------
     #   Z sym  total        # sym  WBO       # sym  WBO       # sym  WBO
 ---------------------------------------------------------------------------
     1   6 C    2.779 --     2 Cl   0.926     4 Cl   0.926     3 Cl   0.926
     2  17 Cl   0.999 --     1 C    0.926
     3  17 Cl   0.999 --     1 C    0.926
     4  17 Cl   0.999 --     1 C    0.926
 ---------------------------------------------------------------------------

Topologies differ in total number of bonds
Writing topology from bond orders to xtbtopo.mol

molecular dipole:
                 x           y           z       tot (Debye)
 q only:       10.921       5.226      -4.881
   full:       10.921       5.226      -4.881      33.179
molecular quadrupole (traceless):
                xx          xy          yy          xz          yz          zz
 q only:      -94.099     -88.899      46.152      81.652      35.873      47.947
  q+dip:      -94.291     -90.461      47.061      82.454      34.741      47.230
   full:      -94.179     -89.550      46.531      81.986      35.401      47.648

           -------------------------------------------------
          |                Geometry Summary                 |
           -------------------------------------------------

      molecular mass/u    :      118.3695486
   center of mass at/Å    :       -5.7789851      -2.7653613       2.5830672
  moments of inertia/u·Å² :        0.1607592E+03   0.1607592E+03   0.3215184E+03
rotational constants/cm⁻¹ :        0.1048626E+00   0.1048626E+00   0.5243131E-01

 * 3 selected distances

     #   Z          #   Z                                           value/Å
     1   6 C        2  17 Cl                                      1.7386660 (min)
     1   6 C        3  17 Cl                                      1.7386661 (max)
     1   6 C        4  17 Cl                                      1.7386661

 * 1 distinct bonds (by element types)

   Z      Z             #   av. dist./Å        max./Å        min./Å
   6 C   17 Cl          3     1.7386661     1.7386661     1.7386660

           -------------------------------------------------
          |               Frequency Printout                |
           -------------------------------------------------
 projected vibrational frequencies (cm⁻¹)
eigval :       -0.00    -0.00    -0.00    -0.00     0.00     0.00
eigval :     -931.50   211.14   211.20   443.22   812.96   813.10
 reduced masses (amu)
   1: 33.99   2: 34.24   3: 34.90   4: 34.71   5: 34.24   6: 33.49   7: 14.39   8: 33.79
   9: 33.79  10: 35.45  11: 16.06  12: 16.05
 IR intensities (km·mol⁻¹)
   1:  5.21   2:  4.03   3:  1.99   4:  2.58   5:  4.27   6:  6.82   7: 29.00   8:  4.18
   9:  3.98  10:  0.00  11: 39.54  12: 39.49
 Raman intensities (Ä⁴*amu⁻¹)
   1:  0.00   2:  0.00   3:  0.00   4:  0.00   5:  0.00   6:  0.00   7:  0.00   8:  0.00
   9:  0.00  10:  0.00  11:  0.00  12:  0.00
 output can be read by thermo (or use thermo option).
 writing <g98.out> molden fake output.
 recommended (thermochemical) frequency scaling factor: 1.0
           -------------------------------------------------
          |             Thermodynamic Functions             |
           -------------------------------------------------

Molecule has the following symmetry elements: (C3) 3*(C2) (S3) 4*(sigma) 
It seems to be the D3h point group
d3h symmetry found (for desy threshold:  0.10E+00) used in thermo

          ...................................................
          :                      SETUP                      :
          :.................................................:
          :  # frequencies                           5      :
          :  # imaginary freq.                       1      :
          :  linear?                             false      :
          :  only rotor calc.                    false      :
          :  symmetry                              d3h      :
          :  rotational number                       6      :
          :  scaling factor                  1.0000000      :
          :  rotor cutoff                   50.0000000 cm⁻¹ :
          :  imag. cutoff                  -20.0000000 cm⁻¹ :
          :.................................................:

    mode    ω/cm⁻¹     T·S(HO)/kcal·mol⁻¹    T·S(FR)/kcal·mol⁻¹   T·S(vib)
   ------------------------------------------------------------------------
       1    211.14    -0.60638 ( 99.69%)    -0.62970 (  0.31%)    -0.60645
       2    211.20    -0.60621 ( 99.69%)    -0.62961 (  0.31%)    -0.60628
   ------------------------------------------------------------------------

   temp. (K)  partition function   enthalpy   heat capacity  entropy
                                   cal/mol     cal/K/mol   cal/K/mol   J/K/mol
 298.15  VIB   2.89                  945.018      6.277      5.278
         ROT  0.367E+05              888.752      2.981     23.868
         INT  0.106E+06             1833.770      9.258     29.146
         TR   0.125E+28             1481.254      4.968     40.202
         TOT                        3315.0243    14.2264    69.3487   290.1551

       T/K    H(0)-H(T)+PV         H(T)/Eh          T*S/Eh         G(T)/Eh
   ------------------------------------------------------------------------
    298.15    0.528283E-02    0.109592E-01    0.329498E-01   -0.219907E-01
   ------------------------------------------------------------------------

         :::::::::::::::::::::::::::::::::::::::::::::::::::::
         ::                  THERMODYNAMIC                  ::
         :::::::::::::::::::::::::::::::::::::::::::::::::::::
         :: total free energy         -15.955614169428 Eh   ::
         ::.................................................::
         :: total energy              -15.933623514438 Eh   ::
         :: zero point energy           0.005676341037 Eh   ::
         :: G(RRHO) w/o ZPVE           -0.027666996028 Eh   ::
         :: G(RRHO) contrib.           -0.021990654990 Eh   ::
         :::::::::::::::::::::::::::::::::::::::::::::::::::::
imag cut-off (cm-1) :    5.00
 found            1  significant imaginary frequency
 writing imag mode distorted coords to xtbhess.xyz
 for further optimization.

optimized geometry written to: xtbopt.xyz


           -------------------------------------------------
          | TOTAL ENERGY              -15.933623514438 Eh   |
          | TOTAL ENTHALPY            -15.922664345918 Eh   |
          | TOTAL FREE ENERGY         -15.955614169428 Eh   |
          | GRADIENT NORM               0.000255697480 Eh/α |
          | HOMO-LUMO GAP               1.567722061377 eV   |
           -------------------------------------------------

------------------------------------------------------------------------
 * finished run on 2025/10/18 at 05:41:24.360     
------------------------------------------------------------------------
 total:
 * wall-time:     0 d,  0 h,  0 min,  0.213 sec
 *  cpu-time:     0 d,  0 h,  0 min,  0.290 sec
 * ratio c/w:     1.362 speedup
 SCF:
 * wall-time:     0 d,  0 h,  0 min,  0.013 sec
 *  cpu-time:     0 d,  0 h,  0 min,  0.018 sec
 * ratio c/w:     1.450 speedup
 ANC optimizer:
 * wall-time:     0 d,  0 h,  0 min,  0.044 sec
 *  cpu-time:     0 d,  0 h,  0 min,  0.060 sec
 * ratio c/w:     1.353 speedup
 analytical hessian:
 * wall-time:     0 d,  0 h,  0 min,  0.060 sec
 *  cpu-time:     0 d,  0 h,  0 min,  0.111 sec
 * ratio c/w:     1.844 speedup

