4
 energy: -15.932851202809 gnorm: 0.021011648510 xtb: 6.7.1 (edcfbbe)
C           -5.77897100000000       -2.76540700000000        2.58304800000000
Cl          -4.36502800000000       -1.79600000000000        2.52140700000000
Cl          -6.20174000000000       -3.75170100000000        1.24466200000000
Cl          -6.77017200000000       -2.74848300000000        3.98305500000000
4
 energy: -15.933448167480 gnorm: 0.009808953022 xtb: 6.7.1 (edcfbbe)
C           -5.77897081683178       -2.76540729372253        2.58304808216252
Cl          -4.35523646139854       -1.78928684336604        2.52098018120851
Cl          -6.20466771290158       -3.75853103820003        1.23539381877370
Cl          -6.77703600886810       -2.74836582471140        3.99274991785526
4
 energy: -15.933623047014 gnorm: 0.000559358412 xtb: 6.7.1 (edcfbbe)
C           -5.77897067888632       -2.76540757620239        2.58304813483872
Cl          -4.34667303183342       -1.78341568121563        2.52060690957851
Cl          -6.20722820567252       -3.76450441650037        1.22728808730083
Cl          -6.78303908360774       -2.74826332608161        4.00122886828193
4
 energy: -15.933623514438 gnorm: 0.000255693427 xtb: 6.7.1 (edcfbbe)
C           -5.77897069002008       -2.76540762844890        2.58304812034455
Cl          -4.34589647815409       -1.78288326444241        2.52057306968082
Cl          -6.20746038628662       -3.76504609096953        1.22655303626694
Cl          -6.78358344553922       -2.74825401613916        4.00199777370769
