 Entering Gaussian System
 *********************************************
 Gaussian 98:
 frequency output generated by the xtb code
 *********************************************
                         Standard orientation:
 --------------------------------------------------------------------
  Center     Atomic     Atomic              Coordinates (Angstroms)
  Number     Number      Type              X           Y           Z
 --------------------------------------------------------------------
    1          6             0       -7.125486   -4.385009    1.603937
    2          1             0       -7.873902   -3.586182    1.548264
    3          8             0       -7.621608   -5.576417    1.041875
    4          1             0       -6.216154   -4.058524    1.086346
    5          1             0       -6.911507   -4.646322    2.639154
    6          8             0       -7.952954   -5.383016   -0.341828
 --------------------------------------------------------------------
     1 basis functions        1 primitive gaussians
     1 alpha electrons        1 beta electrons
 
 Harmonic frequencies (cm**-1), IR intensities (km*mol⁻¹),
 Raman scattering activities (A**4/amu), Raman depolarization ratios,
 reduced masses (AMU), force constants (mDyne/A) and normal coordinates:
                      1                      2                      3
                        a                      a                      a 
 Frequencies --   186.1472               398.7977               942.3443
 Red. masses --     4.3509                11.7159                11.3335
 Frc consts  --     0.0000                 0.0000                 0.0000
 IR Inten    --     0.0804                26.5986                45.7946
 Raman Activ --     0.0000                 0.0000                 0.0000
 Depolar     --     0.0000                 0.0000                 0.0000
 Atom AN      X      Y      Z        X      Y      Z        X      Y      Z
   1   6    -0.04   0.01   0.01     0.14   0.09   0.41     0.21   0.35   0.40
   2   1     0.11   0.08  -0.47     0.09   0.08   0.27    -0.02  -0.01  -0.10
   3   8     0.34  -0.10  -0.10     0.05   0.41  -0.22    -0.09  -0.44   0.13
   4   1     0.26  -0.18   0.37     0.10   0.08   0.26    -0.04  -0.01  -0.09
   5   1    -0.51   0.15   0.14    -0.04  -0.23   0.07     0.15   0.40   0.15
   6   8    -0.27   0.08   0.07    -0.21  -0.47  -0.29    -0.12   0.04  -0.47
                      4                      5                      6
                        a                      a                      a 
 Frequencies --  1057.9966              1123.9528              1176.5252
 Red. masses --    14.5762                 3.7057                 7.9930
 Frc consts  --     0.0000                 0.0000                 0.0000
 IR Inten    --    17.2520                 5.2505                 6.4518
 Raman Activ --     0.0000                 0.0000                 0.0000
 Depolar     --     0.0000                 0.0000                 0.0000
 Atom AN      X      Y      Z        X      Y      Z        X      Y      Z
   1   6     0.15   0.43   0.09     0.39  -0.11  -0.11    -0.01  -0.32   0.30
   2   1     0.03   0.08   0.06    -0.37  -0.46  -0.15    -0.06  -0.14  -0.27
   3   8    -0.26  -0.34  -0.57    -0.21   0.06   0.06    -0.02   0.32  -0.40
   4   1     0.04   0.07   0.05     0.03   0.55   0.25    -0.16  -0.11  -0.24
   5   1    -0.04  -0.12  -0.03    -0.19   0.05   0.05     0.18   0.48   0.16
   6   8     0.12  -0.04   0.48     0.01  -0.00  -0.00     0.03  -0.10   0.23
                      7                      8                      9
                        a                      a                      a 
 Frequencies --  1355.6980              1427.8627              1489.2254
 Red. masses --     2.4227                 1.5884                 1.6060
 Frc consts  --     0.0000                 0.0000                 0.0000
 IR Inten    --     8.4367                 0.1415                 1.7932
 Raman Activ --     0.0000                 0.0000                 0.0000
 Depolar     --     0.0000                 0.0000                 0.0000
 Atom AN      X      Y      Z        X      Y      Z        X      Y      Z
   1   6    -0.12  -0.21  -0.21     0.21  -0.06  -0.06    -0.00  -0.15   0.15
   2   1     0.26   0.28   0.37     0.04   0.07   0.45     0.41   0.36  -0.39
   3   8    -0.05  -0.10  -0.07     0.03  -0.01  -0.01    -0.00  -0.05   0.04
   4   1     0.13   0.31   0.41    -0.22  -0.02  -0.40    -0.30   0.57  -0.19
   5   1     0.18   0.53   0.08    -0.67   0.19   0.19    -0.07  -0.21  -0.03
   6   8     0.01   0.00   0.04    -0.00   0.00   0.00    -0.00   0.01  -0.02
                     10                     11                     12
                        a                      a                      a 
 Frequencies --  2868.3543              2904.1422              2979.4105
 Red. masses --     1.9216                 1.4093                 1.6835
 Frc consts  --     0.0000                 0.0000                 0.0000
 IR Inten    --   121.0804                79.8298                58.1962
 Raman Activ --     0.0000                 0.0000                 0.0000
 Depolar     --     0.0000                 0.0000                 0.0000
 Atom AN      X      Y      Z        X      Y      Z        X      Y      Z
   1   6     0.27  -0.08  -0.08     0.01   0.16  -0.10    -0.05   0.07  -0.23
   2   1    -0.45   0.50  -0.06     0.50  -0.48   0.02    -0.01   0.02  -0.04
   3   8     0.01  -0.00  -0.00     0.01   0.03   0.00    -0.00  -0.00  -0.01
   4   1    -0.55  -0.22   0.34    -0.59  -0.17   0.32    -0.00   0.02  -0.04
   5   1     0.05  -0.01  -0.01     0.00   0.02  -0.01     0.19  -0.24   0.92
   6   8    -0.00   0.00   0.00     0.00  -0.00   0.00    -0.00  -0.00   0.00
