      -----------------------------------------------------------      
     |                   =====================                   |     
     |                           x T B                           |     
     |                   =====================                   |     
     |                         S. Grimme                         |     
     |          Mulliken Center for Theoretical Chemistry        |     
     |                    University of Bonn                     |     
      -----------------------------------------------------------      

   * xtb version 6.7.1 (edcfbbe) compiled by 'albert@albert-system' on 2024-07-22

   xtb is free software: you can redistribute it and/or modify it under
   the terms of the GNU Lesser General Public License as published by
   the Free Software Foundation, either version 3 of the License, or
   (at your option) any later version.
   
   xtb is distributed in the hope that it will be useful,
   but WITHOUT ANY WARRANTY; without even the implied warranty of
   MERCHANTABILITY or FITNESS FOR A PARTICULAR PURPOSE.  See the
   GNU Lesser General Public License for more details.
   
   Cite this work as:
   * C. Bannwarth, E. Caldeweyher, S. Ehlert, A. Hansen, P. Pracht,
     J. Seibert, S. Spicher, S. Grimme, WIREs Comput. Mol. Sci., 2020, 11,
     e01493. DOI: 10.1002/wcms.1493
   
   for GFN2-xTB:
   * C. Bannwarth, S. Ehlert and S. Grimme., J. Chem. Theory Comput., 2019,
     15, 1652-1671. DOI: 10.1021/acs.jctc.8b01176
   for GFN1-xTB:
   * S. Grimme, C. Bannwarth, P. Shushkov, J. Chem. Theory Comput., 2017,
     13, 1989-2009. DOI: 10.1021/acs.jctc.7b00118
   for GFN0-xTB:
   * P. Pracht, E. Caldeweyher, S. Ehlert, S. Grimme, ChemRxiv, 2019, preprint.
     DOI: 10.26434/chemrxiv.8326202.v1
   for GFN-FF:
   * S. Spicher and S. Grimme, Angew. Chem. Int. Ed., 2020, 59, 15665-15673.
     DOI: 10.1002/anie.202004239
   
   for ALPB and GBSA implicit solvation:
   * S. Ehlert, M. Stahn, S. Spicher, S. Grimme, J. Chem. Theory Comput.,
     2021, 17, 4250-4261. DOI: 10.1021/acs.jctc.1c00471
   
   for ddCOSMO and CPCM-X implicit solvation:
   * M. Stahn, S. Ehlert, S. Grimme, J. Phys. Chem. A,
     2023, XX, XXXX-XXXX. DOI: 10.1021/acs.jpca.3c04382
   
   for DFT-D4:
   * E. Caldeweyher, C. Bannwarth and S. Grimme, J. Chem. Phys., 2017,
     147, 034112. DOI: 10.1063/1.4993215
   * E. Caldeweyher, S. Ehlert, A. Hansen, H. Neugebauer, S. Spicher,
     C. Bannwarth and S. Grimme, J. Chem. Phys., 2019, 150, 154122.
     DOI: 10.1063/1.5090222
   * E. Caldeweyher, J.-M. Mewes, S. Ehlert and S. Grimme, Phys. Chem. Chem. Phys.
     2020, 22, 8499-8512. DOI: 10.1039/D0CP00502A
   
   for sTDA-xTB:
   * S. Grimme and C. Bannwarth, J. Chem. Phys., 2016, 145, 054103.
     DOI: 10.1063/1.4959605
   
   in the mass-spec context:
   * V. Asgeirsson, C. Bauer and S. Grimme, Chem. Sci., 2017, 8, 4879.
     DOI: 10.1039/c7sc00601b
   * J. Koopman and S. Grimme, ACS Omega 2019, 4, 12, 15120-15133.
     DOI: 10.1021/acsomega.9b02011
   
   for metadynamics refer to:
   * S. Grimme, J. Chem. Theory Comput., 2019, 155, 2847-2862
     DOI: 10.1021/acs.jctc.9b00143
   
   for SPH calculations refer to:
   * S. Spicher and S. Grimme, J. Chem. Theory Comput., 2021, 17, 1701-1714
     DOI: 10.1021/acs.jctc.0c01306
   
   for ONIOM refer to:
   * C. Plett, A. Katbashev, S. Ehlert, S. Grimme, M. Bursch,
     Phys. Chem. Chem. Phys., 2023, 25, 17860-17868. DOI: 10.1039/D3CP02178E
   
   for DIPRO refer to:
   * J. Kohn, N. Gildemeister, S. Grimme, D. Fazzi, A. Hansen,
     J. Chem. Phys., 2023, just accepted.
   
   for PTB refer to:
   * S. Grimme, M. Mueller, A. Hansen, J. Chem. Phys., 2023, 158, 124111.
     DOI: 10.1063/5.0137838
   
   with help from (in alphabetical order)
   P. Atkinson, C. Bannwarth, F. Bohle, G. Brandenburg, E. Caldeweyher
   M. Checinski, S. Dohm, S. Ehlert, S. Ehrlich, I. Gerasimov, C. Hölzer
   A. Katbashev, J. Kohn, J. Koopman, C. Lavigne, S. Lehtola, F. März, M. Müller,
   F. Musil, H. Neugebauer, J. Pisarek, C. Plett, P. Pracht, F. Pultar,
   J. Seibert, P. Shushkov, S. Spicher, M. Stahn, M. Steiner, T. Strunk,
   J. Stückrath, T. Rose, and J. Unsleber
   
 * started run on 2025/10/18 at 02:37:51.903     
   ID    Z sym.   atoms
    1    6 C      1
    2    1 H      2, 4, 5
    3    8 O      3, 6

           -------------------------------------------------
          |                Calculation Setup                |
           -------------------------------------------------

          program call               : xtb xyz.xyz --alpb water --charge -1 --ohess
          hostname                   : m003
          coordinate file            : xyz.xyz
          omp threads                :                     2


           -------------------------------------------------
          |                 G F N 2 - x T B                 |
           -------------------------------------------------

        Reference                      10.1021/acs.jctc.8b01176
      * Hamiltonian:
        H0-scaling (s, p, d)           1.850000    2.230000    2.230000
        zeta-weighting                 0.500000
      * Dispersion:
        s8                             2.700000
        a1                             0.520000
        a2                             5.000000
        s9                             5.000000
      * Repulsion:
        kExp                           1.500000    1.000000
        rExp                           1.000000
      * Coulomb:
        alpha                          2.000000
        third order                    shell-resolved
        anisotropic                    true
        a3                             3.000000
        a5                             4.000000
        cn-shift                       1.200000
        cn-exp                         4.000000
        max-rad                        5.000000

      * Solvation model:               ALPB
        Solvent                        water
        Parameter file                 internal GFN2-xTB/ALPB
        Dielectric constant                8.0200E+01
        Reference state                gsolv [1 M gas/solution]
        Free energy shift                  1.0808E-03 Eh       6.7819E-01 kcal/mol
        Temperature                        2.9815E+02 K
        Density                            1.0000E+00 kg/L
        Solvent mass                       1.8000E+01 g/mol
        Interaction kernel             P16
        Born radius scaling (c1)           1.4744E+00
        Born radii integrator          GBOBC
        Born offset                        0.0000E+00 a0       0.0000E+00 AA
        H-bond correction              true
        Ion screening                  false
        Surface tension                    1.0000E-05 Eh       1.5569E+01 dyn/cm
        Grid points                               230 per atom

          ...................................................
          :                      SETUP                      :
          :.................................................:
          :  # basis functions                  15          :
          :  # atomic orbitals                  15          :
          :  # shells                            9          :
          :  # electrons                        20          :
          :  max. iterations                   250          :
          :  Hamiltonian                  GFN2-xTB          :
          :  restarted?                      false          :
          :  GBSA solvation                   true          :
          :  PC potential                    false          :
          :  electronic temp.          300.0000000     K    :
          :  accuracy                    1.0000000          :
          :  -> integral cutoff          0.2500000E+02      :
          :  -> integral neglect         0.1000000E-07      :
          :  -> SCF convergence          0.1000000E-05 Eh   :
          :  -> wf. convergence          0.1000000E-03 e    :
          :  Broyden damping             0.4000000          :
          :  net charge                         -1          :
          :  unpaired electrons                  0          :
          ...................................................

 iter      E             dE          RMSdq      gap      omega  full diag
   1    -11.9965728 -0.119966E+02  0.648E+00    7.71       0.0  T
   2    -12.0606795 -0.641067E-01  0.329E+00    7.69       1.0  T
   3    -12.0621066 -0.142706E-02  0.154E+00    7.57       1.0  T
   4    -12.0622650 -0.158466E-03  0.257E-01    7.54       1.0  T
   5    -12.0623215 -0.564134E-04  0.908E-02    7.58       1.0  T
   6    -12.0623347 -0.132535E-04  0.297E-02    7.58       1.4  T
   7    -12.0623369 -0.216288E-05  0.143E-02    7.59       2.8  T
   8    -12.0623372 -0.338872E-06  0.223E-03    7.59      18.3  T
   9    -12.0623372 -0.130115E-09  0.124E-03    7.59      33.0  T
  10    -12.0623372 -0.554682E-08  0.201E-04    7.59     203.5  T
  11    -12.0623372 -0.102190E-09  0.340E-05    7.59    1202.0  T

   *** convergence criteria satisfied after 11 iterations ***

         #    Occupation            Energy/Eh            Energy/eV
      -------------------------------------------------------------
         1        2.0000           -0.6697483             -18.2248
       ...           ...                  ...                  ...
         4        2.0000           -0.5197068             -14.1419
         5        2.0000           -0.5181424             -14.0994
         6        2.0000           -0.5107561             -13.8984
         7        2.0000           -0.4443597             -12.0916
         8        2.0000           -0.4269711             -11.6185
         9        2.0000           -0.3338721              -9.0851
        10        2.0000           -0.3147506              -8.5648 (HOMO)
        11                         -0.0359574              -0.9785 (LUMO)
        12                          0.1071190               2.9149
        13                          0.1437689               3.9121
        14                          0.2052000               5.5838
        15                          0.2106565               5.7323
      -------------------------------------------------------------
                  HL-Gap            0.2787931 Eh            7.5863 eV
             Fermi-level           -0.1753540 Eh           -4.7716 eV

 SCC (total)                   0 d,  0 h,  0 min,  0.026 sec
 SCC setup                      ...        0 min,  0.000 sec (  0.944%)
 Dispersion                     ...        0 min,  0.000 sec (  0.189%)
 classical contributions        ...        0 min,  0.000 sec (  0.128%)
 integral evaluation            ...        0 min,  0.000 sec (  1.273%)
 iterations                     ...        0 min,  0.025 sec ( 95.094%)
 molecular gradient             ...        0 min,  0.000 sec (  1.923%)
 printout                       ...        0 min,  0.000 sec (  0.321%)

         :::::::::::::::::::::::::::::::::::::::::::::::::::::
         ::                     SUMMARY                     ::
         :::::::::::::::::::::::::::::::::::::::::::::::::::::
         :: total energy             -12.005382313128 Eh    ::
         :: total w/o Gsasa/hb       -12.007396702684 Eh    ::
         :: gradient norm              0.038774051747 Eh/a0 ::
         :: HOMO-LUMO gap              7.586347567702 eV    ::
         ::.................................................::
         :: SCC energy               -12.062337174814 Eh    ::
         :: -> isotropic ES            0.268069232359 Eh    ::
         :: -> anisotropic ES         -0.018340051348 Eh    ::
         :: -> anisotropic XC         -0.007958404453 Eh    ::
         :: -> dispersion             -0.001919105359 Eh    ::
         :: -> Gsolv                  -0.138238278775 Eh    ::
         ::    -> Gelec               -0.140252668330 Eh    ::
         ::    -> Gsasa                0.003990216221 Eh    ::
         ::    -> Ghb                 -0.003056586364 Eh    ::
         ::    -> Gshift               0.001080759698 Eh    ::
         :: repulsion energy           0.056954861686 Eh    ::
         :: add. restraining           0.000000000000 Eh    ::
         :: total charge              -1.000000000000 e     ::
         :::::::::::::::::::::::::::::::::::::::::::::::::::::

      ----------------------------------------------------------- 
     |                   =====================                   |
     |                        A N C O P T                        |
     |                   =====================                   |
     |               Approximate Normal Coordinate               |
     |                Rational Function Optimizer                |
      ----------------------------------------------------------- 
      ----------------------------------------------------------- 
     |                   =====================                   |
     |                        A N C O P T                        |
     |                   =====================                   |
     |               Approximate Normal Coordinate               |
     |                Rational Function Optimizer                |
      ----------------------------------------------------------- 

          ...................................................
          :                      SETUP                      :
          :.................................................:
          :   optimization level            normal          :
          :   max. optcycles                   200          :
          :   ANC micro-cycles                  20          :
          :   degrees of freedom                12          :
          :.................................................:
          :   RF solver                   davidson          :
          :   write xtbopt.log                true          :
          :   linear?                        false          :
          :   energy convergence         0.5000000E-05 Eh   :
          :   grad. convergence          0.1000000E-02 Eh/α :
          :   maxmium RF displ.          1.0000000          :
          :   Hlow (freq-cutoff)         0.1000000E-01      :
          :   Hmax (freq-cutoff)         5.0000000          :
          :   S6 in model hess.         20.0000000          :
          ...................................................

generating ANC from exact Hessian ...
Using Lindh-Hessian (1995)
 Shifting diagonal of input Hessian by   0.000000000000000E+000
 Lowest  eigenvalues of input Hessian
    0.000000    0.000000    0.000000    0.000000    0.000000    0.000000
    0.020423    0.054455    0.102885    0.107674    0.133659    0.134578
    0.193983    0.455825    1.082771    1.109865    1.178396    1.402921
 Highest eigenvalues
    0.193983    0.455825    1.082771    1.109865    1.178396    1.402921
 

........................................................................
.............................. CYCLE    1 ..............................
........................................................................

 iter      E             dE          RMSdq      gap      omega  full diag
   1    -12.0623372 -0.120623E+02  0.516E-06    7.59       0.0  T
   2    -12.0623372 -0.159872E-13  0.296E-06    7.59   13772.9  T
   3    -12.0623372  0.106581E-13  0.665E-07    7.59   61404.5  T
     SCC iter.                  ...        0 min,  0.000 sec
     gradient                   ...        0 min,  0.000 sec
 * total energy  :   -12.0053823 Eh     change       -0.4090950E-11 Eh
   gradient norm :     0.0387740 Eh/α   predicted     0.0000000E+00 (-100.00%)
   displ. norm   :     0.1415794 α      lambda       -0.3155790E-02
   maximum displ.:     0.1067204 α      in ANC's #2, #7, #3, ...

........................................................................
.............................. CYCLE    2 ..............................
........................................................................

 iter      E             dE          RMSdq      gap      omega  full diag
   1    -12.0641784 -0.120642E+02  0.294E-01    7.01       0.0  T
   2    -12.0641973 -0.189046E-04  0.171E-01    7.02       1.0  T
   3    -12.0642007 -0.336319E-05  0.348E-02    7.02       1.2  T
   4    -12.0642014 -0.790447E-06  0.902E-03    7.02       4.5  T
   5    -12.0642016 -0.110364E-06  0.520E-03    7.02       7.8  T
   6    -12.0642016 -0.696668E-07  0.184E-03    7.02      22.2  T
   7    -12.0642016 -0.626776E-08  0.177E-04    7.02     230.7  T
   8    -12.0642016 -0.188898E-10  0.744E-05    7.02     548.7  T
     SCC iter.                  ...        0 min,  0.001 sec
     gradient                   ...        0 min,  0.000 sec
 * total energy  :   -12.0073667 Eh     change       -0.1984381E-02 Eh
   gradient norm :     0.0108475 Eh/α   predicted    -0.1609523E-02 ( -18.89%)
   displ. norm   :     0.0981623 α      lambda       -0.5470818E-03
   maximum displ.:     0.0920956 α      in ANC's #2, #3, #5, ...

........................................................................
.............................. CYCLE    3 ..............................
........................................................................

 iter      E             dE          RMSdq      gap      omega  full diag
   1    -12.0647236 -0.120647E+02  0.160E-01    6.79       0.0  T
   2    -12.0647266 -0.307566E-05  0.958E-02    6.79       1.0  T
   3    -12.0647274 -0.777340E-06  0.133E-02    6.79       3.1  T
   4    -12.0647275 -0.140031E-06  0.465E-03    6.79       8.8  T
   5    -12.0647276 -0.271684E-07  0.264E-03    6.79      15.5  T
   6    -12.0647276 -0.176294E-07  0.945E-04    6.79      43.2  T
   7    -12.0647276 -0.173267E-08  0.829E-05    6.79     492.3  T
     SCC iter.                  ...        0 min,  0.001 sec
     gradient                   ...        0 min,  0.000 sec
 * total energy  :   -12.0076525 Eh     change       -0.2857946E-03 Eh
   gradient norm :     0.0029186 Eh/α   predicted    -0.2761761E-03 (  -3.37%)
   displ. norm   :     0.0119051 α      lambda       -0.1561233E-04
   maximum displ.:     0.0105682 α      in ANC's #2, #7, #5, ...

........................................................................
.............................. CYCLE    4 ..............................
........................................................................

 iter      E             dE          RMSdq      gap      omega  full diag
   1    -12.0649418 -0.120649E+02  0.253E-02    6.81       0.0  T
   2    -12.0649419 -0.644680E-07  0.149E-02    6.81       2.7  T
   3    -12.0649419 -0.657926E-08  0.156E-03    6.81      26.2  T
   4    -12.0649419 -0.135174E-08  0.456E-04    6.81      89.6  T
   5    -12.0649419 -0.774758E-10  0.214E-04    6.81     191.2  T
     SCC iter.                  ...        0 min,  0.001 sec
     gradient                   ...        0 min,  0.000 sec
 * total energy  :   -12.0076633 Eh     change       -0.1080996E-04 Eh
   gradient norm :     0.0016680 Eh/α   predicted    -0.7808579E-05 ( -27.76%)
   displ. norm   :     0.0114765 α      lambda       -0.5496017E-05
   maximum displ.:     0.0103428 α      in ANC's #2, #11, #5, ...

........................................................................
.............................. CYCLE    5 ..............................
........................................................................

 iter      E             dE          RMSdq      gap      omega  full diag
   1    -12.0650739 -0.120651E+02  0.253E-02    6.86       0.0  T
   2    -12.0650740 -0.111231E-06  0.149E-02    6.86       2.7  T
   3    -12.0650740 -0.826974E-08  0.222E-03    6.86      18.4  T
   4    -12.0650740 -0.203135E-08  0.521E-04    6.86      78.4  T
   5    -12.0650740 -0.109415E-09  0.235E-04    6.86     173.6  T
     SCC iter.                  ...        0 min,  0.000 sec
     gradient                   ...        0 min,  0.000 sec
 * total energy  :   -12.0076660 Eh     change       -0.2667787E-05 Eh
   gradient norm :     0.0005461 Eh/α   predicted    -0.2746639E-05 (   2.96%)
   displ. norm   :     0.0031373 α      lambda       -0.6556472E-06
   maximum displ.:     0.0025110 α      in ANC's #2, #7, #5, ...

   *** GEOMETRY OPTIMIZATION CONVERGED AFTER 5 ITERATIONS ***

------------------------------------------------------------------------
 total energy gain   :        -0.0022837 Eh       -1.4330 kcal/mol
 total RMSD          :         0.1012251 a0        0.0536 Å
 total power (kW/mol):        -1.1991463 (step) -655.2692 (real)
------------------------------------------------------------------------

 ANCopt (total)                0 d,  0 h,  0 min,  0.009 sec
 optimizer setup                ...        0 min,  0.001 sec (  5.707%)
 model hessian                  ...        0 min,  0.001 sec ( 10.430%)
 ANC generation                 ...        0 min,  0.000 sec (  0.905%)
 coordinate transformation      ...        0 min,  0.000 sec (  0.359%)
 single point calculation       ...        0 min,  0.007 sec ( 75.149%)
 optimization log               ...        0 min,  0.000 sec (  2.073%)
 hessian update                 ...        0 min,  0.000 sec (  0.450%)
 rational function              ...        0 min,  0.000 sec (  2.149%)

================
 final structure:
================
6
 xtb: 6.7.1 (edcfbbe)
C           -7.12546753709908       -4.38504865432376        1.60390457667082
H           -7.87388827171092       -3.58622553501622        1.54823054549779
O           -7.62158177026192       -5.57645811429004        1.04183898752849
H           -6.21613633811943       -4.05855781061924        1.08631685208126
H           -6.91149119100596       -4.64636240806364        2.63912199958233
O           -7.95292389180269       -5.38305647768709       -0.34186496136070
 
 Bond Distances (Angstroems)
 ---------------------------
C1-H2=1.0961         C1-O3=1.4077         C1-H4=1.0961         C1-H5=1.0889         H2-C1=1.0961         O3-C1=1.4077         
O3-O6=1.4359         H4-C1=1.0961         H5-C1=1.0889         O6-O3=1.4359         
 C  H  Rav=1.0937 sigma=0.0034  Rmin=1.0889  Rmax=1.0961     3
 O  C  Rav=1.4077 sigma=0.0000  Rmin=1.4077  Rmax=1.4077     1
 O  O  Rav=1.4359 sigma=0.0000  Rmin=1.4359  Rmax=1.4359     1
 
 selected bond angles (degree)
 --------------------
O3-C1-H2=110.85                H4-C1-H2=108.99                H4-C1-O3=110.85                H5-C1-H2=110.94                
H5-C1-O3=104.23                H5-C1-H4=110.94                O6-O3-C1=110.62                
 
 selected dihedral angles (degree)
 ---------------------------------
O6-O3-C1-H2= 60.55            O6-O3-C1-H4=299.38            O6-O3-C1-H5=179.96            
           -------------------------------------------------
          |                Final Singlepoint                |
           -------------------------------------------------

          ...................................................
          :                      SETUP                      :
          :.................................................:
          :  # basis functions                  15          :
          :  # atomic orbitals                  15          :
          :  # shells                            9          :
          :  # electrons                        20          :
          :  max. iterations                   250          :
          :  Hamiltonian                  GFN2-xTB          :
          :  restarted?                      false          :
          :  GBSA solvation                   true          :
          :  PC potential                    false          :
          :  electronic temp.          300.0000000     K    :
          :  accuracy                    1.0000000          :
          :  -> integral cutoff          0.2500000E+02      :
          :  -> integral neglect         0.1000000E-07      :
          :  -> SCF convergence          0.1000000E-05 Eh   :
          :  -> wf. convergence          0.1000000E-03 e    :
          :  Broyden damping             0.4000000          :
          :  net charge                         -1          :
          :  unpaired electrons                  0          :
          ...................................................

 iter      E             dE          RMSdq      gap      omega  full diag
   1    -12.0650740 -0.120651E+02  0.278E-05    6.86       0.0  T
   2    -12.0650740 -0.753175E-12  0.208E-05    6.86    1959.7  T
   3    -12.0650740 -0.106404E-11  0.544E-06    6.86    7500.0  T

   *** convergence criteria satisfied after 3 iterations ***

         #    Occupation            Energy/Eh            Energy/eV
      -------------------------------------------------------------
         1        2.0000           -0.6701688             -18.2362
       ...           ...                  ...                  ...
         4        2.0000           -0.5192762             -14.1302
         5        2.0000           -0.5159593             -14.0400
         6        2.0000           -0.5138614             -13.9829
         7        2.0000           -0.4429923             -12.0544
         8        2.0000           -0.4244051             -11.5487
         9        2.0000           -0.3376458              -9.1878
        10        2.0000           -0.3189891              -8.6801 (HOMO)
        11                         -0.0670545              -1.8246 (LUMO)
        12                          0.1174387               3.1957
        13                          0.1382781               3.7627
        14                          0.2038197               5.5462
        15                          0.2280480               6.2055
      -------------------------------------------------------------
                  HL-Gap            0.2519347 Eh            6.8555 eV
             Fermi-level           -0.1930218 Eh           -5.2524 eV

 SCC (total)                   0 d,  0 h,  0 min,  0.001 sec
 SCC setup                      ...        0 min,  0.000 sec (  9.277%)
 Dispersion                     ...        0 min,  0.000 sec (  1.802%)
 classical contributions        ...        0 min,  0.000 sec (  0.696%)
 integral evaluation            ...        0 min,  0.000 sec ( 17.346%)
 iterations                     ...        0 min,  0.000 sec ( 28.609%)
 molecular gradient             ...        0 min,  0.000 sec ( 35.306%)
 printout                       ...        0 min,  0.000 sec (  4.813%)

         :::::::::::::::::::::::::::::::::::::::::::::::::::::
         ::                     SUMMARY                     ::
         :::::::::::::::::::::::::::::::::::::::::::::::::::::
         :: total energy             -12.007665966601 Eh    ::
         :: total w/o Gsasa/hb       -12.009531645925 Eh    ::
         :: gradient norm              0.000546126396 Eh/a0 ::
         :: HOMO-LUMO gap              6.855491003379 eV    ::
         ::.................................................::
         :: SCC energy               -12.065073930719 Eh    ::
         :: -> isotropic ES            0.269496670505 Eh    ::
         :: -> anisotropic ES         -0.018182649894 Eh    ::
         :: -> anisotropic XC         -0.006617789643 Eh    ::
         :: -> dispersion             -0.001902908864 Eh    ::
         :: -> Gsolv                  -0.139790529939 Eh    ::
         ::    -> Gelec               -0.141656209263 Eh    ::
         ::    -> Gsasa                0.004000357218 Eh    ::
         ::    -> Ghb                 -0.003215437591 Eh    ::
         ::    -> Gshift               0.001080759698 Eh    ::
         :: repulsion energy           0.057407964118 Eh    ::
         :: add. restraining           0.000000000000 Eh    ::
         :: total charge              -1.000000000000 e     ::
         :::::::::::::::::::::::::::::::::::::::::::::::::::::

           ------------------------------------------------- 
          |                Numerical Hessian                |
           ------------------------------------------------- 
step length          :   0.00500
SCC accuracy         :   0.30000
Hessian scale factor :   1.00000
frozen atoms in %    :   0.00000    0
RMS gradient         :   0.00055
estimated CPU  time      0.00 min
estimated wall time      0.00 min

writing file <hessian>.

 projected vibrational frequencies (cm⁻¹)
eigval :       -0.00    -0.00    -0.00    -0.00    -0.00    -0.00
eigval :      186.15   398.80   942.34  1058.00  1123.95  1176.53
eigval :     1355.70  1427.86  1489.23  2868.35  2904.14  2979.41
           -------------------------------------------------
          |                Property Printout                |
           -------------------------------------------------

    * Orbital Energies and Occupations

         #    Occupation            Energy/Eh            Energy/eV
      -------------------------------------------------------------
         1        2.0000           -0.6701688             -18.2362
         2        2.0000           -0.6064108             -16.5013
         3        2.0000           -0.5847139             -15.9109
         4        2.0000           -0.5192762             -14.1302
         5        2.0000           -0.5159592             -14.0400
         6        2.0000           -0.5138614             -13.9829
         7        2.0000           -0.4429923             -12.0544
         8        2.0000           -0.4244051             -11.5486
         9        2.0000           -0.3376458              -9.1878
        10        2.0000           -0.3189891              -8.6801 (HOMO)
        11                         -0.0670544              -1.8246 (LUMO)
        12                          0.1174387               3.1957
        13                          0.1382781               3.7627
        14                          0.2038198               5.5462
        15                          0.2280480               6.2055
      -------------------------------------------------------------
                  HL-Gap            0.2519346 Eh            6.8555 eV
             Fermi-level           -0.1930217 Eh           -5.2524 eV

     #   Z          covCN         q      C6AA      α(0)
     1   6 C        3.624     0.076    19.732     6.401
     2   1 H        0.924     0.023     2.691     2.566
     3   8 O        1.771    -0.377    20.367     6.094
     4   1 H        0.924     0.023     2.692     2.566
     5   1 H        0.925     0.051     2.311     2.377
     6   8 O        0.922    -0.796    31.401     7.515

 Mol. C6AA /au·bohr⁶  :        372.436018
 Mol. C8AA /au·bohr⁸  :       7360.213297
 Mol. α(0) /au        :         27.518966


Wiberg/Mayer (AO) data.
largest (>0.10) Wiberg bond orders for each atom

 ---------------------------------------------------------------------------
     #   Z sym  total        # sym  WBO       # sym  WBO       # sym  WBO
 ---------------------------------------------------------------------------
     1   6 C    3.956 --     3 O    1.004     2 H    0.980     4 H    0.980
                             5 H    0.975
     2   1 H    0.999 --     1 C    0.980
     3   8 O    1.982 --     1 C    1.004     6 O    0.945
     4   1 H    0.999 --     1 C    0.980
     5   1 H    0.997 --     1 C    0.975
     6   8 O    0.993 --     3 O    0.945
 ---------------------------------------------------------------------------

Topologies differ in total number of bonds
Writing topology from bond orders to xtbtopo.mol

molecular dipole:
                 x           y           z       tot (Debye)
 q only:       15.090      10.658       0.369
   full:       15.136      10.747       0.444      47.197
molecular quadrupole (traceless):
                xx          xy          yy          xz          yz          zz
 q only:     -171.127    -240.227       0.743      -7.483      -3.530     170.384
  q+dip:     -170.625    -243.374      -0.416      -9.860      -4.969     171.041
   full:     -171.247    -243.114      -0.489      -9.389      -4.808     171.736

           -------------------------------------------------
          |                Geometry Summary                 |
           -------------------------------------------------

      molecular mass/u    :       47.0333680
   center of mass at/Å    :       -7.5676992      -5.1112694       0.7607462
  moments of inertia/u·Å² :        0.1014405E+02   0.4680024E+02   0.5373440E+02
rotational constants/cm⁻¹ :        0.1661825E+01   0.3602039E+00   0.3137214E+00

 * 4 selected distances

     #   Z          #   Z                                           value/Å
     1   6 C        2   1 H                                       1.0960619
     1   6 C        3   8 O                                       1.4076590 (max)
     1   6 C        4   1 H                                       1.0960733
     1   6 C        5   1 H                                       1.0889197 (min)

 * 2 distinct bonds (by element types)

   Z      Z             #   av. dist./Å        max./Å        min./Å
   1 H    6 C           3     1.0936850     1.0960733     1.0889197
   6 C    8 O           1     1.4076590     1.4076590     1.4076590

           -------------------------------------------------
          |               Frequency Printout                |
           -------------------------------------------------
 projected vibrational frequencies (cm⁻¹)
eigval :       -0.00    -0.00    -0.00    -0.00    -0.00    -0.00
eigval :      186.15   398.80   942.34  1058.00  1123.95  1176.53
eigval :     1355.70  1427.86  1489.23  2868.35  2904.14  2979.41
 reduced masses (amu)
   1: 14.87   2: 14.09   3: 10.83   4: 10.94   5: 12.15   6: 13.91   7:  4.35   8: 11.72
   9: 11.33  10: 14.58  11:  3.71  12:  7.99  13:  2.42  14:  1.59  15:  1.61  16:  1.92
  17:  1.41  18:  1.68
 IR intensities (km·mol⁻¹)
   1: 51.34   2: 18.57   3:  5.09   4: 10.49   5: 12.64   6: 23.55   7:  0.08   8: 26.60
   9: 45.79  10: 17.25  11:  5.25  12:  6.45  13:  8.44  14:  0.14  15:  1.79  16:121.08
  17: 79.83  18: 58.20
 Raman intensities (Ä⁴*amu⁻¹)
   1:  0.00   2:  0.00   3:  0.00   4:  0.00   5:  0.00   6:  0.00   7:  0.00   8:  0.00
   9:  0.00  10:  0.00  11:  0.00  12:  0.00  13:  0.00  14:  0.00  15:  0.00  16:  0.00
  17:  0.00  18:  0.00
 output can be read by thermo (or use thermo option).
 writing <g98.out> molden fake output.
 recommended (thermochemical) frequency scaling factor: 1.0
           -------------------------------------------------
          |             Thermodynamic Functions             |
           -------------------------------------------------

Refinement of some symmetry elements was terminated before convergence was reached.
Some symmetry elements may remain unidentified.
Molecule has the following symmetry elements: (sigma) 
It seems to be the Cs point group
cs  symmetry found (for desy threshold:  0.10E+00) used in thermo

          ...................................................
          :                      SETUP                      :
          :.................................................:
          :  # frequencies                          12      :
          :  # imaginary freq.                       0      :
          :  linear?                             false      :
          :  only rotor calc.                    false      :
          :  symmetry                               cs      :
          :  rotational number                       1      :
          :  scaling factor                  1.0000000      :
          :  rotor cutoff                   50.0000000 cm⁻¹ :
          :  imag. cutoff                  -20.0000000 cm⁻¹ :
          :.................................................:

    mode    ω/cm⁻¹     T·S(HO)/kcal·mol⁻¹    T·S(FR)/kcal·mol⁻¹   T·S(vib)
   ------------------------------------------------------------------------
       1    186.15    -0.67556 ( 99.48%)    -0.66641 (  0.52%)    -0.67552
   ------------------------------------------------------------------------

   temp. (K)  partition function   enthalpy   heat capacity  entropy
                                   cal/mol     cal/K/mol   cal/K/mol   J/K/mol
 298.15  VIB   2.03                  646.650      4.868      3.577
         ROT  0.122E+05              888.752      2.981     21.680
         INT  0.248E+05             1535.402      7.849     25.257
         TR   0.312E+27             1481.254      4.968     37.453
         TOT                        3016.6560    12.8174    62.7091   262.3749

       T/K    H(0)-H(T)+PV         H(T)/Eh          T*S/Eh         G(T)/Eh
   ------------------------------------------------------------------------
    298.15    0.480735E-02    0.456104E-01    0.297951E-01    0.158152E-01
   ------------------------------------------------------------------------

         :::::::::::::::::::::::::::::::::::::::::::::::::::::
         ::                  THERMODYNAMIC                  ::
         :::::::::::::::::::::::::::::::::::::::::::::::::::::
         :: total free energy         -11.991850717840 Eh   ::
         ::.................................................::
         :: total energy              -12.007665966375 Eh   ::
         :: zero point energy           0.040803023383 Eh   ::
         :: G(RRHO) w/o ZPVE           -0.024987774848 Eh   ::
         :: G(RRHO) contrib.            0.015815248535 Eh   ::
         :::::::::::::::::::::::::::::::::::::::::::::::::::::

optimized geometry written to: xtbopt.xyz


           -------------------------------------------------
          | TOTAL ENERGY              -12.007665966375 Eh   |
          | TOTAL ENTHALPY            -11.962055595607 Eh   |
          | TOTAL FREE ENERGY         -11.991850717840 Eh   |
          | GRADIENT NORM               0.000546135459 Eh/α |
          | HOMO-LUMO GAP               6.855490555880 eV   |
           -------------------------------------------------

------------------------------------------------------------------------
 * finished run on 2025/10/18 at 02:37:52.157     
------------------------------------------------------------------------
 total:
 * wall-time:     0 d,  0 h,  0 min,  0.252 sec
 *  cpu-time:     0 d,  0 h,  0 min,  0.304 sec
 * ratio c/w:     1.203 speedup
 SCF:
 * wall-time:     0 d,  0 h,  0 min,  0.026 sec
 *  cpu-time:     0 d,  0 h,  0 min,  0.032 sec
 * ratio c/w:     1.240 speedup
 ANC optimizer:
 * wall-time:     0 d,  0 h,  0 min,  0.058 sec
 *  cpu-time:     0 d,  0 h,  0 min,  0.069 sec
 * ratio c/w:     1.193 speedup
 analytical hessian:
 * wall-time:     0 d,  0 h,  0 min,  0.063 sec
 *  cpu-time:     0 d,  0 h,  0 min,  0.089 sec
 * ratio c/w:     1.421 speedup

