6
 energy: -12.005382313132 gnorm: 0.038774083741 xtb: 6.7.1 (edcfbbe)
C           -7.13506500000000       -4.40864900000000        1.59384800000000
H           -7.89242100000000       -3.62065900000000        1.53713900000000
O           -7.63422300000000       -5.61381700000000        1.03564900000000
H           -6.22523200000000       -4.09584300000000        1.07222400000000
H           -6.89296200000000       -4.58743600000000        2.64476700000000
O           -7.92158600000000       -5.30930500000000       -0.30607900000000
6
 energy: -12.007366694254 gnorm: 0.010850283396 xtb: 6.7.1 (edcfbbe)
C           -7.12765150633141       -4.39544751904076        1.60699842125201
H           -7.88297853495401       -3.60582327875066        1.53692608085447
O           -7.62589137736998       -5.58773825782587        1.03913105519577
H           -6.22494864401623       -4.07842586340751        1.07449405231650
H           -6.89946113481485       -4.61906167023430        2.65361264163330
O           -7.94055780251352       -5.34921241074090       -0.33361425125205
6
 energy: -12.007652488835 gnorm: 0.002918710029 xtb: 6.7.1 (edcfbbe)
C           -7.12530378824108       -4.38584115037524        1.60557921361830
H           -7.87601634956618       -3.58984471498586        1.54521395221111
O           -7.62187966074796       -5.57792920660308        1.04335930067621
H           -6.21813690819007       -4.06240438759979        1.08283616983721
H           -6.90890135093204       -4.64265148158661        2.64396589569910
O           -7.95125094232266       -5.37703805884941       -0.34340653204194
6
 energy: -12.007663298796 gnorm: 0.001668208272 xtb: 6.7.1 (edcfbbe)
C           -7.12543657092767       -4.38543301294946        1.60459134027690
H           -7.87488597495013       -3.58796716765927        1.54690710484588
O           -7.62177115750645       -5.57751803165851        1.04297515593635
H           -6.21711828886977       -4.06043362137424        1.08469230527055
H           -6.91026174712995       -4.64445816085000        2.64115829968231
O           -7.95201526061602       -5.37989900550853       -0.34277620601200
6
 energy: -12.007665966584 gnorm: 0.000546289645 xtb: 6.7.1 (edcfbbe)
C           -7.12546753709908       -4.38504865432376        1.60390457667082
H           -7.87388827171092       -3.58622553501622        1.54823054549779
O           -7.62158177026192       -5.57645811429004        1.04183898752849
H           -6.21613633811943       -4.05855781061924        1.08631685208126
H           -6.91149119100596       -4.64636240806364        2.63912199958233
O           -7.95292389180269       -5.38305647768709       -0.34186496136070
