6
 energy: -12.007665966601 gnorm: 0.000546126396 xtb: 6.7.1 (edcfbbe)
C           -7.12548489829453       -4.38500854608394        1.60393710258614
H           -7.87390164460789       -3.58618160523525        1.54826428968538
O           -7.62160733162981       -5.57641638936326        1.04187532461525
H           -6.21615379655954       -4.05852336698294        1.08634563400183
H           -6.91150630683971       -4.64632161342103        2.63915423464996
O           -7.95295327056719       -5.38301543285365       -0.34182780521074
