
                                 *****************
                                 * O   R   C   A *
                                 *****************

                                            #,                                       
                                            ###                                      
                                            ####                                     
                                            #####                                    
                                            ######                                   
                                           ########,                                 
                                     ,,################,,,,,                         
                               ,,#################################,,                 
                          ,,##########################################,,             
                       ,#########################################, ''#####,          
                    ,#############################################,,   '####,        
                  ,##################################################,,,,####,       
                ,###########''''           ''''###############################       
              ,#####''   ,,,,##########,,,,          '''####'''          '####       
            ,##' ,,,,###########################,,,                        '##       
           ' ,,###''''                  '''############,,,                           
         ,,##''                                '''############,,,,        ,,,,,,###''
      ,#''                                            '''#######################'''  
     '                                                          ''''####''''         
             ,#######,   #######,   ,#######,      ##                                
            ,#'     '#,  ##    ##  ,#'     '#,    #''#        ######   ,####,        
            ##       ##  ##   ,#'  ##            #'  '#       #        #'  '#        
            ##       ##  #######   ##           ,######,      #####,   #    #        
            '#,     ,#'  ##    ##  '#,     ,#' ,#      #,         ##   #,  ,#        
             '#######'   ##     ##  '#######'  #'      '#     #####' # '####'        



                  #######################################################
                  #                        -***-                        #
                  #          Department of theory and spectroscopy      #
                  #    Directorship and core code : Frank Neese         #
                  #        Max Planck Institute fuer Kohlenforschung    #
                  #                Kaiser Wilhelm Platz 1               #
                  #                 D-45470 Muelheim/Ruhr               #
                  #                      Germany                        #
                  #                                                     #
                  #                  All rights reserved                #
                  #                        -***-                        #
                  #######################################################


                         Program Version 5.0.4 -  RELEASE  -


 With contributions from (in alphabetic order):
   Daniel Aravena         : Magnetic Suceptibility
   Michael Atanasov       : Ab Initio Ligand Field Theory (pilot matlab implementation)
   Alexander A. Auer      : GIAO ZORA, VPT2 properties, NMR spectrum
   Ute Becker             : Parallelization
   Giovanni Bistoni       : ED, misc. LED, open-shell LED, HFLD
   Martin Brehm           : Molecular dynamics
   Dmytro Bykov           : SCF Hessian
   Vijay G. Chilkuri      : MRCI spin determinant printing, contributions to CSF-ICE
   Dipayan Datta          : RHF DLPNO-CCSD density
   Achintya Kumar Dutta   : EOM-CC, STEOM-CC
   Dmitry Ganyushin       : Spin-Orbit,Spin-Spin,Magnetic field MRCI
   Miquel Garcia          : C-PCM and meta-GGA Hessian, CC/C-PCM, Gaussian charge scheme
   Yang Guo               : DLPNO-NEVPT2, F12-NEVPT2, CIM, IAO-localization
   Andreas Hansen         : Spin unrestricted coupled pair/coupled cluster methods
   Benjamin Helmich-Paris : MC-RPA, TRAH-SCF, COSX integrals
   Lee Huntington         : MR-EOM, pCC
   Robert Izsak           : Overlap fitted RIJCOSX, COSX-SCS-MP3, EOM
   Marcus Kettner         : VPT2
   Christian Kollmar      : KDIIS, OOCD, Brueckner-CCSD(T), CCSD density, CASPT2, CASPT2-K
   Simone Kossmann        : Meta GGA functionals, TD-DFT gradient, OOMP2, MP2 Hessian
   Martin Krupicka        : Initial AUTO-CI
   Lucas Lang             : DCDCAS
   Marvin Lechner         : AUTO-CI (C++ implementation), FIC-MRCC
   Dagmar Lenk            : GEPOL surface, SMD
   Dimitrios Liakos       : Extrapolation schemes; Compound Job, initial MDCI parallelization
   Dimitrios Manganas     : Further ROCIS development; embedding schemes
   Dimitrios Pantazis     : SARC Basis sets
   Anastasios Papadopoulos: AUTO-CI, single reference methods and gradients
   Taras Petrenko         : DFT Hessian,TD-DFT gradient, ASA, ECA, R-Raman, ABS, FL, XAS/XES, NRVS
   Peter Pinski           : DLPNO-MP2, DLPNO-MP2 Gradient
   Christoph Reimann      : Effective Core Potentials
   Marius Retegan         : Local ZFS, SOC
   Christoph Riplinger    : Optimizer, TS searches, QM/MM, DLPNO-CCSD(T), (RO)-DLPNO pert. Triples
   Tobias Risthaus        : Range-separated hybrids, TD-DFT gradient, RPA, STAB
   Michael Roemelt        : Original ROCIS implementation
   Masaaki Saitow         : Open-shell DLPNO-CCSD energy and density
   Barbara Sandhoefer     : DKH picture change effects
   Avijit Sen             : IP-ROCIS
   Kantharuban Sivalingam : CASSCF convergence, NEVPT2, FIC-MRCI
   Bernardo de Souza      : ESD, SOC TD-DFT
   Georgi Stoychev        : AutoAux, RI-MP2 NMR, DLPNO-MP2 response
   Willem Van den Heuvel  : Paramagnetic NMR
   Boris Wezisla          : Elementary symmetry handling
   Frank Wennmohs         : Technical directorship


 We gratefully acknowledge several colleagues who have allowed us to
 interface, adapt or use parts of their codes:
   Stefan Grimme, W. Hujo, H. Kruse, P. Pracht,  : VdW corrections, initial TS optimization,
                  C. Bannwarth, S. Ehlert          DFT functionals, gCP, sTDA/sTD-DF
   Ed Valeev, F. Pavosevic, A. Kumar             : LibInt (2-el integral package), F12 methods
   Garnet Chan, S. Sharma, J. Yang, R. Olivares  : DMRG
   Ulf Ekstrom                                   : XCFun DFT Library
   Mihaly Kallay                                 : mrcc  (arbitrary order and MRCC methods)
   Jiri Pittner, Ondrej Demel                    : Mk-CCSD
   Frank Weinhold                                : gennbo (NPA and NBO analysis)
   Christopher J. Cramer and Donald G. Truhlar   : smd solvation model
   Lars Goerigk                                  : TD-DFT with DH, B97 family of functionals
   V. Asgeirsson, H. Jonsson                     : NEB implementation
   FAccTs GmbH                                   : IRC, NEB, NEB-TS, DLPNO-Multilevel, CI-OPT
                                                   MM, QMMM, 2- and 3-layer-ONIOM, Crystal-QMMM,
                                                   LR-CPCM, SF, NACMEs, symmetry and pop. for TD-DFT,
                                                   nearIR, NL-DFT gradient (VV10), updates on ESD,
                                                   ML-optimized integration grids
   S Lehtola, MJT Oliveira, MAL Marques          : LibXC Library
   Liviu Ungur et al                             : ANISO software


 Your calculation uses the libint2 library for the computation of 2-el integrals
 For citations please refer to: http://libint.valeyev.net

 Your ORCA version has been built with support for libXC version: 5.1.0
 For citations please refer to: https://tddft.org/programs/libxc/

 This ORCA versions uses:
   CBLAS   interface :  Fast vector & matrix operations
   LAPACKE interface :  Fast linear algebra routines
   SCALAPACK package :  Parallel linear algebra routines
   Shared memory     :  Shared parallel matrices
   BLAS/LAPACK       :  OpenBLAS 0.3.15  USE64BITINT DYNAMIC_ARCH NO_AFFINITY Haswell SINGLE_THREADED
        Core in use  :  Haswell
   Copyright (c) 2011-2014, The OpenBLAS Project


Your calculation utilizes the atom-pairwise dispersion correction
with the Becke-Johnson damping scheme (D3BJ)
Cite in your paper:
S.Grimme, S.Ehrlich, L.Goerigk, J Comput Chem, (2011), 32, 1456–1465 
S.Grimme, J.Antony, S.Ehrlich and H.Krieg, J.Chem.Phys., 132, (2010), 154104 
   

================================================================================

----- Orbital basis set information -----
Your calculation utilizes the basis: def2-TZVP
   F. Weigend and R. Ahlrichs, Phys. Chem. Chem. Phys. 7, 3297 (2005).

----- AuxJ basis set information -----
Your calculation utilizes the auxiliary basis: def2/J
   F. Weigend, Phys. Chem. Chem. Phys. 8, 1057 (2006).

================================================================================
                                        WARNINGS
                       Please study these warnings very carefully!
================================================================================


WARNING: Geometry Optimization
  ===> : Switching off AutoStart
         For restart on a previous wavefunction, please use MOREAD

INFO   : the flag for use of the SHARK integral package has been found!

================================================================================
                                       INPUT FILE
================================================================================
NAME = inp.inp
|  1> !OPT PBE D3BJ def2-TZVP CPCM(water)
|  2> 
|  3> *xyz -1 1
|  4> N -4.977829 -1.457749 -2.584150
|  5> C -5.262634 -2.881313 -2.650855
|  6> O -4.511634 0.972818 -2.117955
|  7> H -4.689049 0.047843 -2.295370
|  8> H -3.572722 1.070863 -2.276953
|  9> *
| 10> 
| 11>                          ****END OF INPUT****
================================================================================

                       *****************************
                       * Geometry Optimization Run *
                       *****************************

Geometry optimization settings:
Update method            Update   .... BFGS
Choice of coordinates    CoordSys .... Z-matrix Internals
Initial Hessian          InHess   .... Almoef's Model

Convergence Tolerances:
Energy Change            TolE     ....  5.0000e-06 Eh
Max. Gradient            TolMAXG  ....  3.0000e-04 Eh/bohr
RMS Gradient             TolRMSG  ....  1.0000e-04 Eh/bohr
Max. Displacement        TolMAXD  ....  4.0000e-03 bohr
RMS Displacement         TolRMSD  ....  2.0000e-03 bohr
Strict Convergence                ....  False
------------------------------------------------------------------------------
                        ORCA OPTIMIZATION COORDINATE SETUP
------------------------------------------------------------------------------

The optimization will be done in new redundant internal coordinates
Making redundant internal coordinates   ...  (new redundants) done
Evaluating the initial hessian          ...  (Almloef) done
Evaluating the coordinates              ...  done
Calculating the B-matrix                .... done
Calculating the G-matrix                .... done
Diagonalizing the G-matrix              .... done
The first mode is                       ....    0
The number of degrees of freedom        ....    9

    -----------------------------------------------------------------
                    Redundant Internal Coordinates


    -----------------------------------------------------------------
         Definition                    Initial Value    Approx d2E/dq
    -----------------------------------------------------------------
      1. B(C   1,N   0)                  1.4533         0.443481   
      2. B(H   3,O   2)                  0.9584         0.523021   
      3. B(H   3,N   0)                  1.5600         0.057373   
      4. B(H   4,O   2)                  0.9573         0.525113   
      5. A(C   1,N   0,H   3)          171.9501         0.247229   
      6. A(H   3,O   2,H   4)          104.4572         0.322665   
      7. L(N   0,H   3,O   2,C   1, 1) 180.0000         0.230566   
      8. L(N   0,H   3,O   2,C   1, 2) 179.9998         0.230566   
      9. D(H   4,O   2,N   0,C   1)    106.1441         0.001504   
    -----------------------------------------------------------------

Number of atoms                         .... 5
Number of degrees of freedom            .... 9

         *************************************************************
         *                GEOMETRY OPTIMIZATION CYCLE   1            *
         *************************************************************
---------------------------------
CARTESIAN COORDINATES (ANGSTROEM)
---------------------------------
  N     -4.977829   -1.457749   -2.584150
  C     -5.262634   -2.881313   -2.650855
  O     -4.511634    0.972818   -2.117955
  H     -4.689049    0.047843   -2.295370
  H     -3.572722    1.070863   -2.276953

----------------------------
CARTESIAN COORDINATES (A.U.)
----------------------------
  NO LB      ZA    FRAG     MASS         X           Y           Z
   0 N     7.0000    0    14.007   -9.406734   -2.754746   -4.883336
   1 C     6.0000    0    12.011   -9.944937   -5.444892   -5.009390
   2 O     8.0000    0    15.999   -8.525753    1.838360   -4.002355
   3 H     1.0000    0     1.008   -8.861018    0.090410   -4.337621
   4 H     1.0000    0     1.008   -6.751466    2.023638   -4.302818

--------------------------------
INTERNAL COORDINATES (ANGSTROEM)
--------------------------------
 N      0   0   0     0.000000000000     0.00000000     0.00000000
 C      1   0   0     1.453305854645     0.00000000     0.00000000
 O      1   2   0     2.518398597827   171.95014009     0.00000000
 H      3   1   2     0.958400185244     0.00001087     0.00000000
 H      3   1   2     0.957313391619   104.45720904   106.14409315

---------------------------
INTERNAL COORDINATES (A.U.)
---------------------------
 N      0   0   0     0.000000000000     0.00000000     0.00000000
 C      1   0   0     2.746350054104     0.00000000     0.00000000
 O      1   2   0     4.759083645945   171.95014009     0.00000000
 H      3   1   2     1.811113876810     0.00001087     0.00000000
 H      3   1   2     1.809060134495   104.45720904   106.14409315

---------------------
BASIS SET INFORMATION
---------------------
There are 4 groups of distinct atoms

 Group   1 Type N   : 11s6p2d1f contracted to 5s3p2d1f pattern {62111/411/11/1}
 Group   2 Type C   : 11s6p2d1f contracted to 5s3p2d1f pattern {62111/411/11/1}
 Group   3 Type O   : 11s6p2d1f contracted to 5s3p2d1f pattern {62111/411/11/1}
 Group   4 Type H   : 5s1p contracted to 3s1p pattern {311/1}

Atom   0N    basis set group =>   1
Atom   1C    basis set group =>   2
Atom   2O    basis set group =>   3
Atom   3H    basis set group =>   4
Atom   4H    basis set group =>   4
---------------------------------
AUXILIARY/J BASIS SET INFORMATION
---------------------------------
There are 4 groups of distinct atoms

 Group   1 Type N   : 12s5p4d2f1g contracted to 6s4p3d1f1g pattern {711111/2111/211/2/1}
 Group   2 Type C   : 12s5p4d2f1g contracted to 6s4p3d1f1g pattern {711111/2111/211/2/1}
 Group   3 Type O   : 12s5p4d2f1g contracted to 6s4p3d1f1g pattern {711111/2111/211/2/1}
 Group   4 Type H   : 5s2p1d contracted to 3s1p1d pattern {311/2/1}

Atom   0N    basis set group =>   1
Atom   1C    basis set group =>   2
Atom   2O    basis set group =>   3
Atom   3H    basis set group =>   4
Atom   4H    basis set group =>   4
------------------------------------------------------------------------------
                           ORCA GTO INTEGRAL CALCULATION
                           -- RI-GTO INTEGRALS CHOSEN --
------------------------------------------------------------------------------
------------------------------------------------------------------------------
                   ___                                                        
                  /   \      - P O W E R E D   B Y -                         
                 /     \                                                     
                 |  |  |   _    _      __       _____    __    __             
                 |  |  |  | |  | |    /  \     |  _  \  |  |  /  |          
                  \  \/   | |  | |   /    \    | | | |  |  | /  /          
                 / \  \   | |__| |  /  /\  \   | |_| |  |  |/  /          
                |  |  |   |  __  | /  /__\  \  |    /   |      \           
                |  |  |   | |  | | |   __   |  |    \   |  |\   \          
                \     /   | |  | | |  |  |  |  | |\  \  |  | \   \       
                 \___/    |_|  |_| |__|  |__|  |_| \__\ |__|  \__/        
                                                                              
                      - O R C A' S   B I G   F R I E N D -                    
                                      &                                       
                       - I N T E G R A L  F E E D E R -                       
                                                                              
 v1 FN, 2020, v2 2021                                                         
------------------------------------------------------------------------------


Reading SHARK input file inp.SHARKINP.tmp ... ok
----------------------
SHARK INTEGRAL PACKAGE
----------------------

Number of atoms                             ...      5
Number of basis functions                   ...    105
Number of shells                            ...     41
Maximum angular momentum                    ...      3
Integral batch strategy                     ... SHARK/LIBINT Hybrid
RI-J (if used) integral strategy            ... SPLIT-RIJ (Revised 2003 algorithm where possible)
Printlevel                                  ...      1
Contraction scheme used                     ... SEGMENTED contraction
Coulomb Range Separation                    ... NOT USED
Exchange Range Separation                   ... NOT USED
Finite Nucleus Model                        ... NOT USED
Auxiliary Coulomb fitting basis             ... AVAILABLE
   # of basis functions in Aux-J            ...    169
   # of shells in Aux-J                     ...     55
   Maximum angular momentum in Aux-J        ...      4
Auxiliary J/K fitting basis                 ... NOT available
Auxiliary Correlation fitting basis         ... NOT available
Auxiliary 'external' fitting basis          ... NOT available
Integral threshold                          ...     2.500000e-11
Primitive cut-off                           ...     2.500000e-12
Primitive pair pre-selection threshold      ...     2.500000e-12

Calculating pre-screening integrals         ... done (  0.0 sec) Dimension = 41
Organizing shell pair data                  ... done (  0.1 sec)
Shell pair information
Total number of shell pairs                 ...       861
Shell pairs after pre-screening             ...       815
Total number of primitive shell pairs       ...      2700
Primitive shell pairs kept                  ...      2076
          la=0 lb=0:    212 shell pairs
          la=1 lb=0:    222 shell pairs
          la=1 lb=1:     66 shell pairs
          la=2 lb=0:    116 shell pairs
          la=2 lb=1:     64 shell pairs
          la=2 lb=2:     20 shell pairs
          la=3 lb=0:     59 shell pairs
          la=3 lb=1:     33 shell pairs
          la=3 lb=2:     17 shell pairs
          la=3 lb=3:      6 shell pairs

Calculating one electron integrals          ... done (  0.0 sec)
Calculating RI/J V-Matrix + Cholesky decomp.... done (  0.2 sec)
Calculating Nuclear repulsion               ... done (  0.0 sec) ENN=     48.098892186737 Eh

SHARK setup successfully completed in   0.8 seconds

Maximum memory used throughout the entire GTOINT-calculation: 16.1 MB
-------------------------------------------------------------------------------
                                 ORCA SCF
-------------------------------------------------------------------------------

------------
SCF SETTINGS
------------
Hamiltonian:
 Density Functional     Method          .... DFT(GTOs)
 Exchange Functional    Exchange        .... PBE
   PBE kappa parameter   XKappa         ....  0.804000
   PBE mue parameter    XMuePBE         ....  0.219520
 Correlation Functional Correlation     .... PBE
   PBE beta parameter  CBetaPBE         ....  0.066725
 LDA part of GGA corr.  LDAOpt          .... PW91-LDA
 Gradients option       PostSCFGGA      .... off
   Density functional embedding theory  .... OFF
   NL short-range parameter             ....  6.400000
 RI-approximation to the Coulomb term is turned on
   Number of AuxJ basis functions       .... 169


General Settings:
 Integral files         IntName         .... inp
 Hartree-Fock type      HFTyp           .... RHF
 Total Charge           Charge          ....   -1
 Multiplicity           Mult            ....    1
 Number of Electrons    NEL             ....   24
 Basis Dimension        Dim             ....  105
 Nuclear Repulsion      ENuc            ....     48.0988921867 Eh

Convergence Acceleration:
 DIIS                   CNVDIIS         .... on
   Start iteration      DIISMaxIt       ....    12
   Startup error        DIISStart       ....  0.200000
   # of expansion vecs  DIISMaxEq       ....     5
   Bias factor          DIISBfac        ....   1.050
   Max. coefficient     DIISMaxC        ....  10.000
 Trust-Rad. Augm. Hess. CNVTRAH         .... auto
   Auto Start mean grad. ratio tolernc. ....  1.125000
   Auto Start start iteration           ....    20
   Auto Start num. interpolation iter.  ....    10
   Max. Number of Micro iterations      ....    16
   Max. Number of Macro iterations      .... Maxiter - #DIIS iter
   Number of Davidson start vectors     ....     2
   Converg. threshold I  (grad. norm)   ....   1.000e-05
   Converg. threshold II (energy diff.) ....   1.000e-08
   Grad. Scal. Fac. for Micro threshold ....   0.100
   Minimum threshold for Micro iter.    ....   0.010
   NR start threshold (gradient norm)   ....   0.001
   Initial trust radius                 ....   0.400
   Minimum AH scaling param. (alpha)    ....   1.000
   Maximum AH scaling param. (alpha)    .... 1000.000
   Orbital update algorithm             .... Taylor
   White noise on init. David. guess    .... on
   Maximum white noise                  ....   0.010
   Quad. conv. algorithm                .... NR
 SOSCF                  CNVSOSCF        .... on
   Start iteration      SOSCFMaxIt      ....   150
   Startup grad/error   SOSCFStart      ....  0.003300
 Level Shifting         CNVShift        .... on
   Level shift para.    LevelShift      ....    0.2500
   Turn off err/grad.   ShiftErr        ....    0.0010
 Zerner damping         CNVZerner       .... off
 Static damping         CNVDamp         .... on
   Fraction old density DampFac         ....    0.7000
   Max. Damping (<1)    DampMax         ....    0.9800
   Min. Damping (>=0)   DampMin         ....    0.0000
   Turn off err/grad.   DampErr         ....    0.1000
 Fernandez-Rico         CNVRico         .... off

SCF Procedure:
 Maximum # iterations   MaxIter         ....   125
 SCF integral mode      SCFMode         .... Direct
   Integral package                     .... SHARK and LIBINT hybrid scheme
 Reset frequency        DirectResetFreq ....    20
 Integral Threshold     Thresh          ....  2.500e-11 Eh
 Primitive CutOff       TCut            ....  2.500e-12 Eh

Convergence Tolerance:
 Convergence Check Mode ConvCheckMode   .... Total+1el-Energy
 Convergence forced     ConvForced      .... 0
 Energy Change          TolE            ....  1.000e-08 Eh
 1-El. energy change                    ....  1.000e-05 Eh
 Orbital Gradient       TolG            ....  1.000e-05
 Orbital Rotation angle TolX            ....  1.000e-05
 DIIS Error             TolErr          ....  5.000e-07


Diagonalization of the overlap matrix:
Smallest eigenvalue                        ... 1.256e-03
Time for diagonalization                   ...    0.002 sec
Threshold for overlap eigenvalues          ... 1.000e-08
Number of eigenvalues below threshold      ... 0
Time for construction of square roots      ...    0.046 sec
Total time needed                          ...    0.048 sec

Time for model grid setup =    0.162 sec

------------------------------
INITIAL GUESS: MODEL POTENTIAL
------------------------------
Loading Hartree-Fock densities                     ... done
Calculating cut-offs                               ... done
Initializing the effective Hamiltonian             ... done
Setting up the integral package (SHARK)            ... done
Starting the Coulomb interaction                   ... done (   0.1 sec)
Reading the grid                                   ... done
Mapping shells                                     ... done
Starting the XC term evaluation                    ... done (   0.0 sec)
  promolecular density results
     # of electrons  =     23.000243149
     EX              =    -20.158010994
     EC              =     -0.713736858
     EX+EC           =    -20.871747852
Transforming the Hamiltonian                       ... done (   0.0 sec)
Diagonalizing the Hamiltonian                      ... done (   0.0 sec)
Back transforming the eigenvectors                 ... done (   0.0 sec)
Now organizing SCF variables                       ... done
                      ------------------
                      INITIAL GUESS DONE (   0.3 sec)
                      ------------------
-------------------
DFT GRID GENERATION
-------------------

General Integration Accuracy     IntAcc      ... 4.388
Radial Grid Type                 RadialGrid  ... OptM3 with GC (2021)
Angular Grid (max. ang.)         AngularGrid ... 4 (Lebedev-302)
Angular grid pruning method      GridPruning ... 4 (adaptive)
Weight generation scheme         WeightScheme... Becke
Basis function cutoff            BFCut       ... 1.0000e-11
Integration weight cutoff        WCut        ... 1.0000e-14
Angular grids for H and He will be reduced by one unit
Partially contracted basis set               ... off
Rotationally invariant grid construction     ... off

Total number of grid points                  ...    24947
Total number of batches                      ...      393
Average number of points per batch           ...       63
Average number of grid points per atom       ...     4989
Time for grid setup =    0.288 sec


--------------------
CPCM SOLVATION MODEL
--------------------
CPCM parameters:
  Epsilon                                         ...      80.4000
  Refrac                                          ...       1.3300
  Rsolv                                           ...       1.3000
  Surface type                                    ... GAUSSIAN VDW
  Epsilon function type                           ...         CPCM
Radii:
 Radius for N  used is    3.5149 Bohr (=   1.8600 Ang.)
 Radius for C  used is    3.8550 Bohr (=   2.0400 Ang.)
 Radius for O  used is    3.4469 Bohr (=   1.8240 Ang.)
 Radius for H  used is    2.4944 Bohr (=   1.3200 Ang.)
Calculating surface                               ...        done! (  0.0s)
GEPOL surface points                              ...          369
GEPOL Volume                                      ...     482.3540
GEPOL Surface-area                                ...     343.3597
Calculating surface distance matrix               ...        done! (  0.0s)
Performing Cholesky decomposition & store         ...        done! (  0.1s)
Overall time for CPCM initialization              ...                 0.1s
--------------
SCF ITERATIONS
--------------
ITER       Energy         Delta-E        Max-DP      RMS-DP      [F,P]     Damp
               ***  Starting incremental Fock matrix formation  ***
  0   -168.9772775557   0.000000000000 0.08548944  0.00305188  0.3573162 0.7000
  1   -169.0973083399  -0.120030784230 0.04720985  0.00174961  0.1222212 0.7000
                               ***Turning on DIIS***
  2   -169.1169469126  -0.019638572662 0.15018537  0.00305725  0.0723320 0.0000
  3   -169.1836907967  -0.066743884140 0.03827346  0.00126572  0.0703949 0.0000
  4   -169.1913484056  -0.007657608904 0.01912527  0.00046417  0.0464374 0.0000
  5   -169.1948496022  -0.003501196615 0.01183625  0.00022510  0.0189640 0.0000
  6   -169.1953967790  -0.000547176723 0.00570331  0.00009788  0.0057717 0.0000
                      *** Initiating the SOSCF procedure ***
                           *** Shutting down DIIS ***
                      *** Re-Reading the Fockian *** 
                      *** Removing any level shift *** 
ITER      Energy       Delta-E        Grad      Rot      Max-DP    RMS-DP
  7   -169.19544687  -0.0000500881  0.000377  0.000377  0.001309  0.000030
               *** Restarting incremental Fock matrix formation ***
  8   -169.19545159  -0.0000047276  0.000125  0.000685  0.001333  0.000031
  9   -169.19545084   0.0000007497  0.000355  0.000606  0.000348  0.000014
 10   -169.19545138  -0.0000005336  0.000341  0.000317  0.000933  0.000026
 11   -169.19545022   0.0000011602  0.000358  0.000215  0.000534  0.000017
 12   -169.19545220  -0.0000019850  0.000072  0.000101  0.000299  0.000008
 13   -169.19545217   0.0000000370  0.000072  0.000063  0.000198  0.000005
 14   -169.19545226  -0.0000000950  0.000004  0.000005  0.000005  0.000000
                  ***Gradient check signals convergence***
              ***Rediagonalizing the Fockian in SOSCF/NRSCF***

               *****************************************************
               *                     SUCCESS                       *
               *           SCF CONVERGED AFTER  15 CYCLES          *
               *****************************************************


----------------
TOTAL SCF ENERGY
----------------

Total Energy       :         -169.19545226 Eh           -4604.04232 eV

Components:
Nuclear Repulsion  :           48.09889219 Eh            1308.83740 eV
Electronic Energy  :         -217.29434445 Eh           -5912.87972 eV
One Electron Energy:         -331.26667629 Eh           -9014.22454 eV
Two Electron Energy:          113.97233184 Eh            3101.34482 eV
CPCM Dielectric    :           -0.10356014 Eh              -2.81801 eV

Virial components:
Potential Energy   :         -337.28668341 Eh           -9178.03726 eV
Kinetic Energy     :          168.09123114 Eh            4573.99494 eV
Virial Ratio       :            2.00656918


DFT components:
N(Alpha)           :       12.000006644610 electrons
N(Beta)            :       12.000006644610 electrons
N(Total)           :       24.000013289221 electrons
E(X)               :      -20.680274850490 Eh       
E(C)               :       -0.758954147566 Eh       
E(XC)              :      -21.439228998056 Eh       
DFET-embed. en.    :        0.000000000000 Eh       
CPCM Solvation Model Properties:
Surface-charge          :            0.97541868
Charge-correction       :           -0.00365376 Eh              -0.09942 eV
Free-energy (cav+disp)  :  This term is not implemented in the current solvation scheme

---------------
SCF CONVERGENCE
---------------

  Last Energy change         ...    9.9192e-12  Tolerance :   1.0000e-08
  Last MAX-Density change    ...    1.9643e-06  Tolerance :   1.0000e-07
  Last RMS-Density change    ...    5.7953e-08  Tolerance :   5.0000e-09
  Last Orbital Gradient      ...    9.7031e-07  Tolerance :   1.0000e-05
  Last Orbital Rotation      ...    7.4666e-07  Tolerance :   1.0000e-05

             **** THE GBW FILE WAS UPDATED (inp.gbw) ****
             **** DENSITY inp.scfp WAS UPDATED ****
             **** ENERGY FILE WAS UPDATED (inp.en.tmp) ****
             **** THE GBW FILE WAS UPDATED (inp.gbw) ****
             **** DENSITY inp.scfp WAS UPDATED ****
----------------
ORBITAL ENERGIES
----------------

  NO   OCC          E(Eh)            E(eV) 
   0   2.0000     -18.702155      -508.9115 
   1   2.0000     -13.967794      -380.0830 
   2   2.0000      -9.917401      -269.8662 
   3   2.0000      -0.891046       -24.2466 
   4   2.0000      -0.684108       -18.6155 
   5   2.0000      -0.462417       -12.5830 
   6   2.0000      -0.373801       -10.1716 
   7   2.0000      -0.305990        -8.3264 
   8   2.0000      -0.239122        -6.5068 
   9   2.0000      -0.224598        -6.1116 
  10   2.0000      -0.219771        -5.9803 
  11   2.0000      -0.216847        -5.9007 
  12   0.0000      -0.041609        -1.1322 
  13   0.0000      -0.041053        -1.1171 
  14   0.0000       0.047414         1.2902 
  15   0.0000       0.121995         3.3197 
  16   0.0000       0.156809         4.2670 
  17   0.0000       0.190213         5.1759 
  18   0.0000       0.226035         6.1507 
  19   0.0000       0.230235         6.2650 
  20   0.0000       0.289266         7.8713 
  21   0.0000       0.337569         9.1857 
  22   0.0000       0.346037         9.4161 
  23   0.0000       0.370168        10.0728 
  24   0.0000       0.442829        12.0500 
  25   0.0000       0.461560        12.5597 
  26   0.0000       0.472672        12.8621 
  27   0.0000       0.530398        14.4329 
  28   0.0000       0.557924        15.1819 
  29   0.0000       0.652874        17.7656 
  30   0.0000       0.653056        17.7706 
  31   0.0000       0.709450        19.3051 
  32   0.0000       0.761575        20.7235 
  33   0.0000       0.774946        21.0873 
  34   0.0000       0.832968        22.6662 
  35   0.0000       1.019252        27.7353 
  36   0.0000       1.091827        29.7101 
  37   0.0000       1.094537        29.7839 
  38   0.0000       1.145427        31.1686 
  39   0.0000       1.173543        31.9337 
  40   0.0000       1.244036        33.8520 
  41   0.0000       1.277225        34.7551 
  42   0.0000       1.307638        35.5826 
  43   0.0000       1.346027        36.6272 
  44   0.0000       1.451092        39.4862 
  45   0.0000       1.482809        40.3493 
  46   0.0000       1.533592        41.7312 
  47   0.0000       1.581568        43.0366 
  48   0.0000       1.753825        47.7240 
  49   0.0000       1.815525        49.4029 
  50   0.0000       1.910326        51.9826 
  51   0.0000       2.013050        54.7779 
  52   0.0000       2.055447        55.9315 
  53   0.0000       2.061529        56.0971 
  54   0.0000       2.101304        57.1794 
  55   0.0000       2.138508        58.1918 
  56   0.0000       2.174584        59.1734 
  57   0.0000       2.377795        64.7031 
  58   0.0000       2.412094        65.6364 
  59   0.0000       2.567323        69.8604 
  60   0.0000       2.569990        69.9330 
  61   0.0000       2.613149        71.1074 
  62   0.0000       2.651296        72.1454 
  63   0.0000       2.651301        72.1456 
  64   0.0000       2.654129        72.2225 
  65   0.0000       2.654521        72.2332 
  66   0.0000       2.816410        76.6384 
  67   0.0000       2.892444        78.7074 
  68   0.0000       2.914240        79.3005 
  69   0.0000       2.938101        79.9498 
  70   0.0000       2.938368        79.9571 
  71   0.0000       3.055643        83.1483 
  72   0.0000       3.224893        87.7538 
  73   0.0000       3.230139        87.8966 
  74   0.0000       3.327984        90.5591 
  75   0.0000       3.623807        98.6088 
  76   0.0000       3.828696       104.1841 
  77   0.0000       3.858273       104.9889 
  78   0.0000       3.858293       104.9895 
  79   0.0000       4.063498       110.5734 
  80   0.0000       4.066129       110.6450 
  81   0.0000       4.159267       113.1794 
  82   0.0000       4.446580       120.9976 
  83   0.0000       4.447057       121.0106 
  84   0.0000       4.540834       123.5624 
  85   0.0000       4.558246       124.0362 
  86   0.0000       4.947086       134.6170 
  87   0.0000       4.959495       134.9547 
  88   0.0000       5.010524       136.3433 
  89   0.0000       5.127931       139.5381 
  90   0.0000       5.254061       142.9703 
  91   0.0000       5.279555       143.6640 
  92   0.0000       5.301471       144.2604 
  93   0.0000       5.388083       146.6172 
  94   0.0000       5.428484       147.7165 
  95   0.0000       6.041428       164.3956 
  96   0.0000       6.214445       169.1036 
  97   0.0000       6.287995       171.1051 
  98   0.0000       6.344296       172.6371 
  99   0.0000       6.429963       174.9682 
 100   0.0000       6.894946       187.6210 
 101   0.0000       7.057159       192.0351 
 102   0.0000      21.364391       581.3546 
 103   0.0000      31.568027       859.0097 
 104   0.0000      43.017459      1170.5646 

                    ********************************
                    * MULLIKEN POPULATION ANALYSIS *
                    ********************************

-----------------------
MULLIKEN ATOMIC CHARGES
-----------------------
   0 N :   -0.516251
   1 C :   -0.377019
   2 O :   -0.723559
   3 H :    0.290233
   4 H :    0.326595
Sum of atomic charges:   -1.0000000

--------------------------------
MULLIKEN REDUCED ORBITAL CHARGES
--------------------------------
  0 N s       :     3.826732  s :     3.826732
      pz      :     1.244800  p :     3.664140
      px      :     1.247867
      py      :     1.171473
      dz2     :     0.003040  d :     0.023647
      dxz     :     0.000239
      dyz     :     0.005676
      dx2y2   :     0.008916
      dxy     :     0.005775
      f0      :     0.000199  f :     0.001732
      f+1     :     0.000039
      f-1     :     0.000243
      f+2     :     0.000290
      f-2     :     0.000054
      f+3     :     0.000466
      f-3     :     0.000439
  1 C s       :     3.920892  s :     3.920892
      pz      :     0.736097  p :     2.407035
      px      :     0.738998
      py      :     0.931940
      dz2     :     0.003387  d :     0.044692
      dxz     :     0.000634
      dyz     :     0.015004
      dx2y2   :     0.010699
      dxy     :     0.014967
      f0      :     0.000545  f :     0.004401
      f+1     :     0.000109
      f-1     :     0.000543
      f+2     :     0.000778
      f-2     :     0.000142
      f+3     :     0.001234
      f-3     :     0.001052
  2 O s       :     3.760380  s :     3.760380
      pz      :     1.934837  p :     4.943927
      px      :     1.428261
      py      :     1.580829
      dz2     :     0.003435  d :     0.018094
      dxz     :     0.001721
      dyz     :     0.001871
      dx2y2   :     0.010391
      dxy     :     0.000676
      f0      :     0.000186  f :     0.001158
      f+1     :     0.000272
      f-1     :     0.000223
      f+2     :     0.000096
      f-2     :     0.000019
      f+3     :     0.000249
      f-3     :     0.000113
  3 H s       :     0.636857  s :     0.636857
      pz      :     0.016813  p :     0.072910
      px      :     0.012206
      py      :     0.043891
  4 H s       :     0.626175  s :     0.626175
      pz      :     0.016256  p :     0.047229
      px      :     0.018798
      py      :     0.012175


                     *******************************
                     * LOEWDIN POPULATION ANALYSIS *
                     *******************************

----------------------
LOEWDIN ATOMIC CHARGES
----------------------
   0 N :   -0.341404
   1 C :   -0.483707
   2 O :   -0.363642
   3 H :    0.042674
   4 H :    0.146080

-------------------------------
LOEWDIN REDUCED ORBITAL CHARGES
-------------------------------
  0 N s       :     3.482352  s :     3.482352
      pz      :     1.198754  p :     3.781346
      px      :     1.206443
      py      :     1.376149
      dz2     :     0.013260  d :     0.073139
      dxz     :     0.000434
      dyz     :     0.010095
      dx2y2   :     0.036142
      dxy     :     0.013208
      f0      :     0.000314  f :     0.004567
      f+1     :     0.000085
      f-1     :     0.001053
      f+2     :     0.000455
      f-2     :     0.000082
      f+3     :     0.001060
      f-3     :     0.001518
  1 C s       :     3.582904  s :     3.582904
      pz      :     0.753524  p :     2.708974
      px      :     0.764852
      py      :     1.190599
      dz2     :     0.023026  d :     0.167808
      dxz     :     0.001541
      dyz     :     0.036494
      dx2y2   :     0.064400
      dxy     :     0.042347
      f0      :     0.002209  f :     0.024021
      f+1     :     0.000524
      f-1     :     0.004425
      f+2     :     0.003166
      f-2     :     0.000576
      f+3     :     0.006163
      f-3     :     0.006958
  2 O s       :     3.444562  s :     3.444562
      pz      :     1.877352  p :     4.887861
      px      :     1.458108
      py      :     1.552402
      dz2     :     0.005031  d :     0.028838
      dxz     :     0.001601
      dyz     :     0.001751
      dx2y2   :     0.019597
      dxy     :     0.000857
      f0      :     0.000139  f :     0.002381
      f+1     :     0.000400
      f-1     :     0.000315
      f+2     :     0.000288
      f-2     :     0.000019
      f+3     :     0.000763
      f-3     :     0.000458
  3 H s       :     0.705302  s :     0.705302
      pz      :     0.052411  p :     0.252024
      px      :     0.036020
      py      :     0.163594
  4 H s       :     0.687598  s :     0.687598
      pz      :     0.048747  p :     0.166322
      px      :     0.081956
      py      :     0.035619


                      *****************************
                      * MAYER POPULATION ANALYSIS *
                      *****************************

  NA   - Mulliken gross atomic population
  ZA   - Total nuclear charge
  QA   - Mulliken gross atomic charge
  VA   - Mayer's total valence
  BVA  - Mayer's bonded valence
  FA   - Mayer's free valence

  ATOM       NA         ZA         QA         VA         BVA        FA
  0 N      7.5163     7.0000    -0.5163     2.8489     2.8489    -0.0000
  1 C      6.3770     6.0000    -0.3770     2.6914     2.6914     0.0000
  2 O      8.7236     8.0000    -0.7236     1.6893     1.6893     0.0000
  3 H      0.7098     1.0000     0.2902     1.0528     1.0528    -0.0000
  4 H      0.6734     1.0000     0.3266     0.9105     0.9105    -0.0000

  Mayer bond orders larger than 0.100000
B(  0-N ,  1-C ) :   2.6471 B(  0-N ,  3-H ) :   0.2202 B(  2-O ,  3-H ) :   0.8047 
B(  2-O ,  4-H ) :   0.9017 

-------
TIMINGS
-------

Total SCF time: 0 days 0 hours 0 min 12 sec 

Total time                  ....      12.386 sec
Sum of individual times     ....      10.504 sec  ( 84.8%)

Fock matrix formation       ....       9.367 sec  ( 75.6%)
  Split-RI-J                ....       0.600 sec  (  6.4% of F)
  XC integration            ....       4.628 sec  ( 49.4% of F)
    Basis function eval.    ....       1.034 sec  ( 22.3% of XC)
    Density eval.           ....       0.543 sec  ( 11.7% of XC)
    XC-Functional eval.     ....       0.358 sec  (  7.7% of XC)
    XC-Potential eval.      ....       0.657 sec  ( 14.2% of XC)
Diagonalization             ....       0.014 sec  (  0.1%)
Density matrix formation    ....       0.001 sec  (  0.0%)
Population analysis         ....       0.029 sec  (  0.2%)
Initial guess               ....       0.164 sec  (  1.3%)
Orbital Transformation      ....       0.000 sec  (  0.0%)
Orbital Orthonormalization  ....       0.000 sec  (  0.0%)
DIIS solution               ....       0.288 sec  (  2.3%)
SOSCF solution              ....       0.192 sec  (  1.5%)
Grid generation             ....       0.449 sec  (  3.6%)

Maximum memory used throughout the entire SCF-calculation: 23.8 MB


-------------------------------------------------------------------------------
                          DFT DISPERSION CORRECTION                            
                                                                               
                              DFTD3 V3.1  Rev 1                                
                          USING Becke-Johnson damping                          
-------------------------------------------------------------------------------
The PBE functional is recognized
Active option DFTDOPT                   ...         4   

molecular C6(AA) [au] = 318.457703 


            DFT-D V3
 parameters
 s6 scaling factor         :     1.0000 
 a1 scaling factor         :     0.4289 
 s8 scaling factor         :     0.7875 
 a2 scaling factor         :     4.4407 
 ad hoc parameters k1-k3   :    16.0000     1.3333    -4.0000 

 Edisp/kcal,au: -1.129327849042  -0.001799698292 
 E6   /kcal   :  -0.814124757 
 E8   /kcal   :  -0.315203093 
 % E8         :  27.910680925 

-------------------------   ----------------
Dispersion correction           -0.001799698
-------------------------   ----------------


-------------------------   --------------------
FINAL SINGLE POINT ENERGY      -169.197251959537
-------------------------   --------------------

------------------------------------------------------------------------------
                         ORCA SCF GRADIENT CALCULATION
------------------------------------------------------------------------------

Gradient of the Kohn-Sham DFT energy:
Kohn-Sham wavefunction type      ... RKS
Hartree-Fock exchange scaling    ...    0.000
Number of operators              ...    1
Number of atoms                  ...    5
Basis set dimensions             ...  105
Integral neglect threshold       ... 2.5e-11
Integral primitive cutoff        ... 2.5e-12
SHARK Integral package           ... ON

Nuc. rep. gradient       (SHARK) ... done (  0.0 sec)
HCore & Overlap gradient (SHARK) ... done (  0.0 sec)
RI-J gradient            (SHARK) ... done (  0.2 sec)
Exchange-correlation gradient    ... done
Dispersion correction            ... done

------------------
CARTESIAN GRADIENT
------------------

   1   N   :    0.049423781    0.246151449    0.014273402
   2   C   :   -0.045320628   -0.226392215   -0.010596931
   3   O   :    0.001992549   -0.050080978   -0.011979246
   4   H   :    0.007448192    0.033339164    0.006408531
   5   H   :   -0.013543894   -0.003017420    0.001894244

Difference to translation invariance:
           :   -0.0000000000    0.0000000000    0.0000000000

Difference to rotation invariance:
           :   -0.0000892766   -0.0000064073    0.0003618745

Norm of the cartesian gradient     ...    0.3474426813
RMS gradient                       ...    0.0897093146
MAX gradient                       ...    0.2461514491

-------
TIMINGS
-------

Total SCF gradient time            ...        1.382 sec

One electron gradient       ....       0.024 sec  (  1.8%)
RI-J Coulomb gradient       ....       0.249 sec  ( 18.0%)
XC gradient                 ....       0.757 sec  ( 54.7%)
CPCM gradient               ....       0.087 sec  (  6.3%)
   A-Matrix (El+Nuc)        ....       0.007 sec  (  0.5%)
   Potential                ....       0.080 sec  (  5.8%)

Maximum memory used throughout the entire SCFGRAD-calculation: 38.2 MB
------------------------------------------------------------------------------
                         ORCA GEOMETRY RELAXATION STEP
------------------------------------------------------------------------------

Reading the OPT-File                    .... done
Getting information on internals        .... done
Copying old internal coords+grads       .... done
Making the new internal coordinates     .... (new redundants).... done
Validating the new internal coordinates .... (new redundants).... done
Calculating the B-matrix                .... done
Calculating the G,G- and P matrices     .... done
Transforming gradient to internals      .... done
Projecting the internal gradient        .... done
Number of atoms                         ....   5
Number of internal coordinates          ....   9
Current Energy                          ....  -169.197251960 Eh
Current gradient norm                   ....     0.347442681 Eh/bohr
Maximum allowed component of the step   ....  0.300
Current trust radius                    ....  0.300
Evaluating the initial hessian          ....  (Almloef) done
Projecting the Hessian                  .... done
Forming the augmented Hessian           .... done
Diagonalizing the augmented Hessian     .... done
Last element of RFO vector              ....  0.912231128
Lowest eigenvalues of augmented Hessian:
 -0.105145692  0.001503667  0.059420511  0.230566390  0.230566747
Length of the computed step             ....  0.449092252
Warning: the length of the step is outside the trust region - taking restricted step instead
The input lambda is                     ....    -0.105146
   iter:   1  x=   -0.233594  g=    0.869488 f(x)=     0.111684
   iter:   2  x=   -0.328126  g=    0.393461 f(x)=     0.037195
   iter:   3  x=   -0.355490  g=    0.257844 f(x)=     0.007056
   iter:   4  x=   -0.357116  g=    0.231065 f(x)=     0.000376
   iter:   5  x=   -0.357121  g=    0.229598 f(x)=     0.000001
   iter:   6  x=   -0.357121  g=    0.229593 f(x)=     0.000000
   iter:   7  x=   -0.357121  g=    0.229593 f(x)=     0.000000
The output lambda is                    ....    -0.357121 (7 iterations)
The final length of the internal step   ....  0.300000000
Converting the step to cartesian space:
 Initial RMS(Int)=    0.1000000000
Transforming coordinates:
 Iter   0:  RMS(Cart)=    0.0564794111 RMS(Int)=    0.0999972651
 Iter   1:  RMS(Cart)=    0.0001487498 RMS(Int)=    0.0002364423
 Iter   2:  RMS(Cart)=    0.0000104868 RMS(Int)=    0.0000269309
 Iter   3:  RMS(Cart)=    0.0000009838 RMS(Int)=    0.0000080022
 Iter   4:  RMS(Cart)=    0.0000002682 RMS(Int)=    0.0000038269
 Iter   5:  RMS(Cart)=    0.0000001301 RMS(Int)=    0.0000018461
 Iter   6:  RMS(Cart)=    0.0000000626 RMS(Int)=    0.0000008932
done
Storing new coordinates                 .... done

                                .--------------------.
          ----------------------|Geometry convergence|-------------------------
          Item                value                   Tolerance       Converged
          ---------------------------------------------------------------------
          RMS gradient        0.0796484153            0.0001000000      NO
          MAX gradient        0.2311240523            0.0003000000      NO
          RMS step            0.1000000000            0.0020000000      NO
          MAX step            0.2886878013            0.0040000000      NO
          ........................................................
          Max(Bonds)      0.1528      Max(Angles)    0.25
          Max(Dihed)        0.00      Max(Improp)    0.00
          ---------------------------------------------------------------------

The optimization has not yet converged - more geometry cycles are needed


    ---------------------------------------------------------------------------
                         Redundant Internal Coordinates
                            (Angstroem and degrees)

        Definition                    Value    dE/dq     Step     New-Value
    ----------------------------------------------------------------------------
     1. B(C   1,N   0)                1.4533  0.231124 -0.1528    1.3005   
     2. B(H   3,O   2)                0.9584 -0.055259  0.0332    0.9916   
     3. B(H   3,N   0)                1.5600 -0.020515  0.0262    1.5862   
     4. B(H   4,O   2)                0.9573 -0.013888  0.0083    0.9656   
     5. A(C   1,N   0,H   3)          171.95 -0.000020    0.00    171.95   
     6. A(H   3,O   2,H   4)          104.46 -0.003009    0.25    104.71   
     7. L(N   0,H   3,O   2,C   1, 1) 180.00  0.000418   -0.04    179.96   
     8. L(N   0,H   3,O   2,C   1, 2) 180.00 -0.000021    0.00    180.00   
     9. D(H   4,O   2,N   0,C   1)    106.14  0.000024   -0.00    106.14   
    ----------------------------------------------------------------------------

         *************************************************************
         *                GEOMETRY OPTIMIZATION CYCLE   2            *
         *************************************************************
---------------------------------
CARTESIAN COORDINATES (ANGSTROEM)
---------------------------------
  N     -4.990403   -1.517395   -2.587921
  C     -5.244867   -2.791571   -2.643799
  O     -4.514065    0.971981   -2.117569
  H     -4.697260    0.014450   -2.298928
  H     -3.567272    1.074997   -2.277066

----------------------------
CARTESIAN COORDINATES (A.U.)
----------------------------
  NO LB      ZA    FRAG     MASS         X           Y           Z
   0 N     7.0000    0    14.007   -9.430495   -2.867460   -4.890461
   1 C     6.0000    0    12.011   -9.911363   -5.275306   -4.996056
   2 O     8.0000    0    15.999   -8.530347    1.836778   -4.001626
   3 H     1.0000    0     1.008   -8.876536    0.027306   -4.344345
   4 H     1.0000    0     1.008   -6.741168    2.031450   -4.303030

--------------------------------
INTERNAL COORDINATES (ANGSTROEM)
--------------------------------
 N      0   0   0     0.000000000000     0.00000000     0.00000000
 C      1   0   0     1.300538849917     0.00000000     0.00000000
 O      1   2   0     2.577813084431   171.93631215     0.00000000
 H      3   1   2     0.991623984240     0.02508510   179.84529218
 H      3   1   2     0.965643843283   104.71789618   106.14020114

---------------------------
INTERNAL COORDINATES (A.U.)
---------------------------
 N      0   0   0     0.000000000000     0.00000000     0.00000000
 C      1   0   0     2.457662252868     0.00000000     0.00000000
 O      1   2   0     4.871360754014   171.93631215     0.00000000
 H      3   1   2     1.873897758042     0.02508510   179.84529218
 H      3   1   2     1.824802406712   104.71789618   106.14020114

------------------------------------------------------------------------------
                   ___                                                        
                  /   \      - P O W E R E D   B Y -                         
                 /     \                                                     
                 |  |  |   _    _      __       _____    __    __             
                 |  |  |  | |  | |    /  \     |  _  \  |  |  /  |          
                  \  \/   | |  | |   /    \    | | | |  |  | /  /          
                 / \  \   | |__| |  /  /\  \   | |_| |  |  |/  /          
                |  |  |   |  __  | /  /__\  \  |    /   |      \           
                |  |  |   | |  | | |   __   |  |    \   |  |\   \          
                \     /   | |  | | |  |  |  |  | |\  \  |  | \   \       
                 \___/    |_|  |_| |__|  |__|  |_| \__\ |__|  \__/        
                                                                              
                      - O R C A' S   B I G   F R I E N D -                    
                                      &                                       
                       - I N T E G R A L  F E E D E R -                       
                                                                              
 v1 FN, 2020, v2 2021                                                         
------------------------------------------------------------------------------


Reading SHARK input file inp.SHARKINP.tmp ... ok
----------------------
SHARK INTEGRAL PACKAGE
----------------------

Number of atoms                             ...      5
Number of basis functions                   ...    105
Number of shells                            ...     41
Maximum angular momentum                    ...      3
Integral batch strategy                     ... SHARK/LIBINT Hybrid
RI-J (if used) integral strategy            ... SPLIT-RIJ (Revised 2003 algorithm where possible)
Printlevel                                  ...      1
Contraction scheme used                     ... SEGMENTED contraction
Coulomb Range Separation                    ... NOT USED
Exchange Range Separation                   ... NOT USED
Finite Nucleus Model                        ... NOT USED
Auxiliary Coulomb fitting basis             ... AVAILABLE
   # of basis functions in Aux-J            ...    169
   # of shells in Aux-J                     ...     55
   Maximum angular momentum in Aux-J        ...      4
Auxiliary J/K fitting basis                 ... NOT available
Auxiliary Correlation fitting basis         ... NOT available
Auxiliary 'external' fitting basis          ... NOT available
Integral threshold                          ...     2.500000e-11
Primitive cut-off                           ...     2.500000e-12
Primitive pair pre-selection threshold      ...     2.500000e-12

Calculating pre-screening integrals         ... done (  0.0 sec) Dimension = 41
Organizing shell pair data                  ... done (  0.1 sec)
Shell pair information
Total number of shell pairs                 ...       861
Shell pairs after pre-screening             ...       816
Total number of primitive shell pairs       ...      2700
Primitive shell pairs kept                  ...      2076
          la=0 lb=0:    212 shell pairs
          la=1 lb=0:    223 shell pairs
          la=1 lb=1:     66 shell pairs
          la=2 lb=0:    116 shell pairs
          la=2 lb=1:     64 shell pairs
          la=2 lb=2:     20 shell pairs
          la=3 lb=0:     58 shell pairs
          la=3 lb=1:     33 shell pairs
          la=3 lb=2:     18 shell pairs
          la=3 lb=3:      6 shell pairs

Calculating one electron integrals          ... done (  0.0 sec)
Calculating RI/J V-Matrix + Cholesky decomp.... done (  0.1 sec)
Calculating Nuclear repulsion               ... done (  0.0 sec) ENN=     49.577658650834 Eh

SHARK setup successfully completed in   0.4 seconds

Maximum memory used throughout the entire GTOINT-calculation: 16.1 MB

Diagonalization of the overlap matrix:
Smallest eigenvalue                        ... 6.381e-04
Time for diagonalization                   ...    0.002 sec
Threshold for overlap eigenvalues          ... 1.000e-08
Number of eigenvalues below threshold      ... 0
Time for construction of square roots      ...    0.013 sec
Total time needed                          ...    0.015 sec

-------------------
DFT GRID GENERATION
-------------------

General Integration Accuracy     IntAcc      ... 4.388
Radial Grid Type                 RadialGrid  ... OptM3 with GC (2021)
Angular Grid (max. ang.)         AngularGrid ... 4 (Lebedev-302)
Angular grid pruning method      GridPruning ... 4 (adaptive)
Weight generation scheme         WeightScheme... Becke
Basis function cutoff            BFCut       ... 1.0000e-11
Integration weight cutoff        WCut        ... 1.0000e-14
Angular grids for H and He will be reduced by one unit
Partially contracted basis set               ... off
Rotationally invariant grid construction     ... off

Total number of grid points                  ...    24944
Total number of batches                      ...      391
Average number of points per batch           ...       63
Average number of grid points per atom       ...     4989
Time for grid setup =    0.194 sec


--------------------
CPCM SOLVATION MODEL
--------------------
CPCM parameters:
  Epsilon                                         ...      80.4000
  Refrac                                          ...       1.3300
  Rsolv                                           ...       1.3000
  Surface type                                    ... GAUSSIAN VDW
  Epsilon function type                           ...         CPCM
Radii:
 Radius for N  used is    3.5149 Bohr (=   1.8600 Ang.)
 Radius for C  used is    3.8550 Bohr (=   2.0400 Ang.)
 Radius for O  used is    3.4469 Bohr (=   1.8240 Ang.)
 Radius for H  used is    2.4944 Bohr (=   1.3200 Ang.)
Calculating surface                               ...        done! (  0.0s)
GEPOL surface points                              ...          375
GEPOL Volume                                      ...     473.7767
GEPOL Surface-area                                ...     337.9740
Calculating surface distance matrix               ...        done! (  0.0s)
Performing Cholesky decomposition & store         ...        done! (  0.1s)
Overall time for CPCM initialization              ...                 0.1s
--------------
SCF ITERATIONS
--------------
ITER       Energy         Delta-E        Max-DP      RMS-DP      [F,P]     Damp
               ***  Starting incremental Fock matrix formation  ***
  0   -169.2495727452   0.000000000000 0.00892965  0.00040669  0.0468627 0.7000
                      *** Initiating the SOSCF procedure ***
                      *** Re-Reading the Fockian *** 
                      *** Removing any level shift *** 
ITER      Energy       Delta-E        Grad      Rot      Max-DP    RMS-DP
  1   -169.25250169  -0.0029289447  0.003157  0.003157  0.042389  0.001202
               *** Restarting incremental Fock matrix formation ***
  2   -169.25769639  -0.0051946971  0.006375  0.019777  0.038593  0.000904
  3   -169.25555775   0.0021386333  0.019006  0.022346  0.014609  0.000488
  4   -169.25790743  -0.0023496761  0.007444  0.010735  0.050950  0.000857
  5   -169.25716899   0.0007384386  0.007261  0.006345  0.030597  0.000544
  6   -169.25844851  -0.0012795187  0.001281  0.001726  0.003851  0.000119
  7   -169.25841629   0.0000322189  0.002028  0.001064  0.002859  0.000079
  8   -169.25846442  -0.0000481252  0.000030  0.000048  0.000204  0.000003
  9   -169.25846443  -0.0000000099  0.000016  0.000018  0.000077  0.000001
                 **** Energy Check signals convergence ****
              ***Rediagonalizing the Fockian in SOSCF/NRSCF***

               *****************************************************
               *                     SUCCESS                       *
               *           SCF CONVERGED AFTER  10 CYCLES          *
               *****************************************************

Total Energy       :         -169.25846443 Eh           -4605.75697 eV
  Last Energy change         ...   -4.8404e-09  Tolerance :   1.0000e-08
  Last MAX-Density change    ...    9.6499e-07  Tolerance :   1.0000e-07
             **** THE GBW FILE WAS UPDATED (inp.gbw) ****
             **** DENSITY inp.scfp WAS UPDATED ****
             **** ENERGY FILE WAS UPDATED (inp.en.tmp) ****
             **** THE GBW FILE WAS UPDATED (inp.gbw) ****
             **** DENSITY inp.scfp WAS UPDATED ****
Total SCF time: 0 days 0 hours 0 min 7 sec 

Maximum memory used throughout the entire SCF-calculation: 23.7 MB


-------------------------------------------------------------------------------
                          DFT DISPERSION CORRECTION                            
                                                                               
                              DFTD3 V3.1  Rev 1                                
                          USING Becke-Johnson damping                          
-------------------------------------------------------------------------------
-------------------------   ----------------
Dispersion correction           -0.001821463
-------------------------   ----------------


-------------------------   --------------------
FINAL SINGLE POINT ENERGY      -169.260285893636
-------------------------   --------------------

------------------------------------------------------------------------------
                         ORCA SCF GRADIENT CALCULATION
------------------------------------------------------------------------------

Gradient of the Kohn-Sham DFT energy:
Kohn-Sham wavefunction type      ... RKS
Hartree-Fock exchange scaling    ...    0.000
Number of operators              ...    1
Number of atoms                  ...    5
Basis set dimensions             ...  105
Integral neglect threshold       ... 2.5e-11
Integral primitive cutoff        ... 2.5e-12
SHARK Integral package           ... ON

Nuc. rep. gradient       (SHARK) ... done (  0.0 sec)
HCore & Overlap gradient (SHARK) ... done (  0.0 sec)
RI-J gradient            (SHARK) ... done (  0.2 sec)
Exchange-correlation gradient    ... done
Dispersion correction            ... done

------------------
CARTESIAN GRADIENT
------------------

   1   N   :    0.035399363    0.174793593    0.009234031
   2   C   :   -0.032479972   -0.161404182   -0.006922460
   3   O   :    0.001167780   -0.020769003   -0.005079990
   4   H   :    0.001168146    0.008260258    0.001980646
   5   H   :   -0.005255316   -0.000880665    0.000787773

Difference to translation invariance:
           :   -0.0000000000   -0.0000000000    0.0000000000

Difference to rotation invariance:
           :   -0.0002134335    0.0000466514   -0.0002099958

Norm of the cartesian gradient     ...    0.2441442540
RMS gradient                       ...    0.0630377753
MAX gradient                       ...    0.1747935926

-------
TIMINGS
-------

Total SCF gradient time            ...        1.480 sec

One electron gradient       ....       0.025 sec  (  1.7%)
RI-J Coulomb gradient       ....       0.241 sec  ( 16.3%)
XC gradient                 ....       0.769 sec  ( 52.0%)
CPCM gradient               ....       0.088 sec  (  5.9%)
   A-Matrix (El+Nuc)        ....       0.008 sec  (  0.5%)
   Potential                ....       0.080 sec  (  5.4%)

Maximum memory used throughout the entire SCFGRAD-calculation: 38.2 MB
------------------------------------------------------------------------------
                         ORCA GEOMETRY RELAXATION STEP
------------------------------------------------------------------------------

Reading the OPT-File                    .... done
Getting information on internals        .... done
Copying old internal coords+grads       .... done
Making the new internal coordinates     .... (new redundants).... done
Validating the new internal coordinates .... (new redundants).... done
Calculating the B-matrix                .... done
Calculating the G,G- and P matrices     .... done
Transforming gradient to internals      .... done
Projecting the internal gradient        .... done
Number of atoms                         ....   5
Number of internal coordinates          ....   9
Current Energy                          ....  -169.260285894 Eh
Current gradient norm                   ....     0.244144254 Eh/bohr
Maximum allowed component of the step   ....  0.300
Current trust radius                    ....  0.300
Updating the Hessian (BFGS)             .... done
Forming the augmented Hessian           .... done
Diagonalizing the augmented Hessian     .... done
Last element of RFO vector              ....  0.885818162
Lowest eigenvalues of augmented Hessian:
 -0.087292010  0.001503936  0.058374289  0.230565553  0.230566390
Length of the computed step             ....  0.523846254
Warning: the length of the step is outside the trust region - taking restricted step instead
The input lambda is                     ....    -0.087292
   iter:   1  x=   -0.193889  g=    1.730026 f(x)=     0.184415
   iter:   2  x=   -0.281925  g=    0.724833 f(x)=     0.063812
   iter:   3  x=   -0.319621  g=    0.411576 f(x)=     0.015515
   iter:   4  x=   -0.324307  g=    0.332615 f(x)=     0.001559
   iter:   5  x=   -0.324367  g=    0.324256 f(x)=     0.000020
   iter:   6  x=   -0.324367  g=    0.324150 f(x)=     0.000000
   iter:   7  x=   -0.324367  g=    0.324150 f(x)=     0.000000
The output lambda is                    ....    -0.324367 (7 iterations)
The final length of the internal step   ....  0.300000000
Converting the step to cartesian space:
 Initial RMS(Int)=    0.1000000000
Transforming coordinates:
 Iter   0:  RMS(Cart)=    0.0617637014 RMS(Int)=    0.0999997522
 Iter   1:  RMS(Cart)=    0.0001292225 RMS(Int)=    0.0006029864
 Iter   2:  RMS(Cart)=    0.0000128967 RMS(Int)=    0.0000694473
 Iter   3:  RMS(Cart)=    0.0000016136 RMS(Int)=    0.0000115211
 Iter   4:  RMS(Cart)=    0.0000002877 RMS(Int)=    0.0000045118
 Iter   5:  RMS(Cart)=    0.0000001426 RMS(Int)=    0.0000020725
 Iter   6:  RMS(Cart)=    0.0000000645 RMS(Int)=    0.0000009793
done
Storing new coordinates                 .... done

                                .--------------------.
          ----------------------|Geometry convergence|-------------------------
          Item                value                   Tolerance       Converged
          ---------------------------------------------------------------------
          Energy change      -0.0630339341            0.0000050000      NO
          RMS gradient        0.0556578009            0.0001000000      NO
          MAX gradient        0.1647847286            0.0003000000      NO
          RMS step            0.1000000000            0.0020000000      NO
          MAX step            0.2974081492            0.0040000000      NO
          ........................................................
          Max(Bonds)      0.1574      Max(Angles)    0.07
          Max(Dihed)        0.02      Max(Improp)    0.00
          ---------------------------------------------------------------------

The optimization has not yet converged - more geometry cycles are needed


    ---------------------------------------------------------------------------
                         Redundant Internal Coordinates
                            (Angstroem and degrees)

        Definition                    Value    dE/dq     Step     New-Value
    ----------------------------------------------------------------------------
     1. B(C   1,N   0)                1.3005  0.164785 -0.1574    1.1432   
     2. B(H   3,O   2)                0.9916 -0.022440  0.0147    1.0063   
     3. B(H   3,N   0)                1.5862 -0.013886  0.0143    1.6005   
     4. B(H   4,O   2)                0.9656 -0.005391  0.0034    0.9690   
     5. A(C   1,N   0,H   3)          171.95 -0.000347    0.07    172.02   
     6. A(H   3,O   2,H   4)          104.71 -0.000569   -0.03    104.68   
     7. L(N   0,H   3,O   2,C   1, 1) 179.96  0.000485   -0.07    179.89   
     8. L(N   0,H   3,O   2,C   1, 2) 180.00 -0.000025    0.00    180.01   
     9. D(H   4,O   2,N   0,C   1)    106.14  0.000072   -0.02    106.12   
    ----------------------------------------------------------------------------

         *************************************************************
         *                GEOMETRY OPTIMIZATION CYCLE   3            *
         *************************************************************
---------------------------------
CARTESIAN COORDINATES (ANGSTROEM)
---------------------------------
  N     -4.998302   -1.563359   -2.588605
  C     -5.220392   -2.683758   -2.635407
  O     -4.520318    0.956051   -2.119912
  H     -4.704719   -0.016318   -2.302053
  H     -3.570137    1.059846   -2.279305

----------------------------
CARTESIAN COORDINATES (A.U.)
----------------------------
  NO LB      ZA    FRAG     MASS         X           Y           Z
   0 N     7.0000    0    14.007   -9.445422   -2.954321   -4.891755
   1 C     6.0000    0    12.011   -9.865111   -5.071568   -4.980198
   2 O     8.0000    0    15.999   -8.542163    1.806675   -4.006054
   3 H     1.0000    0     1.008   -8.890631   -0.030836   -4.350250
   4 H     1.0000    0     1.008   -6.746581    2.002818   -4.307262

--------------------------------
INTERNAL COORDINATES (ANGSTROEM)
--------------------------------
 N      0   0   0     0.000000000000     0.00000000     0.00000000
 C      1   0   0     1.143157235801     0.00000000     0.00000000
 O      1   2   0     2.606831736189   171.97508803     0.00000000
 H      3   1   2     1.006320484848     0.07020845   179.84227637
 H      3   1   2     0.969032057731   104.69874409   106.11931116

---------------------------
INTERNAL COORDINATES (A.U.)
---------------------------
 N      0   0   0     0.000000000000     0.00000000     0.00000000
 C      1   0   0     2.160254103675     0.00000000     0.00000000
 O      1   2   0     4.926198058611   171.97508803     0.00000000
 H      3   1   2     1.901670119317     0.07020845   179.84227637
 H      3   1   2     1.831205204103   104.69874409   106.11931116

------------------------------------------------------------------------------
                   ___                                                        
                  /   \      - P O W E R E D   B Y -                         
                 /     \                                                     
                 |  |  |   _    _      __       _____    __    __             
                 |  |  |  | |  | |    /  \     |  _  \  |  |  /  |          
                  \  \/   | |  | |   /    \    | | | |  |  | /  /          
                 / \  \   | |__| |  /  /\  \   | |_| |  |  |/  /          
                |  |  |   |  __  | /  /__\  \  |    /   |      \           
                |  |  |   | |  | | |   __   |  |    \   |  |\   \          
                \     /   | |  | | |  |  |  |  | |\  \  |  | \   \       
                 \___/    |_|  |_| |__|  |__|  |_| \__\ |__|  \__/        
                                                                              
                      - O R C A' S   B I G   F R I E N D -                    
                                      &                                       
                       - I N T E G R A L  F E E D E R -                       
                                                                              
 v1 FN, 2020, v2 2021                                                         
------------------------------------------------------------------------------


Reading SHARK input file inp.SHARKINP.tmp ... ok
----------------------
SHARK INTEGRAL PACKAGE
----------------------

Number of atoms                             ...      5
Number of basis functions                   ...    105
Number of shells                            ...     41
Maximum angular momentum                    ...      3
Integral batch strategy                     ... SHARK/LIBINT Hybrid
RI-J (if used) integral strategy            ... SPLIT-RIJ (Revised 2003 algorithm where possible)
Printlevel                                  ...      1
Contraction scheme used                     ... SEGMENTED contraction
Coulomb Range Separation                    ... NOT USED
Exchange Range Separation                   ... NOT USED
Finite Nucleus Model                        ... NOT USED
Auxiliary Coulomb fitting basis             ... AVAILABLE
   # of basis functions in Aux-J            ...    169
   # of shells in Aux-J                     ...     55
   Maximum angular momentum in Aux-J        ...      4
Auxiliary J/K fitting basis                 ... NOT available
Auxiliary Correlation fitting basis         ... NOT available
Auxiliary 'external' fitting basis          ... NOT available
Integral threshold                          ...     2.500000e-11
Primitive cut-off                           ...     2.500000e-12
Primitive pair pre-selection threshold      ...     2.500000e-12

Calculating pre-screening integrals         ... done (  0.0 sec) Dimension = 41
Organizing shell pair data                  ... done (  0.0 sec)
Shell pair information
Total number of shell pairs                 ...       861
Shell pairs after pre-screening             ...       818
Total number of primitive shell pairs       ...      2700
Primitive shell pairs kept                  ...      2094
          la=0 lb=0:    212 shell pairs
          la=1 lb=0:    223 shell pairs
          la=1 lb=1:     66 shell pairs
          la=2 lb=0:    116 shell pairs
          la=2 lb=1:     66 shell pairs
          la=2 lb=2:     20 shell pairs
          la=3 lb=0:     58 shell pairs
          la=3 lb=1:     33 shell pairs
          la=3 lb=2:     18 shell pairs
          la=3 lb=3:      6 shell pairs

Calculating one electron integrals          ... done (  0.0 sec)
Calculating RI/J V-Matrix + Cholesky decomp.... done (  0.3 sec)
Calculating Nuclear repulsion               ... done (  0.0 sec) ENN=     51.992573403230 Eh

SHARK setup successfully completed in   0.7 seconds

Maximum memory used throughout the entire GTOINT-calculation: 16.2 MB

Diagonalization of the overlap matrix:
Smallest eigenvalue                        ... 3.649e-04
Time for diagonalization                   ...    0.002 sec
Threshold for overlap eigenvalues          ... 1.000e-08
Number of eigenvalues below threshold      ... 0
Time for construction of square roots      ...    0.007 sec
Total time needed                          ...    0.009 sec

-------------------
DFT GRID GENERATION
-------------------

General Integration Accuracy     IntAcc      ... 4.388
Radial Grid Type                 RadialGrid  ... OptM3 with GC (2021)
Angular Grid (max. ang.)         AngularGrid ... 4 (Lebedev-302)
Angular grid pruning method      GridPruning ... 4 (adaptive)
Weight generation scheme         WeightScheme... Becke
Basis function cutoff            BFCut       ... 1.0000e-11
Integration weight cutoff        WCut        ... 1.0000e-14
Angular grids for H and He will be reduced by one unit
Partially contracted basis set               ... off
Rotationally invariant grid construction     ... off

Total number of grid points                  ...    24939
Total number of batches                      ...      393
Average number of points per batch           ...       63
Average number of grid points per atom       ...     4988
Time for grid setup =    0.194 sec


--------------------
CPCM SOLVATION MODEL
--------------------
CPCM parameters:
  Epsilon                                         ...      80.4000
  Refrac                                          ...       1.3300
  Rsolv                                           ...       1.3000
  Surface type                                    ... GAUSSIAN VDW
  Epsilon function type                           ...         CPCM
Radii:
 Radius for N  used is    3.5149 Bohr (=   1.8600 Ang.)
 Radius for C  used is    3.8550 Bohr (=   2.0400 Ang.)
 Radius for O  used is    3.4469 Bohr (=   1.8240 Ang.)
 Radius for H  used is    2.4944 Bohr (=   1.3200 Ang.)
Calculating surface                               ...        done! (  0.0s)
GEPOL surface points                              ...          376
GEPOL Volume                                      ...     463.1663
GEPOL Surface-area                                ...     331.7440
Calculating surface distance matrix               ...        done! (  0.0s)
Performing Cholesky decomposition & store         ...        done! (  0.0s)
Overall time for CPCM initialization              ...                 0.0s
--------------
SCF ITERATIONS
--------------
ITER       Energy         Delta-E        Max-DP      RMS-DP      [F,P]     Damp
               ***  Starting incremental Fock matrix formation  ***
  0   -169.2661279513   0.000000000000 0.02001177  0.00070793  0.0590681 0.7000
                      *** Initiating the SOSCF procedure ***
                      *** Re-Reading the Fockian *** 
                      *** Removing any level shift *** 
ITER      Energy       Delta-E        Grad      Rot      Max-DP    RMS-DP
  1   -169.27043365  -0.0043057003  0.003016  0.003016  0.053063  0.001918
               *** Restarting incremental Fock matrix formation ***
  2   -169.27710750  -0.0066738516  0.007718  0.017349  0.087418  0.001364
  3   -169.27572430   0.0013832045  0.011864  0.014546  0.024085  0.000606
  4   -169.27815437  -0.0024300752  0.006291  0.011522  0.058144  0.000801
  5   -169.27741666   0.0007377135  0.007829  0.006498  0.042225  0.000579
  6   -169.27848183  -0.0010651738  0.000668  0.001044  0.002232  0.000062
  7   -169.27847088   0.0000109556  0.001303  0.000694  0.001483  0.000042
  8   -169.27848629  -0.0000154114  0.000030  0.000060  0.000321  0.000004
  9   -169.27848630  -0.0000000116  0.000016  0.000021  0.000115  0.000002
[...]
  Rsolv                                           ...       1.3000
  Surface type                                    ... GAUSSIAN VDW
  Epsilon function type                           ...         CPCM
Radii:
 Radius for N  used is    3.5149 Bohr (=   1.8600 Ang.)
 Radius for C  used is    3.8550 Bohr (=   2.0400 Ang.)
 Radius for O  used is    3.4469 Bohr (=   1.8240 Ang.)
 Radius for H  used is    2.4944 Bohr (=   1.3200 Ang.)
Calculating surface                               ...        done! (  0.0s)
GEPOL surface points                              ...          380
GEPOL Volume                                      ...     472.2134
GEPOL Surface-area                                ...     339.2193
Calculating surface distance matrix               ...        done! (  0.0s)
Performing Cholesky decomposition & store         ...        done! (  0.0s)
Overall time for CPCM initialization              ...                 0.0s
--------------
SCF ITERATIONS
--------------
ITER       Energy         Delta-E        Max-DP      RMS-DP      [F,P]     Damp
               ***  Starting incremental Fock matrix formation  ***
                      *** Initiating the SOSCF procedure ***
                      *** Re-Reading the Fockian *** 
                      *** Removing any level shift *** 
ITER      Energy       Delta-E        Grad      Rot      Max-DP    RMS-DP
  0   -169.28278857 -169.2827885739  0.000374  0.000374  0.000790  0.000034
               *** Restarting incremental Fock matrix formation ***
  1   -169.28279437  -0.0000057955  0.000149  0.000603  0.000287  0.000015
  2   -169.28279489  -0.0000005252  0.000028  0.000076  0.000067  0.000002
  3   -169.28279491  -0.0000000157  0.000012  0.000016  0.000022  0.000001
  4   -169.28279491  -0.0000000026  0.000010  0.000016  0.000017  0.000001
  5   -169.28279491  -0.0000000004  0.000011  0.000013  0.000024  0.000000
  6   -169.28279491  -0.0000000006  0.000005  0.000007  0.000012  0.000000
  7   -169.28279491   0.0000000006  0.000007  0.000004  0.000007  0.000000
                  ***Gradient check signals convergence***
              ***Rediagonalizing the Fockian in SOSCF/NRSCF***

               *****************************************************
               *                     SUCCESS                       *
               *           SCF CONVERGED AFTER   8 CYCLES          *
               *****************************************************


----------------
TOTAL SCF ENERGY
----------------

Total Energy       :         -169.28279491 Eh           -4606.41904 eV

Components:
Nuclear Repulsion  :           49.84020768 Eh            1356.22100 eV
Electronic Energy  :         -219.12300259 Eh           -5962.64004 eV
One Electron Energy:         -334.77287967 Eh           -9109.63318 eV
Two Electron Energy:          115.64987708 Eh            3146.99315 eV
CPCM Dielectric    :           -0.10459759 Eh              -2.84625 eV

Virial components:
Potential Energy   :         -337.88777956 Eh           -9194.39392 eV
Kinetic Energy     :          168.60498465 Eh            4587.97488 eV
Virial Ratio       :            2.00402011


DFT components:
N(Alpha)           :       12.000003517308 electrons
N(Beta)            :       12.000003517308 electrons
N(Total)           :       24.000007034615 electrons
E(X)               :      -20.824419432272 Eh       
E(C)               :       -0.765574301344 Eh       
E(XC)              :      -21.589993733616 Eh       
DFET-embed. en.    :        0.000000000000 Eh       
CPCM Solvation Model Properties:
Surface-charge          :            0.97551089
Charge-correction       :           -0.00355451 Eh              -0.09672 eV
Free-energy (cav+disp)  :  This term is not implemented in the current solvation scheme

---------------
SCF CONVERGENCE
---------------

  Last Energy change         ...   -7.4482e-10  Tolerance :   1.0000e-08
  Last MAX-Density change    ...    5.0452e-06  Tolerance :   1.0000e-07
  Last RMS-Density change    ...    7.9383e-08  Tolerance :   5.0000e-09
  Last Orbital Gradient      ...    5.4927e-07  Tolerance :   1.0000e-05
  Last Orbital Rotation      ...    1.1851e-06  Tolerance :   1.0000e-05

             **** THE GBW FILE WAS UPDATED (inp.gbw) ****
             **** DENSITY inp.scfp WAS UPDATED ****
             **** ENERGY FILE WAS UPDATED (inp.en.tmp) ****
             **** THE GBW FILE WAS UPDATED (inp.gbw) ****
             **** DENSITY inp.scfp WAS UPDATED ****
----------------
ORBITAL ENERGIES
----------------

  NO   OCC          E(Eh)            E(eV) 
   0   2.0000     -18.715945      -509.2868 
   1   2.0000     -13.925644      -378.9360 
   2   2.0000      -9.841477      -267.8002 
   3   2.0000      -0.886552       -24.1243 
   4   2.0000      -0.761391       -20.7185 
   5   2.0000      -0.447375       -12.1737 
   6   2.0000      -0.345326        -9.3968 
   7   2.0000      -0.301173        -8.1953 
   8   2.0000      -0.259955        -7.0737 
   9   2.0000      -0.258815        -7.0427 
  10   2.0000      -0.236625        -6.4389 
  11   2.0000      -0.215342        -5.8598 
  12   0.0000       0.031201         0.8490 
  13   0.0000       0.032210         0.8765 
  14   0.0000       0.041911         1.1405 
  15   0.0000       0.122288         3.3276 
  16   0.0000       0.167189         4.5494 
  17   0.0000       0.190615         5.1869 
  18   0.0000       0.221709         6.0330 
  19   0.0000       0.221932         6.0391 
  20   0.0000       0.300302         8.1716 
  21   0.0000       0.357532         9.7289 
  22   0.0000       0.359273         9.7763 
  23   0.0000       0.371249        10.1022 
  24   0.0000       0.455907        12.4059 
  25   0.0000       0.463170        12.6035 
  26   0.0000       0.533287        14.5115 
  27   0.0000       0.557335        15.1658 
  28   0.0000       0.615847        16.7580 
  29   0.0000       0.653055        17.7705 
  30   0.0000       0.653091        17.7715 
  31   0.0000       0.730085        19.8666 
  32   0.0000       0.818963        22.2851 
  33   0.0000       0.848234        23.0816 
  34   0.0000       0.854828        23.2611 
  35   0.0000       1.132119        30.8065 
  36   0.0000       1.158736        31.5308 
  37   0.0000       1.159450        31.5502 
  38   0.0000       1.168895        31.8072 
  39   0.0000       1.171936        31.8900 
  40   0.0000       1.255362        34.1601 
  41   0.0000       1.318946        35.8903 
  42   0.0000       1.403788        38.1990 
  43   0.0000       1.405685        38.2506 
  44   0.0000       1.444717        39.3128 
  45   0.0000       1.459083        39.7037 
  46   0.0000       1.474841        40.1325 
  47   0.0000       1.542548        41.9749 
  48   0.0000       1.631025        44.3825 
  49   0.0000       1.751730        47.6670 
  50   0.0000       1.935970        52.6804 
  51   0.0000       2.013639        54.7939 
  52   0.0000       2.063884        56.1611 
  53   0.0000       2.109048        57.3901 
  54   0.0000       2.168648        59.0119 
  55   0.0000       2.175280        59.1924 
  56   0.0000       2.184967        59.4560 
  57   0.0000       2.322287        63.1926 
  58   0.0000       2.388304        64.9891 
  59   0.0000       2.526117        68.7391 
  60   0.0000       2.548623        69.3516 
  61   0.0000       2.652359        72.1744 
  62   0.0000       2.652360        72.1744 
  63   0.0000       2.717634        73.9506 
  64   0.0000       2.728458        74.2451 
  65   0.0000       2.728713        74.2521 
  66   0.0000       2.884388        78.4882 
  67   0.0000       2.920370        79.4673 
  68   0.0000       2.933905        79.8356 
  69   0.0000       2.975603        80.9703 
  70   0.0000       2.975612        80.9705 
  71   0.0000       3.003054        81.7172 
  72   0.0000       3.376814        91.8878 
  73   0.0000       3.377396        91.9036 
  74   0.0000       3.418317        93.0171 
  75   0.0000       3.684271       100.2541 
  76   0.0000       3.902004       106.1789 
  77   0.0000       3.902009       106.1791 
  78   0.0000       3.909483       106.3824 
  79   0.0000       3.972274       108.0911 
  80   0.0000       4.368599       118.8756 
  81   0.0000       4.368664       118.8774 
  82   0.0000       4.518947       122.9668 
  83   0.0000       4.519004       122.9683 
  84   0.0000       4.790464       130.3552 
  85   0.0000       4.793654       130.4420 
  86   0.0000       5.008422       136.2861 
  87   0.0000       5.110273       139.0576 
  88   0.0000       5.274720       143.5324 
  89   0.0000       5.305698       144.3754 
  90   0.0000       5.334933       145.1709 
  91   0.0000       5.341229       145.3422 
  92   0.0000       5.355644       145.7345 
  93   0.0000       5.414270       147.3298 
  94   0.0000       5.633483       153.2949 
  95   0.0000       5.956888       162.0952 
  96   0.0000       6.184425       168.2868 
  97   0.0000       6.202415       168.7763 
  98   0.0000       6.262110       170.4007 
  99   0.0000       6.326548       172.1541 
 100   0.0000       6.796880       184.9525 
 101   0.0000       6.960779       189.4124 
 102   0.0000      21.727796       591.2434 
 103   0.0000      31.701378       862.6384 
 104   0.0000      43.015099      1170.5003 

                    ********************************
                    * MULLIKEN POPULATION ANALYSIS *
                    ********************************

-----------------------
MULLIKEN ATOMIC CHARGES
-----------------------
   0 N :   -0.282339
   1 C :   -0.624853
   2 O :   -0.735600
   3 H :    0.305618
   4 H :    0.337175
Sum of atomic charges:   -1.0000000

--------------------------------
MULLIKEN REDUCED ORBITAL CHARGES
--------------------------------
  0 N s       :     3.651013  s :     3.651013
      pz      :     1.207848  p :     3.601994
      px      :     1.207900
      py      :     1.186246
      dz2     :     0.001994  d :     0.027247
      dxz     :     0.000498
      dyz     :     0.009919
      dx2y2   :     0.005021
      dxy     :     0.009815
      f0      :     0.000294  f :     0.002085
      f+1     :     0.000054
      f-1     :     0.000178
      f+2     :     0.000490
      f-2     :     0.000107
      f+3     :     0.000721
      f-3     :     0.000241
  1 C s       :     3.948355  s :     3.948355
      pz      :     0.764662  p :     2.600403
      px      :     0.764544
      py      :     1.071196
      dz2     :     0.006247  d :     0.068546
      dxz     :     0.001123
      dyz     :     0.022212
      dx2y2   :     0.016614
      dxy     :     0.022350
      f0      :     0.000937  f :     0.007549
      f+1     :     0.000168
      f-1     :     0.000908
      f+2     :     0.001561
      f-2     :     0.000326
      f+3     :     0.002311
      f-3     :     0.001337
  2 O s       :     3.785632  s :     3.785632
      pz      :     1.948408  p :     4.930677
      px      :     1.423395
      py      :     1.558875
      dz2     :     0.003602  d :     0.018191
      dxz     :     0.001449
      dyz     :     0.001510
      dx2y2   :     0.011017
      dxy     :     0.000613
      f0      :     0.000155  f :     0.001100
      f+1     :     0.000294
      f-1     :     0.000239
      f+2     :     0.000064
      f-2     :     0.000013
      f+3     :     0.000258
      f-3     :     0.000078
  3 H s       :     0.639163  s :     0.639163
      pz      :     0.013866  p :     0.055219
      px      :     0.010174
      py      :     0.031179
  4 H s       :     0.617363  s :     0.617363
      pz      :     0.015648  p :     0.045462
      px      :     0.018475
      py      :     0.011339


                     *******************************
                     * LOEWDIN POPULATION ANALYSIS *
                     *******************************

----------------------
LOEWDIN ATOMIC CHARGES
----------------------
   0 N :   -0.236029
   1 C :   -0.634498
   2 O :   -0.397837
   3 H :    0.109059
   4 H :    0.159305

-------------------------------
LOEWDIN REDUCED ORBITAL CHARGES
-------------------------------
  0 N s       :     3.340870  s :     3.340870
      pz      :     1.139669  p :     3.797841
      px      :     1.139843
      py      :     1.518329
      dz2     :     0.012261  d :     0.085550
      dxz     :     0.000893
      dyz     :     0.018744
      dx2y2   :     0.034581
      dxy     :     0.019071
      f0      :     0.001096  f :     0.011768
      f+1     :     0.000192
      f-1     :     0.002179
      f+2     :     0.001795
      f-2     :     0.000342
      f+3     :     0.002749
      f-3     :     0.003415
  1 C s       :     3.437394  s :     3.437394
      pz      :     0.790939  p :     2.919313
      px      :     0.791274
      py      :     1.337100
      dz2     :     0.028195  d :     0.229440
      dxz     :     0.002910
      dyz     :     0.059474
      dx2y2   :     0.078958
      dxy     :     0.059903
      f0      :     0.005344  f :     0.048350
      f+1     :     0.000949
      f-1     :     0.007195
      f+2     :     0.008847
      f-2     :     0.001790
      f+3     :     0.013267
      f-3     :     0.010959
  2 O s       :     3.478443  s :     3.478443
      pz      :     1.896808  p :     4.890219
      px      :     1.451628
      py      :     1.541783
      dz2     :     0.004972  d :     0.027089
      dxz     :     0.001180
      dyz     :     0.001103
      dx2y2   :     0.019180
      dxy     :     0.000655
      f0      :     0.000082  f :     0.002086
      f+1     :     0.000430
      f-1     :     0.000308
      f+2     :     0.000165
      f-2     :     0.000009
      f+3     :     0.000730
      f-3     :     0.000361
  3 H s       :     0.701638  s :     0.701638
      pz      :     0.042032  p :     0.189303
      px      :     0.028587
      py      :     0.118684
  4 H s       :     0.680938  s :     0.680938
      pz      :     0.046008  p :     0.159757
      px      :     0.081596
      py      :     0.032154


                      *****************************
                      * MAYER POPULATION ANALYSIS *
                      *****************************

  NA   - Mulliken gross atomic population
  ZA   - Total nuclear charge
  QA   - Mulliken gross atomic charge
  VA   - Mayer's total valence
  BVA  - Mayer's bonded valence
  FA   - Mayer's free valence

  ATOM       NA         ZA         QA         VA         BVA        FA
  0 N      7.2823     7.0000    -0.2823     2.8548     2.8548    -0.0000
  1 C      6.6249     6.0000    -0.6249     2.6994     2.6994    -0.0000
  2 O      8.7356     8.0000    -0.7356     1.7015     1.7015     0.0000
  3 H      0.6944     1.0000     0.3056     1.0143     1.0143    -0.0000
  4 H      0.6628     1.0000     0.3372     0.9004     0.9004     0.0000

  Mayer bond orders larger than 0.100000
B(  0-N ,  1-C ) :   2.6762 B(  0-N ,  3-H ) :   0.1838 B(  2-O ,  3-H ) :   0.8138 
B(  2-O ,  4-H ) :   0.8946 

-------
TIMINGS
-------

Total SCF time: 0 days 0 hours 0 min 6 sec 

Total time                  ....       6.252 sec
Sum of individual times     ....       5.235 sec  ( 83.7%)

Fock matrix formation       ....       4.732 sec  ( 75.7%)
  Split-RI-J                ....       0.315 sec  (  6.7% of F)
  XC integration            ....       2.210 sec  ( 46.7% of F)
    Basis function eval.    ....       0.554 sec  ( 25.1% of XC)
    Density eval.           ....       0.283 sec  ( 12.8% of XC)
    XC-Functional eval.     ....       0.196 sec  (  8.9% of XC)
    XC-Potential eval.      ....       0.288 sec  ( 13.0% of XC)
Diagonalization             ....       0.002 sec  (  0.0%)
Density matrix formation    ....       0.001 sec  (  0.0%)
Population analysis         ....       0.021 sec  (  0.3%)
Initial guess               ....       0.002 sec  (  0.0%)
Orbital Transformation      ....       0.000 sec  (  0.0%)
Orbital Orthonormalization  ....       0.002 sec  (  0.0%)
DIIS solution               ....       0.000 sec  (  0.0%)
SOSCF solution              ....       0.207 sec  (  3.3%)
Grid generation             ....       0.269 sec  (  4.3%)

Maximum memory used throughout the entire SCF-calculation: 23.6 MB


-------------------------------------------------------------------------------
                          DFT DISPERSION CORRECTION                            
                                                                               
                              DFTD3 V3.1  Rev 1                                
                          USING Becke-Johnson damping                          
-------------------------------------------------------------------------------
The PBE functional is recognized
Active option DFTDOPT                   ...         4   

molecular C6(AA) [au] = 319.155296 


            DFT-D V3
 parameters
 s6 scaling factor         :     1.0000 
 a1 scaling factor         :     0.4289 
 s8 scaling factor         :     0.7875 
 a2 scaling factor         :     4.4407 
 ad hoc parameters k1-k3   :    16.0000     1.3333    -4.0000 

 Edisp/kcal,au: -1.100528459319  -0.001753803548 
 E6   /kcal   :  -0.793610675 
 E8   /kcal   :  -0.306917784 
 % E8         :  27.888218779 

-------------------------   ----------------
Dispersion correction           -0.001753804
-------------------------   ----------------


-------------------------   --------------------
FINAL SINGLE POINT ENERGY      -169.284548717634
-------------------------   --------------------

                                *** OPTIMIZATION RUN DONE ***

                            ***************************************
                            *     ORCA property calculations      *
                            ***************************************

                                    ---------------------
                                    Active property flags
                                    ---------------------
   (+) Dipole Moment


------------------------------------------------------------------------------
                       ORCA ELECTRIC PROPERTIES CALCULATION
------------------------------------------------------------------------------

Dipole Moment Calculation                       ... on
Quadrupole Moment Calculation                   ... off
Polarizability Calculation                      ... off
GBWName                                         ... inp.gbw
Electron density                                ... inp.scfp
The origin for moment calculation is the CENTER OF MASS  = (-9.177522, -1.683433 -4.580666)

-------------
DIPOLE MOMENT
-------------
                                X             Y             Z
Electronic contribution:     -0.33607      -1.23923      -0.16567
Nuclear contribution   :      1.39308       2.81057       0.28238
                        -----------------------------------------
Total Dipole Moment    :      1.05702       1.57135       0.11671
                        -----------------------------------------
Magnitude (a.u.)       :      1.89738
Magnitude (Debye)      :      4.82275



--------------------
Rotational spectrum 
--------------------
 
Rotational constants in cm-1:    19.569869     0.134342     0.133426 
Rotational constants in MHz : 586689.917894  4027.460925  4000.009888 

 Dipole components along the rotational axes: 
x,y,z [a.u.] :     1.755119    -0.720832     0.001564 
x,y,z [Debye]:     4.461157    -1.832210     0.003974 

 

Timings for individual modules:

Sum of individual times         ...      165.500 sec (=   2.758 min)
GTO integral calculation        ...       11.503 sec (=   0.192 min)   7.0 %
SCF iterations                  ...      127.506 sec (=   2.125 min)  77.0 %
SCF Gradient evaluation         ...       24.741 sec (=   0.412 min)  14.9 %
Geometry relaxation             ...        1.750 sec (=   0.029 min)   1.1 %
                             ****ORCA TERMINATED NORMALLY****
TOTAL RUN TIME: 0 days 0 hours 2 minutes 52 seconds 507 msec
