11
 energy: -12.980916227958 gnorm: 0.092086367691 xtb: 6.7.1 (edcfbbe)
C           -2.50536000000000        1.66176400000000        0.16932000000000
C           -0.80023200000000        1.37049500000000       -0.30634200000000
H           -2.19513600000000        1.51723900000000        1.22439900000000
H           -2.98264600000000        2.56333600000000        0.65268100000000
H           -2.59120400000000        2.34263400000000       -0.70214000000000
S            0.20649400000000        2.83255700000000        0.10857400000000
H           -0.54743600000000        0.44535400000000        0.22686500000000
H           -0.87841400000000        1.12596700000000       -1.37320000000000
C           -3.48441200000000        0.40660100000000       -0.16486400000000
H           -4.06539700000000        0.17973200000000        0.73241200000000
H           -4.14972600000000        0.69517200000000       -0.98219900000000
11
 energy: -13.000079662958 gnorm: 0.066409692413 xtb: 6.7.1 (edcfbbe)
C           -2.53218582783910        1.66755164053946        0.17269595697023
C           -0.84589113029039        1.37078528537870       -0.29633351446021
H           -2.13237991904557        1.49084105777484        1.19128626716843
H           -3.01028816093994        2.57895819688566        0.66531075984468
H           -2.51329773601303        2.32113291345997       -0.72229525736091
S            0.15941170848641        2.77878406242764        0.09714028047301
H           -0.53444928336532        0.47352866189311        0.23741299387732
H           -0.86444904263739        1.15628885446748       -1.36443328041155
C           -3.51026622220377        0.51439398346815       -0.12824883991673
H           -4.05962676195025        0.13065935561622        0.73874980080759
H           -4.15004662420165        0.65792698808878       -1.00577916699185
11
 energy: -13.012677781119 gnorm: 0.090290726864 xtb: 6.7.1 (edcfbbe)
C           -2.60214257118644        1.66530927320886        0.17525078682165
C           -0.83631417948897        1.37305035662235       -0.29536344055246
H           -2.07230634197328        1.45414675391623        1.13660768194621
H           -3.08453634692884        2.57880669294332        0.67846734939579
H           -2.43274076675308        2.28332969739674       -0.74203697744637
S            0.12788523041075        2.73285980839596        0.08882306092766
H           -0.53768831231530        0.49314476655432        0.25532560365517
H           -0.86759824334144        1.18223696973974       -1.35830443822590
C           -3.53541382220773        0.62959170663172       -0.08855201922511
H           -4.02358089432605        0.10149406279851        0.74419193117552
H           -4.12903275188963        0.64688091179223       -1.00890353847216
11
 energy: -13.027118765809 gnorm: 0.122270504294 xtb: 6.7.1 (edcfbbe)
C           -2.67164877044060        1.68330664741477        0.18689975798835
C           -0.75585071901543        1.37480234443951       -0.30624015168039
H           -2.03367892878483        1.44633108262207        1.08747239545771
H           -3.13917353529576        2.59993068803349        0.70055954263882
H           -2.38677642507812        2.26228583827111       -0.73562842111536
S            0.13941864775026        2.71733635488679        0.08537326418336
H           -0.50706843647234        0.49741455866422        0.26432321081467
H           -0.84056056334011        1.19490977005376       -1.36377421464895
C           -3.61575786643516        0.70147894177447       -0.05911347451290
H           -4.02953758992915        0.05441978144871        0.74384214566050
H           -4.15283481295875        0.60863499239109       -1.01820805478581
11
 energy: -13.055176239073 gnorm: 0.144898560788 xtb: 6.7.1 (edcfbbe)
C           -2.81731887976486        1.72654460576305        0.22282813498662
C           -0.52720227044033        1.36848666702003       -0.34731744573140
H           -2.00752325726334        1.44167206305899        0.99180923687103
H           -3.22764117040311        2.64607254369007        0.74624386463162
H           -2.34676219577421        2.20393813017368       -0.69199489483879
S            0.15818652160537        2.71491468751677        0.08265143225202
H           -0.47021223835116        0.48183160683324        0.28270886355749
H           -0.82132286664870        1.20274685630156       -1.38635713739519
C           -3.76878000660622        0.77623048083980       -0.01966584801932
H           -4.01697733804797        0.01519723398592        0.72695861664305
H           -4.14791529830546        0.56321612481688       -1.02235882295712
11
 energy: -13.071300917816 gnorm: 0.046161112262 xtb: 6.7.1 (edcfbbe)
C           -2.82417249654398        1.76289615163892        0.23664088539146
C           -0.41055527007589        1.33814533657055       -0.38463249388120
H           -2.07353600828478        1.46924580055215        0.98236594453208
H           -3.21424718776241        2.66728091092200        0.75089792275505
H           -2.39522827496331        2.21034081324453       -0.64720021458468
S            0.16927643433342        2.76838611731380        0.10380252323049
H           -0.45338408664941        0.44683636267521        0.26337362020789
H           -0.80005942176356        1.16369623925473       -1.40337164614928
C           -3.82302603452473        0.74712626525966       -0.02427203520588
H           -4.01358314942620        0.00707384441840        0.71502609766292
H           -4.15495350433915        0.55982315815003       -1.00712460395884
11
 energy: -13.079447378618 gnorm: 0.035805638934 xtb: 6.7.1 (edcfbbe)
C           -2.89657567713326        1.81698871555293        0.27161815887963
C           -0.34058505792665        1.33819274564074       -0.39929701341446
H           -2.14843826196041        1.47101407925414        0.97528341209409
H           -3.32917419986356        2.68144217102147        0.78321423672197
H           -2.44716057786198        2.20989845142369       -0.62391967311863
S            0.31488175771851        2.72772461063120        0.06374692360782
H           -0.35642319985480        0.45473367986614        0.21231257199489
H           -0.70444923464697        1.16412626486423       -1.40028170021924
C           -3.88039008170223        0.77319877455034        0.00502716014345
H           -4.04272576820748       -0.01777652528251        0.72298461578930
H           -4.16242869856117        0.52130803247763       -1.02518269247879
11
 energy: -13.079263864411 gnorm: 0.076815522553 xtb: 6.7.1 (edcfbbe)
C           -2.97258705772587        1.83795356852180        0.28819287030055
C           -0.28300945093695        1.32889962651172       -0.41039341294820
H           -2.17058983938264        1.44654698655757        0.95157061822068
H           -3.45057265123730        2.67495243732411        0.79188294530898
H           -2.47288160695209        2.18025633200384       -0.63874297330994
S            0.40187919489228        2.71554571725651        0.03891590223536
H           -0.28055257153722        0.47047482703820        0.22263553045812
H           -0.61542160465811        1.16114999673460       -1.40409787239777
C           -3.91179400760755        0.75405917365629       -0.01035865395463
H           -4.02725823184786       -0.02525193248362        0.72086245884893
H           -4.21068117300668        0.59626426687899       -0.96496141276208
11
 energy: -13.081837437420 gnorm: 0.060998858174 xtb: 6.7.1 (edcfbbe)
C           -2.97896575793394        1.83875572667244        0.30448959951206
C           -0.24700375137793        1.32331003893282       -0.42812337842604
H           -2.17527828927169        1.45205109780060        0.96375564918225
H           -3.46250986635852        2.67462140998523        0.81037847460288
H           -2.51339964724810        2.18403939046952       -0.61430466635021
S            0.44477363025035        2.71173957102490        0.03621335209341
H           -0.27144917567995        0.45858810683372        0.22452612634765
H           -0.63002257124881        1.18922623943687       -1.43472388357201
C           -3.91341320226838        0.74960448324610        0.01605626863352
H           -4.07910646447906        0.02923315760201        0.72271453227568
H           -4.16709390438397        0.52968177799579       -1.01547607429920
11
 energy: -13.073414143023 gnorm: 0.101825641857 xtb: 6.7.1 (edcfbbe)
C           -2.94891371708907        1.84588581500493        0.28652732720816
C           -0.20930287517284        1.31521223692561       -0.42552538028079
H           -2.23240953574276        1.50728744701517        0.97739938451549
H           -3.41879605536249        2.69754560836984        0.79521668483991
H           -2.56051697169620        2.23492940825870       -0.59680279435716
S            0.49567239251147        2.70425064790274        0.02395669905101
H           -0.28539378662781        0.44450627533619        0.27149735290774
H           -0.64510726067406        1.18196290228550       -1.44443316498118
C           -3.92014576514765        0.79712169794097        0.00178344091167
H           -4.03857624982222       -0.11730224853749        0.72963268044930
H           -4.22997917517638        0.52945120949785       -1.03374623026414
11
 energy: -13.084538368321 gnorm: 0.020671877431 xtb: 6.7.1 (edcfbbe)
C           -2.97977296482675        1.84044320873223        0.29729802027537
C           -0.23869015829525        1.32440087607850       -0.41913534170725
H           -2.21524919003535        1.48761536629661        0.98042521011316
H           -3.44739248708622        2.69043366214285        0.80363221792683
H           -2.53388730962653        2.22331604854031       -0.61407129105475
S            0.49678806174438        2.69601763665228        0.01804970883673
H           -0.25706592089053        0.46164479719755        0.23417788881523
H           -0.61688778345972        1.18736996059301       -1.42670282479980
C           -3.91503108557862        0.74413741390537       -0.00104518220921
H           -4.06848694921647       -0.05396252097385        0.72524497208335
H           -4.21779321272891        0.53943455083514       -1.01236737827965
11
 energy: -13.085303201331 gnorm: 0.021719242361 xtb: 6.7.1 (edcfbbe)
C           -3.00348691398272        1.83716597519173        0.29810633586293
C           -0.19521145656124        1.32621699462396       -0.42914149086228
H           -2.20620265951690        1.48300518867437        0.96520132216906
H           -3.50730409415006        2.66223896897121        0.81032068518282
H           -2.56660974994642        2.21784626657867       -0.60520493203092
S            0.54020004237102        2.69206528856415        0.01245563185699
H           -0.23799334674498        0.46803598520913        0.23626039102386
H           -0.58504881501052        1.18750470930984       -1.42845085183556
C           -3.92568286262976        0.74061473927959        0.00262801614605
H           -4.08273864009437       -0.02040815298762        0.72372073590679
H           -4.22339050373403        0.54656503658497       -1.00038984341972
11
 energy: -13.085920807934 gnorm: 0.017055219532 xtb: 6.7.1 (edcfbbe)
C           -3.01772466087290        1.83517729756812        0.30435429690507
C           -0.16661771480724        1.32306916645494       -0.43070369666978
H           -2.22787806779902        1.49608499624522        0.97315139431632
H           -3.53016828934762        2.65888698393422        0.81124941454275
H           -2.55670872354754        2.22261705210252       -0.60798888268805
S            0.57247148508367        2.69370073309250        0.00717648379112
H           -0.20454782379249        0.46313004588119        0.22259933187722
H           -0.57814555017529        1.19942158940057       -1.43004248305187
C           -3.93795799178503        0.73407861120664        0.00718866072579
H           -4.10546105619596       -0.02632053690023        0.72843713227940
H           -4.24073060676057        0.54100506101432       -0.99991565202797
11
 energy: -13.086762940467 gnorm: 0.012919565060 xtb: 6.7.1 (edcfbbe)
C           -3.03973982919802        1.83412965480457        0.30468984910008
C           -0.13217520924581        1.32239274494513       -0.43615347279771
H           -2.24196122818278        1.51843699275612        0.98143106303705
H           -3.55200495269588        2.65608392194877        0.82001899413870
H           -2.59811607979781        2.25410599894414       -0.60177844786124
S            0.63434498111696        2.68266487570149       -0.00545780425250
H           -0.16866178347029        0.46793220943072        0.21928557600564
H           -0.53397111939525        1.19928519436848       -1.42897681384257
C           -3.94725798009816        0.71796548178234        0.00253945853180
H           -4.13547017778256       -0.04406755131226        0.73450502416579
H           -4.27845562125039        0.53192147663051       -1.00459742622503
11
 energy: -13.087466400797 gnorm: 0.008224329293 xtb: 6.7.1 (edcfbbe)
C           -3.06977842417383        1.83405771735575        0.30670038290836
C           -0.07079638542914        1.31969170438264       -0.44231823005201
H           -2.27108961193728        1.54247786003000        0.98620886206292
H           -3.60715084048862        2.63917035270802        0.82818568822610
H           -2.64669986848610        2.27971716434598       -0.59450726125654
S            0.71470262398673        2.66550202683910       -0.02361268236994
H           -0.12672711502363        0.46767198107854        0.21816571642689
H           -0.50567379655627        1.20548163458677       -1.42840462054915
C           -3.94759384323544        0.70064299120788       -0.00288707280645
H           -4.15626108037807       -0.04756817099051        0.73869712738585
H           -4.30640065827833        0.53400573845583       -1.00072190997602
11
 energy: -13.087775256037 gnorm: 0.010356047434 xtb: 6.7.1 (edcfbbe)
C           -3.11378733696553        1.84405501714162        0.31003504830438
C            0.00780183988627        1.31058932989439       -0.45693751240050
H           -2.27957536359253        1.56769672215088        0.97883025927180
H           -3.68762061454426        2.61754980707248        0.84636444088978
H           -2.70513612235265        2.31116266974272       -0.58726920210686
S            0.80087212273824        2.65141497937984       -0.03599553872452
H           -0.08252082917139        0.46439276098425        0.21905113085346
H           -0.45676024750636        1.20234830979635       -1.43022585890338
C           -3.95314478632903        0.68592077475744       -0.00741057329615
H           -4.18026475585342       -0.04842595246123        0.74576571196371
H           -4.34333290630934        0.53414658154126       -0.99670190585172
11
 energy: -13.087948513168 gnorm: 0.005088126087 xtb: 6.7.1 (edcfbbe)
C           -3.12889166618363        1.84335698761211        0.31095891473936
C            0.03413734631857        1.30413285168870       -0.46117520169352
H           -2.30619191040398        1.58041433192131        0.98117046571488
H           -3.71556412784001        2.60332574733415        0.85040117297237
H           -2.73478512216833        2.32220854169707       -0.58227409217675
S            0.83090394526389        2.64100473314163       -0.04352667632642
H           -0.04768589723561        0.46269940598485        0.20973935018844
H           -0.42971233930044        1.20362073032257       -1.42976440109292
C           -3.94979470650447        0.67721965005655       -0.00973832242362
H           -4.18894451867258       -0.03761349378980        0.75067573815997
H           -4.35694000327340        0.54048151403086       -0.99096094806180
11
 energy: -13.087976083033 gnorm: 0.002497107963 xtb: 6.7.1 (edcfbbe)
C           -3.13481466993335        1.84993831880993        0.31355931620280
C            0.03935535446874        1.30257331570210       -0.46060576209537
H           -2.30879029337444        1.58721712365428        0.98091474378426
H           -3.72161988637068        2.60599183663162        0.85346550086392
H           -2.74178072071162        2.32828434404789       -0.58044281363556
S            0.84334905300431        2.63599263192940       -0.04648809024302
H           -0.04431104682902        0.45998745131704        0.21021593394851
H           -0.43289530470742        1.20390049792276       -1.42927638990886
C           -3.94614147154568        0.67336199113407       -0.01164930109469
H           -4.18918622559724       -0.04278670364561        0.74766164649797
H           -4.35663378840357        0.53639019249654       -0.99184878431997
11
 energy: -13.087987180308 gnorm: 0.001534503172 xtb: 6.7.1 (edcfbbe)
C           -3.13707857702932        1.85064455358215        0.31275564919310
C            0.04329221641096        1.30176061559857       -0.46098630968167
H           -2.30820662189448        1.58940817811062        0.97797360855859
H           -3.72699119096899        2.60195913442700        0.85510364036501
H           -2.74502886348464        2.33084519533681       -0.58090054202179
S            0.84689270286718        2.63591628537571       -0.04640324732682
H           -0.03938528231186        0.45852201183439        0.21045600234458
H           -0.42774774030533        1.20351129741914       -1.42950622215386
C           -3.94747333291457        0.67391902729105       -0.01116487857442
H           -4.19151904798414       -0.04285998889755        0.74941928653474
H           -4.36022326238480        0.53722468992212       -0.99124098723746
11
 energy: -13.087997880812 gnorm: 0.002024860932 xtb: 6.7.1 (edcfbbe)
C           -3.14031834464689        1.85235809701603        0.31183102610597
C            0.04679390845315        1.29980572575253       -0.45975837054467
H           -2.30681998718868        1.59381789841570        0.97242306164853
H           -3.73249146532057        2.59695726373791        0.85875926947855
H           -2.75208219756171        2.33519540361411       -0.58142819161921
S            0.84888316490731        2.63513385967000       -0.04573384431242
H           -0.02982784931458        0.45484907174087        0.20997989992228
H           -0.42383753420455        1.20135893313275       -1.42816208618509
C           -3.94764316477302        0.67432985158259       -0.01201547262105
H           -4.19255071692782       -0.04060487559746        0.75072514179158
H           -4.36357481342263        0.53764977093499       -0.99111443366446
11
 energy: -13.088012245259 gnorm: 0.002180983761 xtb: 6.7.1 (edcfbbe)
C           -3.14208107124277        1.85514290182181        0.30970720605905
C            0.04711667270168        1.29747301939185       -0.45776630244936
H           -2.30408257030459        1.59727893578660        0.96438409756159
H           -3.73456340539248        2.59348132190508        0.86393354936768
H           -2.75928122341352        2.34261650733802       -0.58293105720637
S            0.84597586360077        2.63467508221323       -0.04393748484644
H           -0.02239364589384        0.44961819759715        0.21024381417121
H           -0.42310506078989        1.19716597244545       -1.42591857300132
C           -3.94573185621887        0.67431686547783       -0.01277437088691
H           -4.19173314053951       -0.03819610266727        0.75160839981715
H           -4.36358956250696        0.53727829869026       -0.99104327858627
11
 energy: -13.088022297721 gnorm: 0.002031720673 xtb: 6.7.1 (edcfbbe)
C           -3.14103097795325        1.85504999755887        0.30973620516860
C            0.05326531856404        1.29375476588124       -0.46003633396451
H           -2.29722566442053        1.59549184859999        0.95569697404269
H           -3.72908689577346        2.59259880458178        0.87101887485845
H           -2.76825838102395        2.34775630269830       -0.58520529013867
S            0.83808184568387        2.63798942089567       -0.04192546227359
H           -0.01977406465530        0.44841299923830        0.21064682495356
H           -0.43128861812165        1.19807968340990       -1.42207785435278
C           -3.94630488996659        0.67464458327694       -0.01248849175772
H           -4.18791263000163       -0.04013900586925        0.75047737050346
H           -4.36393404233155        0.53721159972826       -0.99033681703951
11
 energy: -13.088087817367 gnorm: 0.006724429833 xtb: 6.7.1 (edcfbbe)
C           -3.13714139782750        1.85493777124756        0.30986124756732
C            0.03958744845592        1.29591617016860       -0.45155002932173
H           -2.26685558680555        1.58749029431249        0.91605701578490
H           -3.70505986391093        2.58791159737458        0.90416781681275
H           -2.80971135742362        2.37162101965373       -0.59510517622604
S            0.81604913726196        2.64658027707562       -0.03875777156142
H            0.00507268913351        0.43755970912837        0.20596954546218
H           -0.44907470715985        1.19409555465582       -1.41248474433111
C           -3.94938165438985        0.67636355859716       -0.01108983740556
H           -4.17137764717989       -0.04854512262052        0.74571731075339
H           -4.36557606015418        0.53692017040656       -0.98727937753469
11
 energy: -13.088167621508 gnorm: 0.006240979752 xtb: 6.7.1 (edcfbbe)
C           -3.13568585335498        1.85605780665696        0.30611700754739
C            0.03429573584315        1.29575722619618       -0.44815628967266
H           -2.25064328818735        1.58390999135453        0.89002586137792
H           -3.69324732445728        2.57792890957660        0.92408200797089
H           -2.82735915282793        2.38399209774320       -0.59898764732252
S            0.80424860501566        2.65100870084929       -0.03790823844179
H            0.01677672280274        0.43261445709301        0.20457213736624
H           -0.46227186256543        1.19350030647008       -1.40485631518186
C           -3.94902571158352        0.67816789622196       -0.01038988009011
H           -4.16146598553031       -0.05078644959444        0.74623622051891
H           -4.36909088515474        0.53870005743261       -0.98522886407241
11
 energy: -13.088300220992 gnorm: 0.021312586777 xtb: 6.7.1 (edcfbbe)
C           -3.12283743896339        1.86275763156531        0.27681544631357
C           -0.00340825845846        1.29447561380387       -0.42489978288434
H           -2.13656113743454        1.56088383610216        0.70691066953924
H           -3.60670997372426        2.49950433443830        1.05924560927666
H           -2.94212474807463        2.46740814786099       -0.62090626971702
S            0.72936474460687        2.67845799867121       -0.03629066049278
H            0.08819929664549        0.40434930423075        0.19870506514413
H           -0.56067108642169        1.19190836495452       -1.34823445251341
C           -3.94273439641946        0.68964955706226       -0.00717476945637
H           -4.10471288676507       -0.05555572302724        0.75377194963635
H           -4.39127311499085        0.54701193433772       -0.97243680484604
11
 energy: -13.088452904153 gnorm: 0.014714895795 xtb: 6.7.1 (edcfbbe)
C           -3.12385018064212        1.86090852915744        0.27598303798667
C           -0.00072010217111        1.29590760914869       -0.42960696684277
H           -2.17663634207601        1.57463950586033        0.75589687923126
H           -3.62625771359513        2.50249789295685        1.00874143791171
H           -2.88418418576487        2.43500652319156       -0.60123751775375
S            0.75200061098172        2.66903523132497       -0.04288996400299
H            0.06186052796772        0.41808398810001        0.20221627164429
H           -0.54747486811716        1.19477191581244       -1.35499641334877
C           -3.93560687383035        0.68674814914927       -0.00995846047250
H           -4.13351070835230       -0.03818592482049        0.76049959293851
H           -4.37908916440037        0.54143758011882       -0.97914189729166
11
 energy: -13.088739936443 gnorm: 0.006879740193 xtb: 6.7.1 (edcfbbe)
C           -3.12053226982467        1.85927843698462        0.28043558956306
C           -0.00644049903614        1.29700345997266       -0.42604904450050
H           -2.16258551683690        1.56758072538178        0.74085330364716
H           -3.61056671770371        2.50692571680239        1.02383911916314
H           -2.91041494552295        2.44888152105335       -0.60958324898990
S            0.74129713860433        2.67374010166597       -0.04150215320907
H            0.06437464508150        0.41682749294456        0.20316768463507
H           -0.55048782458165        1.18965008013227       -1.35360150236231
C           -3.93973386615768        0.68771586788853       -0.00861167393237
H           -4.12646677580078       -0.04553933088811        0.75606759468609
H           -4.37191236822133        0.53878692806187       -0.97950966870038
11
 energy: -13.088949342308 gnorm: 0.015094391311 xtb: 6.7.1 (edcfbbe)
C           -3.10980790710020        1.85964477591102        0.26997712829024
C           -0.03153541911175        1.29842011245242       -0.41258673371907
H           -2.10983885681831        1.55438056545173        0.65480335065450
H           -3.55518146649348        2.47415993840084        1.08058615518759
H           -2.96207166878331        2.48473618347795       -0.61640345477786
S            0.70629993651836        2.68678582401647       -0.04529743322580
H            0.08424429173758        0.41167109221305        0.20593275090527
H           -0.60039155663485        1.18531239126075       -1.32577205319855
C           -3.93743823148295        0.69331677022482       -0.00721197483981
H           -4.11283318967478       -0.04137920140938        0.76008826863163
H           -4.36491493215628        0.53380254800016       -0.97861000390814
11
 energy: -13.089236355539 gnorm: 0.013891844546 xtb: 6.7.1 (edcfbbe)
C           -3.10076487867710        1.85801849485380        0.26687551131901
C           -0.05048086903309        1.30067025391964       -0.40430188628981
H           -2.08729417572522        1.54741770392683        0.61568992708846
H           -3.51871971923430        2.45981110446307        1.09883170986640
H           -2.97915894990615        2.49714750553999       -0.61462251138513
S            0.68828342547362        2.69349958754289       -0.05070154578353
H            0.07959756944516        0.41662924642219        0.21269700756017
H           -0.62576527507755        1.18016357624630       -1.31238921715413
C           -3.93505983579696        0.69612374044171       -0.00697337692732
H           -4.11833854741934       -0.03233620221986        0.76363480412863
H           -4.34576774404906        0.52370598886326       -0.98323442242275
11
 energy: -13.090243194415 gnorm: 0.008451761170 xtb: 6.7.1 (edcfbbe)
C           -3.06928971212735        1.85152145975661        0.26154228244019
C           -0.11831659956860        1.30964585103761       -0.37808974447180
H           -2.03238821006349        1.53008863162608        0.50630404707559
H           -3.39815410297891        2.41610957774878        1.13177230171951
H           -3.00647978756142        2.52165978806724       -0.59202308449345
S            0.63549965775737        2.71243021248339       -0.07195870482634
H            0.03424823328409        0.44560326548671        0.24467413437202
H           -0.69390397106138        1.16116643053149       -1.27986084253357
C           -3.92235008652671        0.70305199614806       -0.00847736726946
H           -4.17146950186083        0.01748948526635        0.78033961154401
H           -4.25086491929277        0.47208430184747       -1.00871663355667
11
 energy: -13.090044963395 gnorm: 0.028148433041 xtb: 6.7.1 (edcfbbe)
C           -3.03448267994139        1.84778330307252        0.24193220670878
C           -0.20795702627840        1.31927350604598       -0.34088927921365
H           -1.92785831854070        1.50647208074600        0.30075086882732
H           -3.23313483171413        2.32538560038104        1.23340364307287
H           -3.09124462570281        2.59080335391185       -0.57188476501665
S            0.54318916949618        2.74479307977000       -0.08883517886157
H            0.01121347177693        0.46471511669799        0.27825518878882
H           -0.78145766879974        1.13424552742475       -1.23527956743124
C           -3.90263528569399        0.71344006323868       -0.00893171617264
H           -4.21224216291354        0.07416105434502        0.80212636501452
H           -4.15685904168841        0.41977831436587       -1.02514176571649
11
 energy: -13.091547279806 gnorm: 0.007848569326 xtb: 6.7.1 (edcfbbe)
C           -3.04499292406415        1.84785426037375        0.25096665672592
C           -0.19836887671868        1.31838818485026       -0.34914117453143
H           -1.96006957603659        1.52700579646873        0.35453335929375
H           -3.28358275598027        2.33659035073682        1.19904088046757
H           -3.06336243074408        2.57489102865734       -0.56276595812577
S            0.53538492849857        2.74785582013881       -0.07524600719383
H           -0.00005165254405        0.46387341236285        0.28104622253982
H           -0.70988105138962        1.12073950778356       -1.27694690988716
C           -3.89011326515506        0.70404701820872       -0.01276454927645
H           -4.21379620888649        0.06728242019806        0.79113988053826
H           -4.16463518697958        0.43232320022083       -1.01435640055064
11
 energy: -13.092652359519 gnorm: 0.011456063690 xtb: 6.7.1 (edcfbbe)
C           -3.03542616270723        1.84550707446915        0.25339804932909
C           -0.25247364487466        1.32442002003905       -0.33384101669751