 Entering Gaussian System
 *********************************************
 Gaussian 98:
 frequency output generated by the xtb code
 *********************************************
                         Standard orientation:
 --------------------------------------------------------------------
  Center     Atomic     Atomic              Coordinates (Angstroms)
  Number     Number      Type              X           Y           Z
 --------------------------------------------------------------------
    1          8             0       -2.943743   -4.480674    2.791837
    2          8             0       -4.171467   -5.224927    2.541947
    3          1             0       -2.404791   -4.779369    2.051959
 --------------------------------------------------------------------
     1 basis functions        1 primitive gaussians
     1 alpha electrons        1 beta electrons
 
 Harmonic frequencies (cm**-1), IR intensities (km*mol⁻¹),
 Raman scattering activities (A**4/amu), Raman depolarization ratios,
 reduced masses (AMU), force constants (mDyne/A) and normal coordinates:
                      1                      2                      3
                        a                      a                      a 
 Frequencies --   998.3083              1169.1210              3539.1029
 Red. masses --    15.5457                 2.7699                 1.9185
 Frc consts  --     0.0000                 0.0000                 0.0000
 IR Inten    --    17.7338                37.6264                21.1381
 Raman Activ --     0.0000                 0.0000                 0.0000
 Depolar     --     0.0000                 0.0000                 0.0000
 Atom AN      X      Y      Z        X      Y      Z        X      Y      Z
   1   8    -0.59  -0.38  -0.15     0.08  -0.07  -0.15     0.12  -0.09  -0.19
   2   8     0.56   0.36   0.14    -0.27  -0.06   0.08     0.01   0.01   0.01
   3   1     0.13   0.10   0.05     0.74   0.52   0.24    -0.52   0.32   0.75
