      -----------------------------------------------------------      
     |                   =====================                   |     
     |                           x T B                           |     
     |                   =====================                   |     
     |                         S. Grimme                         |     
     |          Mulliken Center for Theoretical Chemistry        |     
     |                    University of Bonn                     |     
      -----------------------------------------------------------      

   * xtb version 6.7.1 (edcfbbe) compiled by 'albert@albert-system' on 2024-07-22

   xtb is free software: you can redistribute it and/or modify it under
   the terms of the GNU Lesser General Public License as published by
   the Free Software Foundation, either version 3 of the License, or
   (at your option) any later version.
   
   xtb is distributed in the hope that it will be useful,
   but WITHOUT ANY WARRANTY; without even the implied warranty of
   MERCHANTABILITY or FITNESS FOR A PARTICULAR PURPOSE.  See the
   GNU Lesser General Public License for more details.
   
   Cite this work as:
   * C. Bannwarth, E. Caldeweyher, S. Ehlert, A. Hansen, P. Pracht,
     J. Seibert, S. Spicher, S. Grimme, WIREs Comput. Mol. Sci., 2020, 11,
     e01493. DOI: 10.1002/wcms.1493
   
   for GFN2-xTB:
   * C. Bannwarth, S. Ehlert and S. Grimme., J. Chem. Theory Comput., 2019,
     15, 1652-1671. DOI: 10.1021/acs.jctc.8b01176
   for GFN1-xTB:
   * S. Grimme, C. Bannwarth, P. Shushkov, J. Chem. Theory Comput., 2017,
     13, 1989-2009. DOI: 10.1021/acs.jctc.7b00118
   for GFN0-xTB:
   * P. Pracht, E. Caldeweyher, S. Ehlert, S. Grimme, ChemRxiv, 2019, preprint.
     DOI: 10.26434/chemrxiv.8326202.v1
   for GFN-FF:
   * S. Spicher and S. Grimme, Angew. Chem. Int. Ed., 2020, 59, 15665-15673.
     DOI: 10.1002/anie.202004239
   
   for ALPB and GBSA implicit solvation:
   * S. Ehlert, M. Stahn, S. Spicher, S. Grimme, J. Chem. Theory Comput.,
     2021, 17, 4250-4261. DOI: 10.1021/acs.jctc.1c00471
   
   for ddCOSMO and CPCM-X implicit solvation:
   * M. Stahn, S. Ehlert, S. Grimme, J. Phys. Chem. A,
     2023, XX, XXXX-XXXX. DOI: 10.1021/acs.jpca.3c04382
   
   for DFT-D4:
   * E. Caldeweyher, C. Bannwarth and S. Grimme, J. Chem. Phys., 2017,
     147, 034112. DOI: 10.1063/1.4993215
   * E. Caldeweyher, S. Ehlert, A. Hansen, H. Neugebauer, S. Spicher,
     C. Bannwarth and S. Grimme, J. Chem. Phys., 2019, 150, 154122.
     DOI: 10.1063/1.5090222
   * E. Caldeweyher, J.-M. Mewes, S. Ehlert and S. Grimme, Phys. Chem. Chem. Phys.
     2020, 22, 8499-8512. DOI: 10.1039/D0CP00502A
   
   for sTDA-xTB:
   * S. Grimme and C. Bannwarth, J. Chem. Phys., 2016, 145, 054103.
     DOI: 10.1063/1.4959605
   
   in the mass-spec context:
   * V. Asgeirsson, C. Bauer and S. Grimme, Chem. Sci., 2017, 8, 4879.
     DOI: 10.1039/c7sc00601b
   * J. Koopman and S. Grimme, ACS Omega 2019, 4, 12, 15120-15133.
     DOI: 10.1021/acsomega.9b02011
   
   for metadynamics refer to:
   * S. Grimme, J. Chem. Theory Comput., 2019, 155, 2847-2862
     DOI: 10.1021/acs.jctc.9b00143
   
   for SPH calculations refer to:
   * S. Spicher and S. Grimme, J. Chem. Theory Comput., 2021, 17, 1701-1714
     DOI: 10.1021/acs.jctc.0c01306
   
   for ONIOM refer to:
   * C. Plett, A. Katbashev, S. Ehlert, S. Grimme, M. Bursch,
     Phys. Chem. Chem. Phys., 2023, 25, 17860-17868. DOI: 10.1039/D3CP02178E
   
   for DIPRO refer to:
   * J. Kohn, N. Gildemeister, S. Grimme, D. Fazzi, A. Hansen,
     J. Chem. Phys., 2023, just accepted.
   
   for PTB refer to:
   * S. Grimme, M. Mueller, A. Hansen, J. Chem. Phys., 2023, 158, 124111.
     DOI: 10.1063/5.0137838
   
   with help from (in alphabetical order)
   P. Atkinson, C. Bannwarth, F. Bohle, G. Brandenburg, E. Caldeweyher
   M. Checinski, S. Dohm, S. Ehlert, S. Ehrlich, I. Gerasimov, C. Hölzer
   A. Katbashev, J. Kohn, J. Koopman, C. Lavigne, S. Lehtola, F. März, M. Müller,
   F. Musil, H. Neugebauer, J. Pisarek, C. Plett, P. Pracht, F. Pultar,
   J. Seibert, P. Shushkov, S. Spicher, M. Stahn, M. Steiner, T. Strunk,
   J. Stückrath, T. Rose, and J. Unsleber
   
 * started run on 2025/10/18 at 04:59:44.917     
   ID    Z sym.   atoms
    1    8 O      1, 2
    2    1 H      3

           -------------------------------------------------
          |                Calculation Setup                |
           -------------------------------------------------

          program call               : xtb xyz.xyz --charge -1 --ohess
          hostname                   : m003
          coordinate file            : xyz.xyz
          omp threads                :                     2


           -------------------------------------------------
          |                 G F N 2 - x T B                 |
           -------------------------------------------------

        Reference                      10.1021/acs.jctc.8b01176
      * Hamiltonian:
        H0-scaling (s, p, d)           1.850000    2.230000    2.230000
        zeta-weighting                 0.500000
      * Dispersion:
        s8                             2.700000
        a1                             0.520000
        a2                             5.000000
        s9                             5.000000
      * Repulsion:
        kExp                           1.500000    1.000000
        rExp                           1.000000
      * Coulomb:
        alpha                          2.000000
        third order                    shell-resolved
        anisotropic                    true
        a3                             3.000000
        a5                             4.000000
        cn-shift                       1.200000
        cn-exp                         4.000000
        max-rad                        5.000000


          ...................................................
          :                      SETUP                      :
          :.................................................:
          :  # basis functions                   9          :
          :  # atomic orbitals                   9          :
          :  # shells                            5          :
          :  # electrons                        14          :
          :  max. iterations                   250          :
          :  Hamiltonian                  GFN2-xTB          :
          :  restarted?                      false          :
          :  GBSA solvation                  false          :
          :  PC potential                    false          :
          :  electronic temp.          300.0000000     K    :
          :  accuracy                    1.0000000          :
          :  -> integral cutoff          0.2500000E+02      :
          :  -> integral neglect         0.1000000E-07      :
          :  -> SCF convergence          0.1000000E-05 Eh   :
          :  -> wf. convergence          0.1000000E-03 e    :
          :  Broyden damping             0.4000000          :
          :  net charge                         -1          :
          :  unpaired electrons                  0          :
          ...................................................

 iter      E             dE          RMSdq      gap      omega  full diag
   1     -8.7078706 -0.870787E+01  0.672E+00    7.76       0.0  T
   2     -8.7201006 -0.122300E-01  0.402E+00    7.46       1.0  T
   3     -8.7215926 -0.149195E-02  0.113E+00    7.24       1.0  T
   4     -8.7218968 -0.304281E-03  0.256E-01    7.34       1.0  T
   5     -8.7219411 -0.442595E-04  0.103E-01    7.36       1.0  T
   6     -8.7219518 -0.107479E-04  0.465E-02    7.38       1.2  T
   7     -8.7219536 -0.174528E-05  0.600E-03    7.38       9.6  T
   8     -8.7219536 -0.604005E-08  0.112E-03    7.38      51.5  T
   9     -8.7219536 -0.398478E-09  0.308E-04    7.38     187.4  T
  10     -8.7219536 -0.104095E-10  0.602E-06    7.38    9597.9  T

   *** convergence criteria satisfied after 10 iterations ***

         #    Occupation            Energy/Eh            Energy/eV
      -------------------------------------------------------------
         1        2.0000           -0.4151874             -11.2978
         2        2.0000           -0.3328437              -9.0571
         3        2.0000           -0.2888755              -7.8607
         4        2.0000           -0.2219873              -6.0406
         5        2.0000           -0.2117670              -5.7625
         6        2.0000           -0.0714411              -1.9440
         7        2.0000           -0.0542658              -1.4766 (HOMO)
         8                          0.2169008               5.9022 (LUMO)
         9                          0.3911701              10.6443
      -------------------------------------------------------------
                  HL-Gap            0.2711666 Eh            7.3788 eV
             Fermi-level            0.0813175 Eh            2.2128 eV

 SCC (total)                   0 d,  0 h,  0 min,  0.026 sec
 SCC setup                      ...        0 min,  0.000 sec (  0.528%)
 Dispersion                     ...        0 min,  0.000 sec (  0.130%)
 classical contributions        ...        0 min,  0.000 sec (  0.094%)
 integral evaluation            ...        0 min,  0.000 sec (  0.634%)
 iterations                     ...        0 min,  0.025 sec ( 97.544%)
 molecular gradient             ...        0 min,  0.000 sec (  0.708%)
 printout                       ...        0 min,  0.000 sec (  0.269%)

         :::::::::::::::::::::::::::::::::::::::::::::::::::::
         ::                     SUMMARY                     ::
         :::::::::::::::::::::::::::::::::::::::::::::::::::::
         :: total energy              -8.705899431683 Eh    ::
         :: gradient norm              0.054831583454 Eh/a0 ::
         :: HOMO-LUMO gap              7.378817886147 eV    ::
         ::.................................................::
         :: SCC energy                -8.721953601343 Eh    ::
         :: -> isotropic ES            0.255121056233 Eh    ::
         :: -> anisotropic ES         -0.018181314333 Eh    ::
         :: -> anisotropic XC         -0.011095258042 Eh    ::
         :: -> dispersion             -0.000489050844 Eh    ::
         :: repulsion energy           0.016054169660 Eh    ::
         :: add. restraining           0.000000000000 Eh    ::
         :: total charge              -1.000000000000 e     ::
         :::::::::::::::::::::::::::::::::::::::::::::::::::::

      ----------------------------------------------------------- 
     |                   =====================                   |
     |                        A N C O P T                        |
     |                   =====================                   |
     |               Approximate Normal Coordinate               |
     |                Rational Function Optimizer                |
      ----------------------------------------------------------- 
      ----------------------------------------------------------- 
     |                   =====================                   |
     |                        A N C O P T                        |
     |                   =====================                   |
     |               Approximate Normal Coordinate               |
     |                Rational Function Optimizer                |
      ----------------------------------------------------------- 

          ...................................................
          :                      SETUP                      :
          :.................................................:
          :   optimization level            normal          :
          :   max. optcycles                   200          :
          :   ANC micro-cycles                  20          :
          :   degrees of freedom                 3          :
          :.................................................:
          :   RF solver                   davidson          :
          :   write xtbopt.log                true          :
          :   linear?                        false          :
          :   energy convergence         0.5000000E-05 Eh   :
          :   grad. convergence          0.1000000E-02 Eh/α :
          :   maxmium RF displ.          1.0000000          :
          :   Hlow (freq-cutoff)         0.1000000E-01      :
          :   Hmax (freq-cutoff)         5.0000000          :
          :   S6 in model hess.         20.0000000          :
          ...................................................

generating ANC from exact Hessian ...
Using Lindh-Hessian (1995)
 Shifting diagonal of input Hessian by   0.000000000000000E+000
 Lowest  eigenvalues of input Hessian
    0.000000    0.000000    0.000000    0.000000    0.000000    0.000000
    0.218364    1.045245    1.372963
 Highest eigenvalues
    0.000000    0.000000    0.000000    0.218364    1.045245    1.372963
 

........................................................................
.............................. CYCLE    1 ..............................
........................................................................

 iter      E             dE          RMSdq      gap      omega  full diag
   1     -8.7219536 -0.872195E+01  0.296E-06    7.38       0.0  T
   2     -8.7219536  0.532907E-14  0.178E-06    7.38   32419.4  T
   3     -8.7219536 -0.177636E-14  0.228E-07    7.38  100000.0  T
     SCC iter.                  ...        0 min,  0.000 sec
     gradient                   ...        0 min,  0.000 sec
 * total energy  :    -8.7058994 Eh     change       -0.1243450E-13 Eh
   gradient norm :     0.0548316 Eh/α   predicted     0.0000000E+00 (-100.00%)
   displ. norm   :     0.0822020 α      lambda       -0.3441400E-02
   maximum displ.:     0.0679970 α      in ANC's #1, #2, #3, ...

........................................................................
.............................. CYCLE    2 ..............................
........................................................................

 iter      E             dE          RMSdq      gap      omega  full diag
   1     -8.7240404 -0.872404E+01  0.287E-01    6.94       0.0  T
   2     -8.7240501 -0.978469E-05  0.171E-01    6.95       1.0  T
   3     -8.7240511 -0.961043E-06  0.312E-02    6.95       1.8  T
   4     -8.7240513 -0.190542E-06  0.537E-03    6.95      10.8  T
   5     -8.7240513 -0.739679E-08  0.138E-03    6.95      42.0  T
   6     -8.7240513 -0.810878E-09  0.413E-04    6.95     139.8  T
   7     -8.7240513 -0.137009E-09  0.204E-04    6.95     283.1  T
     SCC iter.                  ...        0 min,  0.000 sec
     gradient                   ...        0 min,  0.000 sec
 * total energy  :    -8.7084074 Eh     change       -0.2507978E-02 Eh
   gradient norm :     0.0249186 Eh/α   predicted    -0.1732325E-02 ( -30.93%)
   displ. norm   :     0.0856559 α      lambda       -0.1545453E-02
   maximum displ.:     0.0769507 α      in ANC's #1, #2, #3, ...

........................................................................
.............................. CYCLE    3 ..............................
........................................................................

 iter      E             dE          RMSdq      gap      omega  full diag
   1     -8.7252335 -0.872523E+01  0.241E-01    6.57       0.0  T
   2     -8.7252442 -0.106438E-04  0.140E-01    6.57       1.0  T
   3     -8.7252451 -0.895776E-06  0.354E-02    6.58       1.6  T
   4     -8.7252452 -0.138302E-06  0.538E-03    6.57      10.7  T
   5     -8.7252452 -0.836540E-08  0.133E-03    6.57      43.5  T
   6     -8.7252452 -0.818906E-09  0.388E-04    6.57     148.9  T
   7     -8.7252452 -0.130912E-09  0.202E-04    6.57     285.9  T
     SCC iter.                  ...        0 min,  0.000 sec
     gradient                   ...        0 min,  0.000 sec
 * total energy  :    -8.7092670 Eh     change       -0.8596267E-03 Eh
   gradient norm :     0.0069351 Eh/α   predicted    -0.7783967E-03 (  -9.45%)
   displ. norm   :     0.0158839 α      lambda       -0.6643177E-04
   maximum displ.:     0.0139924 α      in ANC's #1, #3, #2, ...

........................................................................
.............................. CYCLE    4 ..............................
........................................................................

 iter      E             dE          RMSdq      gap      omega  full diag
   1     -8.7259048 -0.872590E+01  0.424E-02    6.53       0.0  T
   2     -8.7259054 -0.584816E-06  0.213E-02    6.53       2.7  T
   3     -8.7259054 -0.527806E-07  0.697E-03    6.53       8.3  T
   4     -8.7259054 -0.384658E-08  0.152E-03    6.53      37.9  T
   5     -8.7259054 -0.497263E-09  0.250E-04    6.53     231.2  T
   6     -8.7259054 -0.663647E-11  0.220E-05    6.53    2622.4  T
     SCC iter.                  ...        0 min,  0.000 sec
     gradient                   ...        0 min,  0.000 sec
 * total energy  :    -8.7093083 Eh     change       -0.4127081E-04 Eh
   gradient norm :     0.0023220 Eh/α   predicted    -0.3322568E-04 ( -19.49%)
   displ. norm   :     0.0047173 α      lambda       -0.7371306E-05
   maximum displ.:     0.0038393 α      in ANC's #1, #3, #2, ...

........................................................................
.............................. CYCLE    5 ..............................
........................................................................

 iter      E             dE          RMSdq      gap      omega  full diag
   1     -8.7262120 -0.872621E+01  0.133E-02    6.53       0.0  T
   2     -8.7262120 -0.288353E-07  0.709E-03    6.53       8.1  T
   3     -8.7262120 -0.710971E-08  0.146E-03    6.53      39.5  T
   4     -8.7262120 -0.295074E-09  0.524E-04    6.53     110.1  T
   5     -8.7262120 -0.676561E-10  0.120E-04    6.53     481.2  T
     SCC iter.                  ...        0 min,  0.000 sec
     gradient                   ...        0 min,  0.000 sec
 * total energy  :    -8.7093122 Eh     change       -0.3883019E-05 Eh
   gradient norm :     0.0003351 Eh/α   predicted    -0.3683614E-05 (  -5.14%)
   displ. norm   :     0.0007184 α      lambda       -0.1429563E-06
   maximum displ.:     0.0005153 α      in ANC's #2, #1, #3, ...

   *** GEOMETRY OPTIMIZATION CONVERGED AFTER 5 ITERATIONS ***

------------------------------------------------------------------------
 total energy gain   :        -0.0034128 Eh       -2.1415 kcal/mol
 total RMSD          :         0.1068434 a0        0.0565 Å
 total power (kW/mol):        -1.7920390 (step)-2309.8821 (real)
------------------------------------------------------------------------

 ANCopt (total)                0 d,  0 h,  0 min,  0.004 sec
 optimizer setup                ...        0 min,  0.000 sec (  5.758%)
 model hessian                  ...        0 min,  0.000 sec (  1.825%)
 ANC generation                 ...        0 min,  0.000 sec (  1.152%)
 coordinate transformation      ...        0 min,  0.000 sec (  0.741%)
 single point calculation       ...        0 min,  0.003 sec ( 76.515%)
 optimization log               ...        0 min,  0.000 sec (  3.289%)
 hessian update                 ...        0 min,  0.000 sec (  0.827%)
 rational function              ...        0 min,  0.000 sec (  4.294%)

================
 final structure:
================
3
 xtb: 6.7.1 (edcfbbe)
O           -2.94372884919628       -4.48069387933473        2.79181822971222
O           -4.17144813419014       -5.22495249486929        2.54192289134059
H           -2.40477301661357       -4.77938462579597        2.05194187894719
 
 Bond Distances (Angstroems)
 ---------------------------
O1-O2=1.4573         O1-H3=0.9629         O2-O1=1.4573         H3-O1=0.9629         
 O  H  Rav=0.9629 sigma=0.0000  Rmin=0.9629  Rmax=0.9629     1
 O  O  Rav=1.4573 sigma=0.0000  Rmin=1.4573  Rmax=1.4573     1
 
 selected bond angles (degree)
 --------------------
H3-O1-O2=100.45                
 
 selected dihedral angles (degree)
 ---------------------------------

           -------------------------------------------------
          |                Final Singlepoint                |
           -------------------------------------------------

          ...................................................
          :                      SETUP                      :
          :.................................................:
          :  # basis functions                   9          :
          :  # atomic orbitals                   9          :
          :  # shells                            5          :
          :  # electrons                        14          :
          :  max. iterations                   250          :
          :  Hamiltonian                  GFN2-xTB          :
          :  restarted?                      false          :
          :  GBSA solvation                  false          :
          :  PC potential                    false          :
          :  electronic temp.          300.0000000     K    :
          :  accuracy                    1.0000000          :
          :  -> integral cutoff          0.2500000E+02      :
          :  -> integral neglect         0.1000000E-07      :
          :  -> SCF convergence          0.1000000E-05 Eh   :
          :  -> wf. convergence          0.1000000E-03 e    :
          :  Broyden damping             0.4000000          :
          :  net charge                         -1          :
          :  unpaired electrons                  0          :
          ...................................................

 iter      E             dE          RMSdq      gap      omega  full diag
   1     -8.7262120 -0.872621E+01  0.203E-05    6.53       0.0  T
   2     -8.7262120 -0.170530E-12  0.149E-05    6.53    3878.8  T
   3     -8.7262120 -0.223821E-12  0.225E-06    6.53   25616.9  T

   *** convergence criteria satisfied after 3 iterations ***

         #    Occupation            Energy/Eh            Energy/eV
      -------------------------------------------------------------
         1        2.0000           -0.4154106             -11.3039
         2        2.0000           -0.3266142              -8.8876
         3        2.0000           -0.2920813              -7.9479
         4        2.0000           -0.2240075              -6.0956
         5        2.0000           -0.2081445              -5.6639
         6        2.0000           -0.0775236              -2.1095
         7        2.0000           -0.0650224              -1.7693 (HOMO)
         8                          0.1748579               4.7581 (LUMO)
         9                          0.3922139              10.6727
      -------------------------------------------------------------
                  HL-Gap            0.2398803 Eh            6.5275 eV
             Fermi-level            0.0549178 Eh            1.4944 eV

 SCC (total)                   0 d,  0 h,  0 min,  0.001 sec
 SCC setup                      ...        0 min,  0.000 sec ( 10.788%)
 Dispersion                     ...        0 min,  0.000 sec (  2.697%)
 classical contributions        ...        0 min,  0.000 sec (  1.241%)
 integral evaluation            ...        0 min,  0.000 sec ( 14.341%)
 iterations                     ...        0 min,  0.000 sec ( 34.118%)
 molecular gradient             ...        0 min,  0.000 sec ( 24.229%)
 printout                       ...        0 min,  0.000 sec (  7.192%)

         :::::::::::::::::::::::::::::::::::::::::::::::::::::
         ::                     SUMMARY                     ::
         :::::::::::::::::::::::::::::::::::::::::::::::::::::
         :: total energy              -8.709312189800 Eh    ::
         :: gradient norm              0.000335696771 Eh/a0 ::
         :: HOMO-LUMO gap              6.527475129542 eV    ::
         ::.................................................::
         :: SCC energy                -8.726212007552 Eh    ::
         :: -> isotropic ES            0.253406854330 Eh    ::
         :: -> anisotropic ES         -0.017215263001 Eh    ::
         :: -> anisotropic XC         -0.008910161967 Eh    ::
         :: -> dispersion             -0.000485484719 Eh    ::
         :: repulsion energy           0.016899817751 Eh    ::
         :: add. restraining           0.000000000000 Eh    ::
         :: total charge              -1.000000000000 e     ::
         :::::::::::::::::::::::::::::::::::::::::::::::::::::

           ------------------------------------------------- 
          |                Numerical Hessian                |
           ------------------------------------------------- 
step length          :   0.00500
SCC accuracy         :   0.30000
Hessian scale factor :   1.00000
frozen atoms in %    :   0.00000    0
RMS gradient         :   0.00034
estimated CPU  time      0.00 min
estimated wall time      0.00 min

writing file <hessian>.

 projected vibrational frequencies (cm⁻¹)
eigval :       -0.00    -0.00    -0.00     0.00     0.00     0.00
eigval :      998.31  1169.12  3539.10
           -------------------------------------------------
          |                Property Printout                |
           -------------------------------------------------

    * Orbital Energies and Occupations

         #    Occupation            Energy/Eh            Energy/eV
      -------------------------------------------------------------
         1        2.0000           -0.4154105             -11.3039
         2        2.0000           -0.3266142              -8.8876
         3        2.0000           -0.2920813              -7.9479
         4        2.0000           -0.2240075              -6.0956
         5        2.0000           -0.2081445              -5.6639
         6        2.0000           -0.0775237              -2.1095
         7        2.0000           -0.0650224              -1.7693 (HOMO)
         8                          0.1748579               4.7581 (LUMO)
         9                          0.3922139              10.6727
      -------------------------------------------------------------
                  HL-Gap            0.2398803 Eh            6.5275 eV
             Fermi-level            0.0549178 Eh            1.4944 eV

     #   Z          covCN         q      C6AA      α(0)
     1   8 O        1.708    -0.481    22.476     6.401
     2   8 O        0.903    -0.727    29.427     7.274
     3   1 H        0.805     0.209     1.075     1.628

 Mol. C6AA /au·bohr⁶  :        125.088877
 Mol. C8AA /au·bohr⁸  :       2421.346272
 Mol. α(0) /au        :         15.303635


Wiberg/Mayer (AO) data.
largest (>0.10) Wiberg bond orders for each atom

 ---------------------------------------------------------------------------
     #   Z sym  total        # sym  WBO       # sym  WBO       # sym  WBO
 ---------------------------------------------------------------------------
     1   8 O    1.883 --     3 H    0.953     2 O    0.930
     2   8 O    0.933 --     1 O    0.930
     3   1 H    0.956 --     1 O    0.953
 ---------------------------------------------------------------------------

Topologies differ in total number of bonds
Writing topology from bond orders to xtbtopo.mol

molecular dipole:
                 x           y           z       tot (Debye)
 q only:        7.462       9.372      -5.224
   full:        7.730       9.381      -5.378      33.786
molecular quadrupole (traceless):
                xx          xy          yy          xz          yz          zz
 q only:        1.941    -106.068     -46.982      56.983      73.034      45.041
  q+dip:       -1.229    -110.770     -44.703      59.866      74.959      45.932
   full:       -0.658    -110.186     -44.917      59.902      75.191      45.574

           -------------------------------------------------
          |                Geometry Summary                 |
           -------------------------------------------------

      molecular mass/u    :       33.0067506
   center of mass at/Å    :       -3.5224010      -4.8505579       2.6481132
  moments of inertia/u·Å² :        0.8349239E+00   0.1782716E+02   0.1866208E+02
rotational constants/cm⁻¹ :        0.2019062E+02   0.9456154E+00   0.9033095E+00

 * 1 selected distances

     #   Z          #   Z                                           value/Å
     1   8 O        3   1 H                                       0.9628638 (max)

 * 1 distinct bonds (by element types)

   Z      Z             #   av. dist./Å        max./Å        min./Å
   1 H    8 O           1     0.9628638     0.9628638     0.9628638

           -------------------------------------------------
          |               Frequency Printout                |
           -------------------------------------------------
 projected vibrational frequencies (cm⁻¹)
eigval :       -0.00    -0.00    -0.00     0.00     0.00     0.00
eigval :      998.31  1169.12  3539.10
 reduced masses (amu)
   1: 14.02   2: 15.30   3: 15.77   4: 15.87   5: 15.29   6:  2.53   7: 15.55   8:  2.77
   9:  1.92
 IR intensities (km·mol⁻¹)
   1: 35.65   2: 21.47   3: 43.28   4: 32.44   5: 13.62   6: 99.16   7: 17.73   8: 37.63
   9: 21.14
 Raman intensities (Ä⁴*amu⁻¹)
   1:  0.00   2:  0.00   3:  0.00   4:  0.00   5:  0.00   6:  0.00   7:  0.00   8:  0.00
   9:  0.00
 output can be read by thermo (or use thermo option).
 writing <g98.out> molden fake output.
 recommended (thermochemical) frequency scaling factor: 1.0
           -------------------------------------------------
          |             Thermodynamic Functions             |
           -------------------------------------------------

Molecule has the following symmetry elements: (sigma) 
It seems to be the Cs point group
cs  symmetry found (for desy threshold:  0.10E+00) used in thermo

          ...................................................
          :                      SETUP                      :
          :.................................................:
          :  # frequencies                           3      :
          :  # imaginary freq.                       0      :
          :  linear?                             false      :
          :  only rotor calc.                    false      :
          :  symmetry                               cs      :
          :  rotational number                       1      :
          :  scaling factor                  1.0000000      :
          :  rotor cutoff                   50.0000000 cm⁻¹ :
          :  imag. cutoff                  -20.0000000 cm⁻¹ :
          :.................................................:

    mode    ω/cm⁻¹     T·S(HO)/kcal·mol⁻¹    T·S(FR)/kcal·mol⁻¹   T·S(vib)
   ------------------------------------------------------------------------
   ------------------------------------------------------------------------

   temp. (K)  partition function   enthalpy   heat capacity  entropy
                                   cal/mol     cal/K/mol   cal/K/mol   J/K/mol
 298.15  VIB   1.01                   35.169      0.605      0.141
         ROT  0.127E+04              888.752      2.981     17.188
         INT  0.129E+04              923.921      3.586     17.329
         TR   0.183E+27             1481.254      4.968     36.397
         TOT                        2405.1749     8.5541    53.7269   224.7933

       T/K    H(0)-H(T)+PV         H(T)/Eh          T*S/Eh         G(T)/Eh
   ------------------------------------------------------------------------
    298.15    0.383289E-02    0.168333E-01    0.255274E-01   -0.869406E-02
   ------------------------------------------------------------------------

         :::::::::::::::::::::::::::::::::::::::::::::::::::::
         ::                  THERMODYNAMIC                  ::
         :::::::::::::::::::::::::::::::::::::::::::::::::::::
         :: total free energy          -8.718006246420 Eh   ::
         ::.................................................::
         :: total energy               -8.709312189800 Eh   ::
         :: zero point energy           0.013000436978 Eh   ::
         :: G(RRHO) w/o ZPVE           -0.021694493598 Eh   ::
         :: G(RRHO) contrib.           -0.008694056619 Eh   ::
         :::::::::::::::::::::::::::::::::::::::::::::::::::::

optimized geometry written to: xtbopt.xyz


           -------------------------------------------------
          | TOTAL ENERGY               -8.709312189800 Eh   |
          | TOTAL ENTHALPY             -8.692478862652 Eh   |
          | TOTAL FREE ENERGY          -8.718006246420 Eh   |
          | GRADIENT NORM               0.000335718537 Eh/α |
          | HOMO-LUMO GAP               6.527475535867 eV   |
           -------------------------------------------------

------------------------------------------------------------------------
 * finished run on 2025/10/18 at 04:59:45.210     
------------------------------------------------------------------------
 total:
 * wall-time:     0 d,  0 h,  0 min,  0.293 sec
 *  cpu-time:     0 d,  0 h,  0 min,  0.308 sec
 * ratio c/w:     1.054 speedup
 SCF:
 * wall-time:     0 d,  0 h,  0 min,  0.026 sec
 *  cpu-time:     0 d,  0 h,  0 min,  0.030 sec
 * ratio c/w:     1.152 speedup
 ANC optimizer:
 * wall-time:     0 d,  0 h,  0 min,  0.064 sec
 *  cpu-time:     0 d,  0 h,  0 min,  0.069 sec
 * ratio c/w:     1.079 speedup
 analytical hessian:
 * wall-time:     0 d,  0 h,  0 min,  0.021 sec
 *  cpu-time:     0 d,  0 h,  0 min,  0.028 sec
 * ratio c/w:     1.306 speedup

