3
 energy: -8.705899431683 gnorm: 0.054831611252 xtb: 6.7.1 (edcfbbe)
O           -2.98112200000000       -4.52282800000000        2.75776400000000
O           -4.18898000000000       -5.21020000000000        2.57283200000000
H           -2.34984800000000       -4.75200300000000        2.05508700000000
3
 energy: -8.708407409223 gnorm: 0.024921324360 xtb: 6.7.1 (edcfbbe)
O           -2.96473644214567       -4.50229417987405        2.77549946521424
O           -4.18435462149995       -5.21813681459396        2.55918289844494
H           -2.37085893635439       -4.76460000553199        2.05100063634081
3
 energy: -8.709267035965 gnorm: 0.006944622978 xtb: 6.7.1 (edcfbbe)
O           -2.94811314370672       -4.48334171788436        2.79093938161626
O           -4.17484756584945       -5.22434424493836        2.54485663782936
H           -2.39698929044383       -4.77734503717728        2.04988698055438
3
 energy: -8.709308306775 gnorm: 0.002324616173 xtb: 6.7.1 (edcfbbe)
O           -2.94459784734741       -4.48098198186098        2.79196559987684
O           -4.17244000123936       -5.22499242100084        2.54248356402770
H           -2.40291215141323       -4.77905659713818        2.05123383609546
3
 energy: -8.709312189794 gnorm: 0.000335154441 xtb: 6.7.1 (edcfbbe)
O           -2.94372884919628       -4.48069387933473        2.79181822971222
O           -4.17144813419014       -5.22495249486929        2.54192289134059
H           -2.40477301661357       -4.77938462579597        2.05194187894719
