 Entering Gaussian System
 *********************************************
 Gaussian 98:
 frequency output generated by the xtb code
 *********************************************
                         Standard orientation:
 --------------------------------------------------------------------
  Center     Atomic     Atomic              Coordinates (Angstroms)
  Number     Number      Type              X           Y           Z
 --------------------------------------------------------------------
    1          6             0       -3.798296   -0.625581   -0.746147
    2          6             0       -2.706187    0.169252   -0.781259
    3          6             0       -1.396238   -0.389433   -0.209304
    4          8             0       -2.666565    1.368930   -1.258453
    5          1             0       -3.766642   -1.621221   -0.332964
    6          1             0       -4.748165   -0.286849   -1.134024
    7          1             0       -1.534614   -1.399235    0.166502
    8          1             0       -0.635807   -0.388284   -0.989560
    9          1             0       -1.051928    0.258862    0.595804
 --------------------------------------------------------------------
     1 basis functions        1 primitive gaussians
     1 alpha electrons        1 beta electrons
 
 Harmonic frequencies (cm**-1), IR intensities (km*mol⁻¹),
 Raman scattering activities (A**4/amu), Raman depolarization ratios,
 reduced masses (AMU), force constants (mDyne/A) and normal coordinates:
                      1                      2                      3
                        a                      a                      a 
 Frequencies --    71.7892               419.0899               487.2754
 Red. masses --     1.7464                 8.5250                10.6404
 Frc consts  --     0.0000                 0.0000                 0.0000
 IR Inten    --     0.9099                 2.4804                27.6769
 Raman Activ --     0.0000                 0.0000                 0.0000
 Depolar     --     0.0000                 0.0000                 0.0000
 Atom AN      X      Y      Z        X      Y      Z        X      Y      Z
   1   6     0.04  -0.06  -0.15    -0.38   0.12  -0.15    -0.06  -0.31   0.11
   2   6    -0.01   0.01   0.03    -0.07  -0.29   0.10    -0.30   0.04  -0.09
   3   6    -0.00  -0.00  -0.00     0.24   0.32  -0.07    -0.31   0.19  -0.16
   4   8    -0.04   0.06   0.15     0.18  -0.32   0.18     0.60   0.10   0.12
   5   1     0.02  -0.03  -0.07    -0.29   0.01  -0.08     0.22  -0.06   0.09
   6   1     0.02  -0.03  -0.07    -0.02   0.22  -0.09    -0.12  -0.32   0.10
   7   1    -0.13   0.20   0.49     0.32   0.08   0.05     0.04   0.05  -0.01
   8   1    -0.16  -0.52  -0.16    -0.00   0.23  -0.09    -0.12   0.12  -0.08
   9   1     0.30   0.30  -0.37     0.00   0.23  -0.10    -0.11   0.12  -0.08
                      4                      5                      6
                        a                      a                      a 
 Frequencies --   495.0975               611.5734               682.1816
 Red. masses --     8.2290                 3.2833                 3.1715
 Frc consts  --     0.0000                 0.0000                 0.0000
 IR Inten    --    23.7815                11.6362                22.1538
 Raman Activ --     0.0000                 0.0000                 0.0000
 Depolar     --     0.0000                 0.0000                 0.0000
 Atom AN      X      Y      Z        X      Y      Z        X      Y      Z
   1   6     0.08  -0.12  -0.31    -0.08   0.13   0.31     0.05  -0.08  -0.19
   2   6    -0.16   0.25   0.62    -0.05   0.08   0.21    -0.07   0.11   0.28
   3   6     0.01  -0.02  -0.04    -0.00   0.01   0.01    -0.01   0.01   0.03
   4   8     0.04  -0.08  -0.18     0.04  -0.06  -0.15     0.05  -0.07  -0.18
   5   1    -0.09   0.13   0.33     0.17  -0.26  -0.64     0.12  -0.18  -0.44
   6   1     0.04  -0.06  -0.16     0.12  -0.18  -0.44    -0.18   0.28   0.69
   7   1     0.04  -0.06  -0.15     0.02  -0.03  -0.07    -0.01   0.01   0.03
   8   1    -0.19   0.06  -0.21    -0.11   0.04  -0.10     0.00  -0.00   0.02
   9   1     0.25  -0.15  -0.00     0.13  -0.08   0.01    -0.01   0.01   0.01
                      7                      8                      9
                        a                      a                      a 
 Frequencies --   858.0515               986.4454              1002.9085
 Red. masses --     9.1905                 5.1072                 4.8089
 Frc consts  --     0.0000                 0.0000                 0.0000
 IR Inten    --    17.2263                 8.1200                10.5100
 Raman Activ --     0.0000                 0.0000                 0.0000
 Depolar     --     0.0000                 0.0000                 0.0000
 Atom AN      X      Y      Z        X      Y      Z        X      Y      Z
   1   6    -0.37  -0.03  -0.09    -0.16  -0.35   0.10    -0.00   0.00  -0.00
   2   6    -0.29   0.11  -0.12    -0.11   0.01  -0.03     0.09  -0.15  -0.36
   3   6     0.53  -0.24   0.24     0.23   0.31  -0.06    -0.10   0.16   0.38
   4   8    -0.00   0.24  -0.10     0.14   0.12  -0.01    -0.01   0.02   0.05
   5   1     0.15   0.02   0.03    -0.35  -0.13  -0.04     0.00  -0.00  -0.00
   6   1    -0.23  -0.28   0.05     0.05   0.12  -0.04    -0.04   0.07   0.16
   7   1     0.25  -0.07   0.09    -0.48   0.10  -0.17     0.05  -0.08  -0.19
   8   1     0.14  -0.04   0.06     0.20  -0.23   0.12    -0.43   0.10  -0.31
   9   1     0.14  -0.05   0.05     0.19  -0.21   0.16     0.49  -0.20   0.06
                     10                     11                     12
                        a                      a                      a 
 Frequencies --  1035.0856              1281.4793              1357.0629
 Red. masses --     6.7948                10.7798                 3.6198
 Frc consts  --     0.0000                 0.0000                 0.0000
 IR Inten    --    43.3734               244.4664                15.3305
 Raman Activ --     0.0000                 0.0000                 0.0000
 Depolar     --     0.0000                 0.0000                 0.0000
 Atom AN      X      Y      Z        X      Y      Z        X      Y      Z
   1   6     0.12  -0.35   0.17     0.28   0.04   0.06     0.07   0.02   0.01
   2   6    -0.08   0.02  -0.03    -0.54   0.39  -0.30    -0.08   0.10  -0.06
   3   6    -0.06  -0.25   0.09     0.06  -0.02   0.02     0.39  -0.16   0.17
   4   8     0.04   0.42  -0.16     0.03  -0.41   0.17     0.00  -0.07   0.03
   5   1    -0.42  -0.14  -0.06     0.08   0.04   0.01    -0.07  -0.01  -0.02
   6   1     0.21   0.31  -0.07     0.21   0.30  -0.07    -0.01  -0.03   0.01
   7   1     0.35  -0.08   0.12     0.12  -0.01   0.04    -0.48   0.01  -0.13
   8   1    -0.09   0.14  -0.06     0.07  -0.06   0.06    -0.34   0.17  -0.34
   9   1    -0.08   0.12  -0.10     0.08  -0.07   0.04    -0.41   0.29  -0.05
                     13                     14                     15
                        a                      a                      a 
 Frequencies --  1418.0620              1477.5762              1497.9143
 Red. masses --     3.8694                 1.6098                 1.6642
 Frc consts  --     0.0000                 0.0000                 0.0000
 IR Inten    --   263.8559                 0.1030                 0.0534
 Raman Activ --     0.0000                 0.0000                 0.0000
 Depolar     --     0.0000                 0.0000                 0.0000
 Atom AN      X      Y      Z        X      Y      Z        X      Y      Z
   1   6    -0.15  -0.08  -0.01     0.00   0.00   0.00     0.05   0.03  -0.00
   2   6    -0.13  -0.35   0.11    -0.01   0.01   0.03     0.01  -0.01   0.01
   3   6     0.08   0.04   0.01    -0.05   0.09   0.21     0.08   0.21  -0.07
   4   8     0.02   0.21  -0.08     0.00  -0.00  -0.00    -0.00   0.01  -0.00
   5   1     0.62   0.08   0.13    -0.00  -0.00  -0.00    -0.09  -0.01  -0.02
   6   1     0.24   0.49  -0.13     0.00  -0.00  -0.00    -0.03  -0.07   0.02
   7   1    -0.09   0.01  -0.03     0.18  -0.27  -0.65     0.32   0.01   0.10
   8   1    -0.06  -0.06  -0.06     0.09  -0.45   0.10    -0.26  -0.52  -0.26
   9   1    -0.09  -0.02   0.06    -0.06   0.37  -0.26    -0.43  -0.27   0.40
                     16                     17                     18
                        a                      a                      a 
 Frequencies --  1657.8833              2983.4967              2999.3853
 Red. masses --    11.1147                 1.9327                 1.5202
 Frc consts  --     0.0000                 0.0000                 0.0000
 IR Inten    --   483.1621               106.4510               153.1764
 Raman Activ --     0.0000                 0.0000                 0.0000
 Depolar     --     0.0000                 0.0000                 0.0000
 Atom AN      X      Y      Z        X      Y      Z        X      Y      Z
   1   6     0.44   0.34  -0.02    -0.00  -0.00   0.00     0.03  -0.00   0.01
   2   6    -0.49  -0.55   0.09    -0.00   0.00   0.01     0.01   0.00   0.00
   3   6     0.05   0.03  -0.00    -0.07   0.11   0.26     0.17   0.13  -0.00
   4   8     0.03   0.19  -0.07     0.00  -0.00  -0.00    -0.00  -0.00   0.00
   5   1    -0.17   0.06  -0.07    -0.00   0.00   0.00     0.01  -0.03   0.01
   6   1    -0.00  -0.19   0.08     0.00  -0.00  -0.00    -0.11   0.04  -0.05
   7   1    -0.07   0.00  -0.02    -0.01   0.02   0.04     0.01  -0.05   0.02
   8   1     0.06  -0.00   0.05     0.48   0.02  -0.48    -0.44   0.02   0.51
   9   1     0.07  -0.02  -0.01    -0.22  -0.41  -0.48    -0.18  -0.41  -0.53
                     19                     20                     21
                        a                      a                      a 
 Frequencies --  3019.0511              3031.4373              3042.1285
 Red. masses --     1.6642                 1.9537                 1.5801
 Frc consts  --     0.0000                 0.0000                 0.0000
 IR Inten    --    41.0500               378.9181               208.5789
 Raman Activ --     0.0000                 0.0000                 0.0000
 Depolar     --     0.0000                 0.0000                 0.0000
 Atom AN      X      Y      Z        X      Y      Z        X      Y      Z
   1   6    -0.00  -0.05   0.02    -0.22   0.15  -0.12     0.08   0.20  -0.06
   2   6     0.01   0.01  -0.00    -0.00   0.02  -0.01    -0.02  -0.01  -0.00
   3   6     0.03   0.22  -0.08     0.02   0.02  -0.00    -0.01   0.03  -0.01
   4   8    -0.00  -0.00  -0.00     0.00  -0.00   0.00     0.00   0.00  -0.00
   5   1    -0.01   0.17  -0.07    -0.02  -0.29   0.11     0.05  -0.82   0.35
   6   1     0.01  -0.01   0.01     0.79  -0.28   0.32    -0.28   0.14  -0.13
   7   1    -0.15  -0.88   0.32    -0.00  -0.06   0.02    -0.03  -0.16   0.06
   8   1     0.03   0.03  -0.04    -0.05   0.00   0.06     0.04   0.00  -0.05
   9   1     0.02   0.06   0.02    -0.02  -0.04  -0.06     0.02   0.04   0.04
