      -----------------------------------------------------------      
     |                   =====================                   |     
     |                           x T B                           |     
     |                   =====================                   |     
     |                         S. Grimme                         |     
     |          Mulliken Center for Theoretical Chemistry        |     
     |                    University of Bonn                     |     
      -----------------------------------------------------------      

   * xtb version 6.7.1 (edcfbbe) compiled by 'albert@albert-system' on 2024-07-22

   xtb is free software: you can redistribute it and/or modify it under
   the terms of the GNU Lesser General Public License as published by
   the Free Software Foundation, either version 3 of the License, or
   (at your option) any later version.
   
   xtb is distributed in the hope that it will be useful,
   but WITHOUT ANY WARRANTY; without even the implied warranty of
   MERCHANTABILITY or FITNESS FOR A PARTICULAR PURPOSE.  See the
   GNU Lesser General Public License for more details.
   
   Cite this work as:
   * C. Bannwarth, E. Caldeweyher, S. Ehlert, A. Hansen, P. Pracht,
     J. Seibert, S. Spicher, S. Grimme, WIREs Comput. Mol. Sci., 2020, 11,
     e01493. DOI: 10.1002/wcms.1493
   
   for GFN2-xTB:
   * C. Bannwarth, S. Ehlert and S. Grimme., J. Chem. Theory Comput., 2019,
     15, 1652-1671. DOI: 10.1021/acs.jctc.8b01176
   for GFN1-xTB:
   * S. Grimme, C. Bannwarth, P. Shushkov, J. Chem. Theory Comput., 2017,
     13, 1989-2009. DOI: 10.1021/acs.jctc.7b00118
   for GFN0-xTB:
   * P. Pracht, E. Caldeweyher, S. Ehlert, S. Grimme, ChemRxiv, 2019, preprint.
     DOI: 10.26434/chemrxiv.8326202.v1
   for GFN-FF:
   * S. Spicher and S. Grimme, Angew. Chem. Int. Ed., 2020, 59, 15665-15673.
     DOI: 10.1002/anie.202004239
   
   for ALPB and GBSA implicit solvation:
   * S. Ehlert, M. Stahn, S. Spicher, S. Grimme, J. Chem. Theory Comput.,
     2021, 17, 4250-4261. DOI: 10.1021/acs.jctc.1c00471
   
   for ddCOSMO and CPCM-X implicit solvation:
   * M. Stahn, S. Ehlert, S. Grimme, J. Phys. Chem. A,
     2023, XX, XXXX-XXXX. DOI: 10.1021/acs.jpca.3c04382
   
   for DFT-D4:
   * E. Caldeweyher, C. Bannwarth and S. Grimme, J. Chem. Phys., 2017,
     147, 034112. DOI: 10.1063/1.4993215
   * E. Caldeweyher, S. Ehlert, A. Hansen, H. Neugebauer, S. Spicher,
     C. Bannwarth and S. Grimme, J. Chem. Phys., 2019, 150, 154122.
     DOI: 10.1063/1.5090222
   * E. Caldeweyher, J.-M. Mewes, S. Ehlert and S. Grimme, Phys. Chem. Chem. Phys.
     2020, 22, 8499-8512. DOI: 10.1039/D0CP00502A
   
   for sTDA-xTB:
   * S. Grimme and C. Bannwarth, J. Chem. Phys., 2016, 145, 054103.
     DOI: 10.1063/1.4959605
   
   in the mass-spec context:
   * V. Asgeirsson, C. Bauer and S. Grimme, Chem. Sci., 2017, 8, 4879.
     DOI: 10.1039/c7sc00601b
   * J. Koopman and S. Grimme, ACS Omega 2019, 4, 12, 15120-15133.
     DOI: 10.1021/acsomega.9b02011
   
   for metadynamics refer to:
   * S. Grimme, J. Chem. Theory Comput., 2019, 155, 2847-2862
     DOI: 10.1021/acs.jctc.9b00143
   
   for SPH calculations refer to:
   * S. Spicher and S. Grimme, J. Chem. Theory Comput., 2021, 17, 1701-1714
     DOI: 10.1021/acs.jctc.0c01306
   
   for ONIOM refer to:
   * C. Plett, A. Katbashev, S. Ehlert, S. Grimme, M. Bursch,
     Phys. Chem. Chem. Phys., 2023, 25, 17860-17868. DOI: 10.1039/D3CP02178E
   
   for DIPRO refer to:
   * J. Kohn, N. Gildemeister, S. Grimme, D. Fazzi, A. Hansen,
     J. Chem. Phys., 2023, just accepted.
   
   for PTB refer to:
   * S. Grimme, M. Mueller, A. Hansen, J. Chem. Phys., 2023, 158, 124111.
     DOI: 10.1063/5.0137838
   
   with help from (in alphabetical order)
   P. Atkinson, C. Bannwarth, F. Bohle, G. Brandenburg, E. Caldeweyher
   M. Checinski, S. Dohm, S. Ehlert, S. Ehrlich, I. Gerasimov, C. Hölzer
   A. Katbashev, J. Kohn, J. Koopman, C. Lavigne, S. Lehtola, F. März, M. Müller,
   F. Musil, H. Neugebauer, J. Pisarek, C. Plett, P. Pracht, F. Pultar,
   J. Seibert, P. Shushkov, S. Spicher, M. Stahn, M. Steiner, T. Strunk,
   J. Stückrath, T. Rose, and J. Unsleber
   
 * started run on 2025/10/18 at 01:56:00.289     
   ID    Z sym.   atoms
    1    6 C      1-3
    2    8 O      4
    3    1 H      5-9

           -------------------------------------------------
          |                Calculation Setup                |
           -------------------------------------------------

          program call               : xtb xyz.xyz --charge -1 --alpb water --ohess
          hostname                   : m003
          coordinate file            : xyz.xyz
          omp threads                :                     2


           -------------------------------------------------
          |                 G F N 2 - x T B                 |
           -------------------------------------------------

        Reference                      10.1021/acs.jctc.8b01176
      * Hamiltonian:
        H0-scaling (s, p, d)           1.850000    2.230000    2.230000
        zeta-weighting                 0.500000
      * Dispersion:
        s8                             2.700000
        a1                             0.520000
        a2                             5.000000
        s9                             5.000000
      * Repulsion:
        kExp                           1.500000    1.000000
        rExp                           1.000000
      * Coulomb:
        alpha                          2.000000
        third order                    shell-resolved
        anisotropic                    true
        a3                             3.000000
        a5                             4.000000
        cn-shift                       1.200000
        cn-exp                         4.000000
        max-rad                        5.000000

      * Solvation model:               ALPB
        Solvent                        water
        Parameter file                 internal GFN2-xTB/ALPB
        Dielectric constant                8.0200E+01
        Reference state                gsolv [1 M gas/solution]
        Free energy shift                  1.0808E-03 Eh       6.7819E-01 kcal/mol
        Temperature                        2.9815E+02 K
        Density                            1.0000E+00 kg/L
        Solvent mass                       1.8000E+01 g/mol
        Interaction kernel             P16
        Born radius scaling (c1)           1.4744E+00
        Born radii integrator          GBOBC
        Born offset                        0.0000E+00 a0       0.0000E+00 AA
        H-bond correction              true
        Ion screening                  false
        Surface tension                    1.0000E-05 Eh       1.5569E+01 dyn/cm
        Grid points                               230 per atom

          ...................................................
          :                      SETUP                      :
          :.................................................:
          :  # basis functions                  21          :
          :  # atomic orbitals                  21          :
          :  # shells                           13          :
          :  # electrons                        24          :
          :  max. iterations                   250          :
          :  Hamiltonian                  GFN2-xTB          :
          :  restarted?                      false          :
          :  GBSA solvation                   true          :
          :  PC potential                    false          :
          :  electronic temp.          300.0000000     K    :
          :  accuracy                    1.0000000          :
          :  -> integral cutoff          0.2500000E+02      :
          :  -> integral neglect         0.1000000E-07      :
          :  -> SCF convergence          0.1000000E-05 Eh   :
          :  -> wf. convergence          0.1000000E-03 e    :
          :  Broyden damping             0.4000000          :
          :  net charge                         -1          :
          :  unpaired electrons                  0          :
          ...................................................

 iter      E             dE          RMSdq      gap      omega  full diag
   1    -13.4072259 -0.134072E+02  0.471E+00    5.46       0.0  T
   2    -13.4567264 -0.495004E-01  0.200E+00    5.03       1.0  T
   3    -13.4575234 -0.797034E-03  0.872E-01    5.05       1.0  T
   4    -13.4577572 -0.233838E-03  0.432E-01    4.93       1.0  T
   5    -13.4583547 -0.597453E-03  0.120E-01    4.99       1.0  T
   6    -13.4583607 -0.599575E-05  0.392E-02    4.98       1.0  T
   7    -13.4583635 -0.279043E-05  0.130E-02    4.99       2.6  T
   8    -13.4583636 -0.153224E-06  0.407E-03    4.99       8.2  T
   9    -13.4583636 -0.325189E-07  0.225E-03    4.99      14.8  T
  10    -13.4583637 -0.969842E-08  0.516E-04    4.99      64.6  T
  11    -13.4583637 -0.425013E-09  0.326E-04    4.99     102.3  T

   *** convergence criteria satisfied after 11 iterations ***

         #    Occupation            Energy/Eh            Energy/eV
      -------------------------------------------------------------
         1        2.0000           -0.6156095             -16.7516
       ...           ...                  ...                  ...
         6        2.0000           -0.4664907             -12.6939
         7        2.0000           -0.4593106             -12.4985
         8        2.0000           -0.4190782             -11.4037
         9        2.0000           -0.4097515             -11.1499
        10        2.0000           -0.4076374             -11.0924
        11        2.0000           -0.3159911              -8.5986
        12        2.0000           -0.2934658              -7.9856 (HOMO)
        13                         -0.1102003              -2.9987 (LUMO)
        14                          0.1412236               3.8429
        15                          0.1699533               4.6247
        16                          0.1968910               5.3577
        17                          0.2120711               5.7707
       ...                                ...                  ...
        21                          0.7107814              19.3413
      -------------------------------------------------------------
                  HL-Gap            0.1832655 Eh            4.9869 eV
             Fermi-level           -0.2018330 Eh           -5.4922 eV

 SCC (total)                   0 d,  0 h,  0 min,  0.035 sec
 SCC setup                      ...        0 min,  0.000 sec (  0.947%)
 Dispersion                     ...        0 min,  0.000 sec (  0.245%)
 classical contributions        ...        0 min,  0.000 sec (  0.081%)
 integral evaluation            ...        0 min,  0.001 sec (  1.486%)
 iterations                     ...        0 min,  0.033 sec ( 94.267%)
 molecular gradient             ...        0 min,  0.001 sec (  2.504%)
 printout                       ...        0 min,  0.000 sec (  0.358%)

         :::::::::::::::::::::::::::::::::::::::::::::::::::::
         ::                     SUMMARY                     ::
         :::::::::::::::::::::::::::::::::::::::::::::::::::::
         :: total energy             -13.289778591139 Eh    ::
         :: total w/o Gsasa/hb       -13.290105982816 Eh    ::
         :: gradient norm              0.061340232133 Eh/a0 ::
         :: HOMO-LUMO gap              4.986908076494 eV    ::
         ::.................................................::
         :: SCC energy               -13.458362658535 Eh    ::
         :: -> isotropic ES            0.196555209088 Eh    ::
         :: -> anisotropic ES          0.012142478048 Eh    ::
         :: -> anisotropic XC          0.002688143586 Eh    ::
         :: -> dispersion             -0.004609483437 Eh    ::
         :: -> Gsolv                  -0.104878850823 Eh    ::
         ::    -> Gelec               -0.105206242499 Eh    ::
         ::    -> Gsasa                0.001566926796 Eh    ::
         ::    -> Ghb                 -0.002320294817 Eh    ::
         ::    -> Gshift               0.001080759698 Eh    ::
         :: repulsion energy           0.168584067396 Eh    ::
         :: add. restraining           0.000000000000 Eh    ::
         :: total charge              -1.000000000000 e     ::
         :::::::::::::::::::::::::::::::::::::::::::::::::::::

      ----------------------------------------------------------- 
     |                   =====================                   |
     |                        A N C O P T                        |
     |                   =====================                   |
     |               Approximate Normal Coordinate               |
     |                Rational Function Optimizer                |
      ----------------------------------------------------------- 
      ----------------------------------------------------------- 
     |                   =====================                   |
     |                        A N C O P T                        |
     |                   =====================                   |
     |               Approximate Normal Coordinate               |
     |                Rational Function Optimizer                |
      ----------------------------------------------------------- 

          ...................................................
          :                      SETUP                      :
          :.................................................:
          :   optimization level            normal          :
          :   max. optcycles                   200          :
          :   ANC micro-cycles                  20          :
          :   degrees of freedom                21          :
          :.................................................:
          :   RF solver                   davidson          :
          :   write xtbopt.log                true          :
          :   linear?                        false          :
          :   energy convergence         0.5000000E-05 Eh   :
          :   grad. convergence          0.1000000E-02 Eh/α :
          :   maxmium RF displ.          1.0000000          :
          :   Hlow (freq-cutoff)         0.1000000E-01      :
          :   Hmax (freq-cutoff)         5.0000000          :
          :   S6 in model hess.         20.0000000          :
          ...................................................

generating ANC from exact Hessian ...
Using Lindh-Hessian (1995)
 Shifting diagonal of input Hessian by   0.000000000000000E+000
 Lowest  eigenvalues of input Hessian
    0.000000    0.000000    0.000000    0.000000    0.000000    0.000000
    0.011965    0.012352    0.025685    0.046945    0.064341    0.070147
    0.084913    0.107320    0.119446    0.131289    0.178304    0.204553
 Highest eigenvalues
    1.036864    1.076849    1.105861    1.258153    1.706449    2.194964
 

........................................................................
.............................. CYCLE    1 ..............................
........................................................................

 iter      E             dE          RMSdq      gap      omega  full diag
   1    -13.4583637 -0.134584E+02  0.189E-05    4.99       0.0  T
   2    -13.4583637 -0.525802E-12  0.107E-05    4.99    3114.7  T
   3    -13.4583637 -0.621725E-13  0.579E-06    4.99    5755.8  T
     SCC iter.                  ...        0 min,  0.001 sec
     gradient                   ...        0 min,  0.001 sec
 * total energy  :   -13.2897786 Eh     change       -0.5141629E-09 Eh
   gradient norm :     0.0613472 Eh/α   predicted     0.0000000E+00 (-100.00%)
   displ. norm   :     0.1302416 α      lambda       -0.5376615E-02
   maximum displ.:     0.0660457 α      in ANC's #12, #10, #13, ...

........................................................................
.............................. CYCLE    2 ..............................
........................................................................

 iter      E             dE          RMSdq      gap      omega  full diag
   1    -13.4552706 -0.134553E+02  0.341E-01    4.81       0.0  T
   2    -13.4554882 -0.217601E-03  0.230E-01    4.87       1.0  T
   3    -13.4556206 -0.132447E-03  0.116E-01    4.84       1.0  T
   4    -13.4556268 -0.620368E-05  0.137E-02    4.84       2.4  T
   5    -13.4556270 -0.174632E-06  0.661E-03    4.84       5.0  T
   6    -13.4556270 -0.357743E-07  0.245E-03    4.84      13.6  T
   7    -13.4556270 -0.406862E-08  0.522E-04    4.84      63.8  T
   8    -13.4556270 -0.277517E-09  0.104E-04    4.84     321.6  T
     SCC iter.                  ...        0 min,  0.001 sec
     gradient                   ...        0 min,  0.001 sec
 * total energy  :   -13.2929280 Eh     change       -0.3149388E-02 Eh
   gradient norm :     0.0179921 Eh/α   predicted    -0.2733908E-02 ( -13.19%)
   displ. norm   :     0.0530449 α      lambda       -0.5677582E-03
   maximum displ.:     0.0292491 α      in ANC's #5, #3, #13, ...

........................................................................
.............................. CYCLE    3 ..............................
........................................................................

 iter      E             dE          RMSdq      gap      omega  full diag
   1    -13.4556197 -0.134556E+02  0.120E-01    4.79       0.0  T
   2    -13.4556478 -0.280116E-04  0.755E-02    4.81       1.0  T
   3    -13.4556646 -0.168650E-04  0.383E-02    4.80       1.0  T
   4    -13.4556655 -0.872197E-06  0.605E-03    4.80       5.5  T
   5    -13.4556655 -0.441597E-07  0.256E-03    4.80      13.0  T
   6    -13.4556655 -0.434018E-08  0.796E-04    4.80      41.9  T
   7    -13.4556655 -0.390033E-09  0.406E-04    4.80      82.1  T
     SCC iter.                  ...        0 min,  0.001 sec
     gradient                   ...        0 min,  0.001 sec
 * total energy  :   -13.2932728 Eh     change       -0.3447901E-03 Eh
   gradient norm :     0.0050799 Eh/α   predicted    -0.2846793E-03 ( -17.43%)
   displ. norm   :     0.0202604 α      lambda       -0.6164326E-04
   maximum displ.:     0.0112955 α      in ANC's #5, #8, #13, ...

........................................................................
.............................. CYCLE    4 ..............................
........................................................................

 iter      E             dE          RMSdq      gap      omega  full diag
   1    -13.4560708 -0.134561E+02  0.424E-02    4.79       0.0  T
   2    -13.4560725 -0.169842E-05  0.242E-02    4.79       1.4  T
   3    -13.4560730 -0.508609E-06  0.151E-02    4.79       2.2  T
   4    -13.4560734 -0.354329E-06  0.189E-03    4.79      17.6  T
   5    -13.4560734 -0.814463E-08  0.780E-04    4.79      42.7  T
   6    -13.4560734 -0.360854E-09  0.250E-04    4.79     133.5  T
     SCC iter.                  ...        0 min,  0.001 sec
     gradient                   ...        0 min,  0.001 sec
 * total energy  :   -13.2933092 Eh     change       -0.3644346E-04 Eh
   gradient norm :     0.0020983 Eh/α   predicted    -0.3083328E-04 ( -15.39%)
   displ. norm   :     0.0073974 α      lambda       -0.7328324E-05
   maximum displ.:     0.0043681 α      in ANC's #8, #3, #5, ...

........................................................................
.............................. CYCLE    5 ..............................
........................................................................

 iter      E             dE          RMSdq      gap      omega  full diag
   1    -13.4562026 -0.134562E+02  0.106E-02    4.79       0.0  T
   2    -13.4562026 -0.417254E-07  0.655E-03    4.79       5.1  T
   3    -13.4562026  0.136760E-07  0.203E-03    4.79      16.4  T
   4    -13.4562026 -0.191314E-07  0.650E-04    4.79      51.3  T
   5    -13.4562026 -0.147654E-08  0.252E-04    4.79     132.4  T
     SCC iter.                  ...        0 min,  0.001 sec
     gradient                   ...        0 min,  0.001 sec
 * total energy  :   -13.2933140 Eh     change       -0.4752114E-05 Eh
   gradient norm :     0.0010290 Eh/α   predicted    -0.3663322E-05 ( -22.91%)
   displ. norm   :     0.0069089 α      lambda       -0.1799720E-05
   maximum displ.:     0.0048816 α      in ANC's #3, #8, #16, ...

........................................................................
.............................. CYCLE    6 ..............................
........................................................................

 iter      E             dE          RMSdq      gap      omega  full diag
   1    -13.4561939 -0.134562E+02  0.661E-03    4.79       0.0  T
   2    -13.4561940 -0.901142E-07  0.463E-03    4.79       7.2  T
   3    -13.4561941 -0.392437E-07  0.239E-03    4.79      13.9  T
   4    -13.4561941 -0.279468E-08  0.506E-04    4.79      65.9  T
   5    -13.4561941 -0.483709E-09  0.192E-04    4.79     173.4  T
     SCC iter.                  ...        0 min,  0.001 sec
     gradient                   ...        0 min,  0.001 sec
 * total energy  :   -13.2933150 Eh     change       -0.1033589E-05 Eh
   gradient norm :     0.0004130 Eh/α   predicted    -0.9011292E-06 ( -12.82%)
   displ. norm   :     0.0014200 α      lambda       -0.1927834E-06
   maximum displ.:     0.0006477 α      in ANC's #1, #8, #3, ...

   *** GEOMETRY OPTIMIZATION CONVERGED AFTER 6 ITERATIONS ***

------------------------------------------------------------------------
 total energy gain   :        -0.0035364 Eh       -2.2191 kcal/mol
 total RMSD          :         0.0558485 a0        0.0296 Å
 total power (kW/mol):        -1.5474729 (step) -527.4529 (real)
------------------------------------------------------------------------

 ANCopt (total)                0 d,  0 h,  0 min,  0.018 sec
 optimizer setup                ...        0 min,  0.001 sec (  3.236%)
 model hessian                  ...        0 min,  0.001 sec (  8.294%)
 ANC generation                 ...        0 min,  0.000 sec (  1.232%)
 coordinate transformation      ...        0 min,  0.000 sec (  0.307%)
 single point calculation       ...        0 min,  0.014 sec ( 80.710%)
 optimization log               ...        0 min,  0.000 sec (  2.010%)
 hessian update                 ...        0 min,  0.000 sec (  0.279%)
 rational function              ...        0 min,  0.000 sec (  1.926%)

================
 final structure:
================
9
 xtb: 6.7.1 (edcfbbe)
C           -3.79828941070544       -0.62559931323398       -0.74616170519392
C           -2.70618512402872        0.16923894780026       -0.78126762371778
C           -1.39623550149643       -0.38943979953150       -0.20930907627409
O           -2.66656753212499        1.36891827031722       -1.25846018387056
H           -3.76663212901987       -1.62123953607900       -0.33297992401201
H           -4.74815924187764       -0.28687145570258       -1.13404062597045
H           -1.53460703066436       -1.39924290612742        0.16649412770672
H           -0.63580171473411       -0.38828556014736       -0.98956244627185
H           -1.05193131534845        0.25885535270436        0.59580045760394
 
 Bond Distances (Angstroems)
 ---------------------------
C1-C2=1.3512         C1-H5=1.0784         C1-H6=1.0805         C2-C1=1.3512         C2-C3=1.5347         C2-O4=1.2917         
C3-C2=1.5347         C3-H7=1.0863         C3-H8=1.0895         C3-H9=1.0895         O4-C2=1.2917         H5-C1=1.0784         
H6-C1=1.0805         H7-C3=1.0863         H8-C3=1.0895         H9-C3=1.0895         
 C  H  Rav=1.0849 sigma=0.0046  Rmin=1.0784  Rmax=1.0895     5
 C  C  Rav=1.4429 sigma=0.0917  Rmin=1.3512  Rmax=1.5347     2
 O  C  Rav=1.2917 sigma=0.0000  Rmin=1.2917  Rmax=1.2917     1
 
 selected bond angles (degree)
 --------------------
H5-C1-C2=121.96                H6-C1-C2=121.12                H6-C1-H5=116.92                C3-C2-C1=117.78                
O4-C2-C1=125.50                O4-C2-C3=116.72                H7-C3-C2=111.01                H8-C3-C2=109.18                
H8-C3-H7=109.73                H9-C3-C2=109.18                H9-C3-H7=109.74                H9-C3-H8=107.94                
 
 selected dihedral angles (degree)
 ---------------------------------
C3-C2-C1-H5=  0.03            C3-C2-C1-H6=180.01            O4-C2-C1-H5=180.01            O4-C2-C1-H6=  0.00            
H7-C3-C2-C1=359.89            H7-C3-C2-O4=179.91            H8-C3-C2-C1=120.99            H8-C3-C2-O4=301.01            
H9-C3-C2-C1=238.78            H9-C3-C2-O4= 58.80            
           -------------------------------------------------
          |                Final Singlepoint                |
           -------------------------------------------------

          ...................................................
          :                      SETUP                      :
          :.................................................:
          :  # basis functions                  21          :
          :  # atomic orbitals                  21          :
          :  # shells                           13          :
          :  # electrons                        24          :
          :  max. iterations                   250          :
          :  Hamiltonian                  GFN2-xTB          :
          :  restarted?                      false          :
          :  GBSA solvation                   true          :
          :  PC potential                    false          :
          :  electronic temp.          300.0000000     K    :
          :  accuracy                    1.0000000          :
          :  -> integral cutoff          0.2500000E+02      :
          :  -> integral neglect         0.1000000E-07      :
          :  -> SCF convergence          0.1000000E-05 Eh   :
          :  -> wf. convergence          0.1000000E-03 e    :
          :  Broyden damping             0.4000000          :
          :  net charge                         -1          :
          :  unpaired electrons                  0          :
          ...................................................

 iter      E             dE          RMSdq      gap      omega  full diag
   1    -13.4561941 -0.134562E+02  0.709E-05    4.79       0.0  T
   2    -13.4561941 -0.342659E-11  0.475E-05    4.79     701.9  T
   3    -13.4561941 -0.568434E-13  0.279E-05    4.79    1193.8  T

   *** convergence criteria satisfied after 3 iterations ***

         #    Occupation            Energy/Eh            Energy/eV
      -------------------------------------------------------------
         1        2.0000           -0.6084557             -16.5569
       ...           ...                  ...                  ...
         6        2.0000           -0.4675632             -12.7230
         7        2.0000           -0.4569287             -12.4337
         8        2.0000           -0.4203464             -11.4382
         9        2.0000           -0.4064004             -11.0587
        10        2.0000           -0.4043633             -11.0033
        11        2.0000           -0.3171531              -8.6302
        12        2.0000           -0.2944044              -8.0112 (HOMO)
        13                         -0.1183891              -3.2215 (LUMO)
        14                          0.1329114               3.6167
        15                          0.1697840               4.6201
        16                          0.2023158               5.5053
        17                          0.2244923               6.1087
       ...                                ...                  ...
        21                          0.6393765              17.3983
      -------------------------------------------------------------
                  HL-Gap            0.1760153 Eh            4.7896 eV
             Fermi-level           -0.2063967 Eh           -5.6163 eV

 SCC (total)                   0 d,  0 h,  0 min,  0.001 sec
 SCC setup                      ...        0 min,  0.000 sec (  8.538%)
 Dispersion                     ...        0 min,  0.000 sec (  1.442%)
 classical contributions        ...        0 min,  0.000 sec (  0.475%)
 integral evaluation            ...        0 min,  0.000 sec ( 17.666%)
 iterations                     ...        0 min,  0.000 sec ( 25.631%)
 molecular gradient             ...        0 min,  0.001 sec ( 40.757%)
 printout                       ...        0 min,  0.000 sec (  3.917%)

         :::::::::::::::::::::::::::::::::::::::::::::::::::::
         ::                     SUMMARY                     ::
         :::::::::::::::::::::::::::::::::::::::::::::::::::::
         :: total energy             -13.293314999035 Eh    ::
         :: total w/o Gsasa/hb       -13.293552807398 Eh    ::
         :: gradient norm              0.000411458011 Eh/a0 ::
         :: HOMO-LUMO gap              4.789619966388 eV    ::
         ::.................................................::
         :: SCC energy               -13.456193025409 Eh    ::
         :: -> isotropic ES            0.202398970230 Eh    ::
         :: -> anisotropic ES          0.011890921571 Eh    ::
         :: -> anisotropic XC          0.003215584524 Eh    ::
         :: -> dispersion             -0.004560356787 Eh    ::
         :: -> Gsolv                  -0.107133341092 Eh    ::
         ::    -> Gelec               -0.107371149454 Eh    ::
         ::    -> Gsasa                0.001617640461 Eh    ::
         ::    -> Ghb                 -0.002460591796 Eh    ::
         ::    -> Gshift               0.001080759698 Eh    ::
         :: repulsion energy           0.162878026374 Eh    ::
         :: add. restraining           0.000000000000 Eh    ::
         :: total charge              -1.000000000000 e     ::
         :::::::::::::::::::::::::::::::::::::::::::::::::::::

           ------------------------------------------------- 
          |                Numerical Hessian                |
           ------------------------------------------------- 
step length          :   0.00500
SCC accuracy         :   0.30000
Hessian scale factor :   1.00000
frozen atoms in %    :   0.00000    0
RMS gradient         :   0.00041
estimated CPU  time      0.00 min
estimated wall time      0.00 min

writing file <hessian>.

 projected vibrational frequencies (cm⁻¹)
eigval :       -0.00    -0.00    -0.00    -0.00     0.00     0.00
eigval :       71.79   419.09   487.28   495.10   611.57   682.18
eigval :      858.05   986.45  1002.91  1035.09  1281.48  1357.06
eigval :     1418.06  1477.58  1497.91  1657.88  2983.50  2999.39
eigval :     3019.05  3031.44  3042.13
           -------------------------------------------------
          |                Property Printout                |
           -------------------------------------------------

    * Orbital Energies and Occupations

         #    Occupation            Energy/Eh            Energy/eV
      -------------------------------------------------------------
         1        2.0000           -0.6084557             -16.5569
         2        2.0000           -0.5764391             -15.6857
         3        2.0000           -0.5474419             -14.8967
         4        2.0000           -0.5004359             -13.6176
         5        2.0000           -0.4683883             -12.7455
         6        2.0000           -0.4675634             -12.7230
         7        2.0000           -0.4569289             -12.4337
         8        2.0000           -0.4203465             -11.4382
         9        2.0000           -0.4064006             -11.0587
        10        2.0000           -0.4043634             -11.0033
        11        2.0000           -0.3171533              -8.6302
        12        2.0000           -0.2944046              -8.0112 (HOMO)
        13                         -0.1183892              -3.2215 (LUMO)
        14                          0.1329113               3.6167
        15                          0.1697838               4.6201
        16                          0.2023157               5.5053
        17                          0.2244922               6.1087
        18                          0.2354483               6.4069
        19                          0.2957284               8.0472
        20                          0.5002476              13.6124
        21                          0.6393764              17.3983
      -------------------------------------------------------------
                  HL-Gap            0.1760154 Eh            4.7896 eV
             Fermi-level           -0.2063969 Eh           -5.6163 eV

     #   Z          covCN         q      C6AA      α(0)
     1   6 C        2.839    -0.205    33.418     9.474
     2   6 C        2.810     0.148    24.782     8.156
     3   6 C        3.755    -0.108    22.625     6.782
     4   8 O        0.857    -0.760    30.391     7.391
     5   1 H        0.926    -0.054     4.186     3.200
     6   1 H        0.926    -0.060     4.349     3.261
     7   1 H        0.925     0.012     2.865     2.647
     8   1 H        0.925     0.014     2.829     2.630
     9   1 H        0.925     0.014     2.829     2.630

 Mol. C6AA /au·bohr⁶  :        907.803751
 Mol. C8AA /au·bohr⁸  :      19534.206950
 Mol. α(0) /au        :         46.171606


Wiberg/Mayer (AO) data.
largest (>0.10) Wiberg bond orders for each atom

 ---------------------------------------------------------------------------
     #   Z sym  total        # sym  WBO       # sym  WBO       # sym  WBO
 ---------------------------------------------------------------------------
     1   6 C    3.867 --     2 C    1.658     5 H    0.979     6 H    0.977
                             4 O    0.218
     2   6 C    3.964 --     1 C    1.658     4 O    1.334     3 C    0.968
     3   6 C    3.993 --     7 H    0.990     9 H    0.983     8 H    0.983
                             2 C    0.968
     4   8 O    1.624 --     2 C    1.334     1 C    0.218
     5   1 H    0.997 --     1 C    0.979
     6   1 H    0.996 --     1 C    0.977
     7   1 H    1.000 --     3 C    0.990
     8   1 H    1.000 --     3 C    0.983
     9   1 H    1.000 --     3 C    0.983
 ---------------------------------------------------------------------------

Topologies differ in total number of bonds
Writing topology from bond orders to xtbtopo.mol

molecular dipole:
                 x           y           z       tot (Debye)
 q only:        5.675      -1.433       2.077
   full:        5.713      -1.612       2.160      16.056
molecular quadrupole (traceless):
                xx          xy          yy          xz          yz          zz
 q only:      -28.901       9.501      13.539     -17.377       6.111      15.362
  q+dip:      -27.830      11.335      13.046     -17.779       6.700      14.784
   full:      -28.239      11.028      13.099     -17.868       6.762      15.140

           -------------------------------------------------
          |                Geometry Summary                 |
           -------------------------------------------------

      molecular mass/u    :       57.0713164
   center of mass at/Å    :       -2.6175546       0.1450786      -0.7482105
  moments of inertia/u·Å² :        0.4770362E+02   0.5345756E+02   0.9803119E+02
rotational constants/cm⁻¹ :        0.3533826E+00   0.3153461E+00   0.1719619E+00

 * 6 selected distances

     #   Z          #   Z                                           value/Å
     1   6 C        2   6 C                                       1.3511819 (max)
     1   6 C        5   1 H                                       1.0784345 (min)
     1   6 C        6   1 H                                       1.0804812
     3   6 C        7   1 H                                       1.0863136
     3   6 C        8   1 H                                       1.0895212
     3   6 C        9   1 H                                       1.0895107

 * 2 distinct bonds (by element types)

   Z      Z             #   av. dist./Å        max./Å        min./Å
   1 H    6 C           5     1.0848522     1.0895212     1.0784345
   6 C    6 C           1     1.3511819     1.3511819     1.3511819

           -------------------------------------------------
          |               Frequency Printout                |
           -------------------------------------------------
 projected vibrational frequencies (cm⁻¹)
eigval :       -0.00    -0.00    -0.00    -0.00     0.00     0.00
eigval :       71.79   419.09   487.28   495.10   611.57   682.18
eigval :      858.05   986.45  1002.91  1035.09  1281.48  1357.06
eigval :     1418.06  1477.58  1497.91  1657.88  2983.50  2999.39
eigval :     3019.05  3031.44  3042.13
 reduced masses (amu)
   1: 10.01   2: 10.48   3: 10.23   4: 12.32   5: 12.39   6: 12.98   7:  1.75   8:  8.52
   9: 10.64  10:  8.23  11:  3.28  12:  3.17  13:  9.19  14:  5.11  15:  4.81  16:  6.79
  17: 10.78  18:  3.62  19:  3.87  20:  1.61  21:  1.66  22: 11.11  23:  1.93  24:  1.52
  25:  1.66  26:  1.95  27:  1.58
 IR intensities (km·mol⁻¹)
   1:  5.75   2:  4.81   3:  5.03   4: 20.46   5: 17.30   6: 21.45   7:  0.91   8:  2.48
   9: 27.68  10: 23.78  11: 11.64  12: 22.15  13: 17.23  14:  8.12  15: 10.51  16: 43.37
  17:244.47  18: 15.33  19:263.86  20:  0.10  21:  0.05  22:483.16  23:106.45  24:153.18
  25: 41.05  26:378.92  27:208.58
 Raman intensities (Ä⁴*amu⁻¹)
   1:  0.00   2:  0.00   3:  0.00   4:  0.00   5:  0.00   6:  0.00   7:  0.00   8:  0.00
   9:  0.00  10:  0.00  11:  0.00  12:  0.00  13:  0.00  14:  0.00  15:  0.00  16:  0.00
  17:  0.00  18:  0.00  19:  0.00  20:  0.00  21:  0.00  22:  0.00  23:  0.00  24:  0.00
  25:  0.00  26:  0.00  27:  0.00
 output can be read by thermo (or use thermo option).
 writing <g98.out> molden fake output.
 recommended (thermochemical) frequency scaling factor: 1.0
           -------------------------------------------------
          |             Thermodynamic Functions             |
           -------------------------------------------------

Refinement of some symmetry elements was terminated before convergence was reached.
Some symmetry elements may remain unidentified.
Molecule has the following symmetry elements: (sigma) 
It seems to be the Cs point group
cs  symmetry found (for desy threshold:  0.10E+00) used in thermo

          ...................................................
          :                      SETUP                      :
          :.................................................:
          :  # frequencies                          21      :
          :  # imaginary freq.                       0      :
          :  linear?                             false      :
          :  only rotor calc.                    false      :
          :  symmetry                               cs      :
          :  rotational number                       1      :
          :  scaling factor                  1.0000000      :
          :  rotor cutoff                   50.0000000 cm⁻¹ :
          :  imag. cutoff                  -20.0000000 cm⁻¹ :
          :.................................................:

    mode    ω/cm⁻¹     T·S(HO)/kcal·mol⁻¹    T·S(FR)/kcal·mol⁻¹   T·S(vib)
   ------------------------------------------------------------------------
       1     71.79    -1.22351 ( 80.95%)    -0.94835 ( 19.05%)    -1.17110
   ------------------------------------------------------------------------

   temp. (K)  partition function   enthalpy   heat capacity  entropy
                                   cal/mol     cal/K/mol   cal/K/mol   J/K/mol
 298.15  VIB   5.50                 1272.525      9.867      7.479
         ROT  0.382E+05              888.752      2.981     23.947
         INT  0.210E+06             2161.277     12.848     31.426
         TR   0.417E+27             1481.254      4.968     38.029
         TOT                        3642.5312    17.8160    69.4549   290.5994

       T/K    H(0)-H(T)+PV         H(T)/Eh          T*S/Eh         G(T)/Eh
   ------------------------------------------------------------------------
    298.15    0.580474E-02    0.750952E-01    0.330003E-01    0.420949E-01
   ------------------------------------------------------------------------

         :::::::::::::::::::::::::::::::::::::::::::::::::::::
         ::                  THERMODYNAMIC                  ::
         :::::::::::::::::::::::::::::::::::::::::::::::::::::
         :: total free energy         -13.251220120671 Eh   ::
         ::.................................................::
         :: total energy              -13.293314999158 Eh   ::
         :: zero point energy           0.069290411716 Eh   ::
         :: G(RRHO) w/o ZPVE           -0.027195533228 Eh   ::
         :: G(RRHO) contrib.            0.042094878487 Eh   ::
         :::::::::::::::::::::::::::::::::::::::::::::::::::::

optimized geometry written to: xtbopt.xyz


           -------------------------------------------------
          | TOTAL ENERGY              -13.293314999158 Eh   |
          | TOTAL ENTHALPY            -13.218219844563 Eh   |
          | TOTAL FREE ENERGY         -13.251220120671 Eh   |
          | GRADIENT NORM               0.000411192407 Eh/α |
          | HOMO-LUMO GAP               4.789623915298 eV   |
           -------------------------------------------------

------------------------------------------------------------------------
 * finished run on 2025/10/18 at 01:56:01.146     
------------------------------------------------------------------------
 total:
 * wall-time:     0 d,  0 h,  0 min,  0.856 sec
 *  cpu-time:     0 d,  0 h,  0 min,  0.851 sec
 * ratio c/w:     0.993 speedup
 SCF:
 * wall-time:     0 d,  0 h,  0 min,  0.036 sec
 *  cpu-time:     0 d,  0 h,  0 min,  0.043 sec
 * ratio c/w:     1.204 speedup
 ANC optimizer:
 * wall-time:     0 d,  0 h,  0 min,  0.236 sec
 *  cpu-time:     0 d,  0 h,  0 min,  0.255 sec
 * ratio c/w:     1.083 speedup
 analytical hessian:
 * wall-time:     0 d,  0 h,  0 min,  0.267 sec
 *  cpu-time:     0 d,  0 h,  0 min,  0.332 sec
 * ratio c/w:     1.242 speedup

