9
 energy: -13.289778591653 gnorm: 0.061347190605 xtb: 6.7.1 (edcfbbe)
C           -3.80527200000000       -0.63389900000000       -0.74421300000000
C           -2.72576500000000        0.16384800000000       -0.78467900000000
C           -1.41794100000000       -0.36039900000000       -0.22695000000000
O           -2.61555600000000        1.33441500000000       -1.23210500000000
H           -3.77103200000000       -1.63201300000000       -0.32894500000000
H           -4.75109700000000       -0.27748100000000       -1.13831800000000
H           -1.51707800000000       -1.38091500000000        0.16230800000000
H           -0.63931100000000       -0.38980700000000       -0.99973500000000
H           -1.06135700000000        0.26258500000000        0.60315000000000
9
 energy: -13.292927979774 gnorm: 0.017992138312 xtb: 6.7.1 (edcfbbe)
C           -3.80043977838668       -0.62830497561143       -0.74529916059579
C           -2.71567702725773        0.17483224213008       -0.78642176510856
C           -1.40983657613843       -0.38779063342961       -0.21365399368608
O           -2.64257754110723        1.36769218840010       -1.25269922345734
H           -3.76371158514933       -1.62240998985670       -0.33093908356090
H           -4.75127346183604       -0.28737873025672       -1.13436674964057
H           -1.51636660465064       -1.40625049988856        0.17287996028090
H           -0.64355498110647       -0.38478353853560       -0.99235965898783
H           -1.06097144436745        0.26072793704845        0.59337267475619
9
 energy: -13.293272769843 gnorm: 0.005079886146 xtb: 6.7.1 (edcfbbe)
C           -3.79891764999397       -0.62655222779287       -0.74571096362627
C           -2.70997780113983        0.17315236295725       -0.78415880741845
C           -1.40008194052829       -0.39087522400730       -0.20979880516248
O           -2.65699474346542        1.37249619437992       -1.25825555405293
H           -3.76290095072036       -1.61967934093847       -0.33195589740944
H           -4.75125942643029       -0.29096301163443       -1.13296264580769
H           -1.53109374655206       -1.40296216144895        0.16788527539445
H           -0.63816045991583       -0.38682684008153       -0.98957037879315
H           -1.05502228125394        0.25854424856638        0.59504077687595
9
 energy: -13.293309213303 gnorm: 0.002098393184 xtb: 6.7.1 (edcfbbe)
C           -3.79825460490611       -0.62563173069134       -0.74598114996294
C           -2.70755028400760        0.17098779816301       -0.78255641768978
C           -1.39668412449521       -0.39049696179599       -0.20904021093859
O           -2.66326801815255        1.37127384860787       -1.25918225258154
H           -3.76369618682945       -1.61982141036406       -0.33226726103961
H           -4.74984405476642       -0.28979326130432       -1.13313628985047
H           -1.53567483550262       -1.40024682886504        0.16584415566406
H           -0.63631989568487       -0.38798539868295       -0.98924995960564
H           -1.05311699565517        0.25804794493281        0.59608238600452
9
 energy: -13.293313965417 gnorm: 0.001029047316 xtb: 6.7.1 (edcfbbe)
C           -3.79821217144880       -0.62545694404424       -0.74610469345404
C           -2.70671341974104        0.16992874138062       -0.78184358724761
C           -1.39613505720455       -0.38994470268577       -0.20910340975386
O           -2.66525756540247        1.36993690403694       -1.25893996927778
H           -3.76500796200316       -1.62047916068441       -0.33254195030327
H           -4.74895539309311       -0.28833603073613       -1.13352719854543
H           -1.53569861019179       -1.39948488945858        0.16581023146568
H           -0.63591120757102       -0.38816231833998       -0.98936508047919
H           -1.05251761334406        0.25833240053155        0.59612865759550
9
 energy: -13.293314999006 gnorm: 0.000413050497 xtb: 6.7.1 (edcfbbe)
C           -3.79828941070544       -0.62559931323398       -0.74616170519392
C           -2.70618512402872        0.16923894780026       -0.78126762371778
C           -1.39623550149643       -0.38943979953150       -0.20930907627409
O           -2.66656753212499        1.36891827031722       -1.25846018387056
H           -3.76663212901987       -1.62123953607900       -0.33297992401201
H           -4.74815924187764       -0.28687145570258       -1.13404062597045
H           -1.53460703066436       -1.39924290612742        0.16649412770672
H           -0.63580171473411       -0.38828556014736       -0.98956244627185
H           -1.05193131534845        0.25885535270436        0.59580045760394
