
                                 *****************
                                 * O   R   C   A *
                                 *****************

                                            #,                                       
                                            ###                                      
                                            ####                                     
                                            #####                                    
                                            ######                                   
                                           ########,                                 
                                     ,,################,,,,,                         
                               ,,#################################,,                 
                          ,,##########################################,,             
                       ,#########################################, ''#####,          
                    ,#############################################,,   '####,        
                  ,##################################################,,,,####,       
                ,###########''''           ''''###############################       
              ,#####''   ,,,,##########,,,,          '''####'''          '####       
            ,##' ,,,,###########################,,,                        '##       
           ' ,,###''''                  '''############,,,                           
         ,,##''                                '''############,,,,        ,,,,,,###''
      ,#''                                            '''#######################'''  
     '                                                          ''''####''''         
             ,#######,   #######,   ,#######,      ##                                
            ,#'     '#,  ##    ##  ,#'     '#,    #''#        ######   ,####,        
            ##       ##  ##   ,#'  ##            #'  '#       #        #'  '#        
            ##       ##  #######   ##           ,######,      #####,   #    #        
            '#,     ,#'  ##    ##  '#,     ,#' ,#      #,         ##   #,  ,#        
             '#######'   ##     ##  '#######'  #'      '#     #####' # '####'        



                  #######################################################
                  #                        -***-                        #
                  #          Department of theory and spectroscopy      #
                  #    Directorship and core code : Frank Neese         #
                  #        Max Planck Institute fuer Kohlenforschung    #
                  #                Kaiser Wilhelm Platz 1               #
                  #                 D-45470 Muelheim/Ruhr               #
                  #                      Germany                        #
                  #                                                     #
                  #                  All rights reserved                #
                  #                        -***-                        #
                  #######################################################


                         Program Version 5.0.4 -  RELEASE  -


 With contributions from (in alphabetic order):
   Daniel Aravena         : Magnetic Suceptibility
   Michael Atanasov       : Ab Initio Ligand Field Theory (pilot matlab implementation)
   Alexander A. Auer      : GIAO ZORA, VPT2 properties, NMR spectrum
   Ute Becker             : Parallelization
   Giovanni Bistoni       : ED, misc. LED, open-shell LED, HFLD
   Martin Brehm           : Molecular dynamics
   Dmytro Bykov           : SCF Hessian
   Vijay G. Chilkuri      : MRCI spin determinant printing, contributions to CSF-ICE
   Dipayan Datta          : RHF DLPNO-CCSD density
   Achintya Kumar Dutta   : EOM-CC, STEOM-CC
   Dmitry Ganyushin       : Spin-Orbit,Spin-Spin,Magnetic field MRCI
   Miquel Garcia          : C-PCM and meta-GGA Hessian, CC/C-PCM, Gaussian charge scheme
   Yang Guo               : DLPNO-NEVPT2, F12-NEVPT2, CIM, IAO-localization
   Andreas Hansen         : Spin unrestricted coupled pair/coupled cluster methods
   Benjamin Helmich-Paris : MC-RPA, TRAH-SCF, COSX integrals
   Lee Huntington         : MR-EOM, pCC
   Robert Izsak           : Overlap fitted RIJCOSX, COSX-SCS-MP3, EOM
   Marcus Kettner         : VPT2
   Christian Kollmar      : KDIIS, OOCD, Brueckner-CCSD(T), CCSD density, CASPT2, CASPT2-K
   Simone Kossmann        : Meta GGA functionals, TD-DFT gradient, OOMP2, MP2 Hessian
   Martin Krupicka        : Initial AUTO-CI
   Lucas Lang             : DCDCAS
   Marvin Lechner         : AUTO-CI (C++ implementation), FIC-MRCC
   Dagmar Lenk            : GEPOL surface, SMD
   Dimitrios Liakos       : Extrapolation schemes; Compound Job, initial MDCI parallelization
   Dimitrios Manganas     : Further ROCIS development; embedding schemes
   Dimitrios Pantazis     : SARC Basis sets
   Anastasios Papadopoulos: AUTO-CI, single reference methods and gradients
   Taras Petrenko         : DFT Hessian,TD-DFT gradient, ASA, ECA, R-Raman, ABS, FL, XAS/XES, NRVS
   Peter Pinski           : DLPNO-MP2, DLPNO-MP2 Gradient
   Christoph Reimann      : Effective Core Potentials
   Marius Retegan         : Local ZFS, SOC
   Christoph Riplinger    : Optimizer, TS searches, QM/MM, DLPNO-CCSD(T), (RO)-DLPNO pert. Triples
   Tobias Risthaus        : Range-separated hybrids, TD-DFT gradient, RPA, STAB
   Michael Roemelt        : Original ROCIS implementation
   Masaaki Saitow         : Open-shell DLPNO-CCSD energy and density
   Barbara Sandhoefer     : DKH picture change effects
   Avijit Sen             : IP-ROCIS
   Kantharuban Sivalingam : CASSCF convergence, NEVPT2, FIC-MRCI
   Bernardo de Souza      : ESD, SOC TD-DFT
   Georgi Stoychev        : AutoAux, RI-MP2 NMR, DLPNO-MP2 response
   Willem Van den Heuvel  : Paramagnetic NMR
   Boris Wezisla          : Elementary symmetry handling
   Frank Wennmohs         : Technical directorship


 We gratefully acknowledge several colleagues who have allowed us to
 interface, adapt or use parts of their codes:
   Stefan Grimme, W. Hujo, H. Kruse, P. Pracht,  : VdW corrections, initial TS optimization,
                  C. Bannwarth, S. Ehlert          DFT functionals, gCP, sTDA/sTD-DF
   Ed Valeev, F. Pavosevic, A. Kumar             : LibInt (2-el integral package), F12 methods
   Garnet Chan, S. Sharma, J. Yang, R. Olivares  : DMRG
   Ulf Ekstrom                                   : XCFun DFT Library
   Mihaly Kallay                                 : mrcc  (arbitrary order and MRCC methods)
   Jiri Pittner, Ondrej Demel                    : Mk-CCSD
   Frank Weinhold                                : gennbo (NPA and NBO analysis)
   Christopher J. Cramer and Donald G. Truhlar   : smd solvation model
   Lars Goerigk                                  : TD-DFT with DH, B97 family of functionals
   V. Asgeirsson, H. Jonsson                     : NEB implementation
   FAccTs GmbH                                   : IRC, NEB, NEB-TS, DLPNO-Multilevel, CI-OPT
                                                   MM, QMMM, 2- and 3-layer-ONIOM, Crystal-QMMM,
                                                   LR-CPCM, SF, NACMEs, symmetry and pop. for TD-DFT,
                                                   nearIR, NL-DFT gradient (VV10), updates on ESD,
                                                   ML-optimized integration grids
   S Lehtola, MJT Oliveira, MAL Marques          : LibXC Library
   Liviu Ungur et al                             : ANISO software


 Your calculation uses the libint2 library for the computation of 2-el integrals
 For citations please refer to: http://libint.valeyev.net

 Your ORCA version has been built with support for libXC version: 5.1.0
 For citations please refer to: https://tddft.org/programs/libxc/

 This ORCA versions uses:
   CBLAS   interface :  Fast vector & matrix operations
   LAPACKE interface :  Fast linear algebra routines
   SCALAPACK package :  Parallel linear algebra routines
   Shared memory     :  Shared parallel matrices
   BLAS/LAPACK       :  OpenBLAS 0.3.15  USE64BITINT DYNAMIC_ARCH NO_AFFINITY Haswell SINGLE_THREADED
        Core in use  :  Haswell
   Copyright (c) 2011-2014, The OpenBLAS Project


Your calculation utilizes the atom-pairwise dispersion correction
with the Becke-Johnson damping scheme (D3BJ)
Cite in your paper:
S.Grimme, S.Ehrlich, L.Goerigk, J Comput Chem, (2011), 32, 1456–1465 
S.Grimme, J.Antony, S.Ehrlich and H.Krieg, J.Chem.Phys., 132, (2010), 154104 
   

================================================================================

----- Orbital basis set information -----
Your calculation utilizes the basis: def2-TZVP
   F. Weigend and R. Ahlrichs, Phys. Chem. Chem. Phys. 7, 3297 (2005).

----- AuxJ basis set information -----
Your calculation utilizes the auxiliary basis: def2/J
   F. Weigend, Phys. Chem. Chem. Phys. 8, 1057 (2006).

================================================================================
                                        WARNINGS
                       Please study these warnings very carefully!
================================================================================


WARNING: Geometry Optimization
  ===> : Switching off AutoStart
         For restart on a previous wavefunction, please use MOREAD

INFO   : the flag for use of the SHARK integral package has been found!

================================================================================
                                       INPUT FILE
================================================================================
NAME = inp.inp
|  1> !OPT PBE D3BJ def2-TZVP CPCM(water)
|  2> 
|  3> *xyz -1 1
|  4> C     -7.135065   -4.408649    1.593848
|  5> H     -7.892421   -3.620659    1.537139
|  6> O     -7.634223   -5.613817    1.035649
|  7> H     -6.225232   -4.095843    1.072224
|  8> H     -6.892962   -4.587436    2.644767
|  9> O     -7.921586   -5.309305   -0.306079
| 10> *
| 11> 
| 12>                          ****END OF INPUT****
================================================================================

                       *****************************
                       * Geometry Optimization Run *
                       *****************************

Geometry optimization settings:
Update method            Update   .... BFGS
Choice of coordinates    CoordSys .... Z-matrix Internals
Initial Hessian          InHess   .... Almoef's Model

Convergence Tolerances:
Energy Change            TolE     ....  5.0000e-06 Eh
Max. Gradient            TolMAXG  ....  3.0000e-04 Eh/bohr
RMS Gradient             TolRMSG  ....  1.0000e-04 Eh/bohr
Max. Displacement        TolMAXD  ....  4.0000e-03 bohr
RMS Displacement         TolRMSD  ....  2.0000e-03 bohr
Strict Convergence                ....  False
------------------------------------------------------------------------------
                        ORCA OPTIMIZATION COORDINATE SETUP
------------------------------------------------------------------------------

The optimization will be done in new redundant internal coordinates
Making redundant internal coordinates   ...  (new redundants) done
Evaluating the initial hessian          ...  (Almloef) done
Evaluating the coordinates              ...  done
Calculating the B-matrix                .... done
Calculating the G-matrix                .... done
Diagonalizing the G-matrix              .... done
The first mode is                       ....    3
The number of degrees of freedom        ....   12

    -----------------------------------------------------------------
                    Redundant Internal Coordinates


    -----------------------------------------------------------------
         Definition                    Initial Value    Approx d2E/dq
    -----------------------------------------------------------------
      1. B(H   1,C   0)                  1.0944         0.354314   
      2. B(O   2,C   0)                  1.4189         0.503298   
      3. B(H   3,C   0)                  1.0944         0.354312   
      4. B(H   4,C   0)                  1.0932         0.355938   
      5. B(O   5,O   2)                  1.4055         0.473392   
      6. A(H   1,C   0,H   3)          110.1706         0.289365   
      7. A(H   1,C   0,O   2)          110.3487         0.337757   
      8. A(H   1,C   0,H   4)          108.7134         0.289572   
      9. A(O   2,C   0,H   4)          108.4940         0.338014   
     10. A(H   3,C   0,H   4)          108.7134         0.289572   
     11. A(O   2,C   0,H   3)          110.3486         0.337756   
     12. A(C   0,O   2,O   5)          105.2753         0.391027   
     13. D(O   5,O   2,C   0,H   3)    -60.9958         0.020034   
     14. D(O   5,O   2,C   0,H   4)   -180.0000         0.020034   
     15. D(O   5,O   2,C   0,H   1)     60.9958         0.020034   
    -----------------------------------------------------------------

Number of atoms                         .... 6
Number of degrees of freedom            .... 15

         *************************************************************
         *                GEOMETRY OPTIMIZATION CYCLE   1            *
         *************************************************************
---------------------------------
CARTESIAN COORDINATES (ANGSTROEM)
---------------------------------
  C     -7.135065   -4.408649    1.593848
  H     -7.892421   -3.620659    1.537139
  O     -7.634223   -5.613817    1.035649
  H     -6.225232   -4.095843    1.072224
  H     -6.892962   -4.587436    2.644767
  O     -7.921586   -5.309305   -0.306079

----------------------------
CARTESIAN COORDINATES (A.U.)
----------------------------
  NO LB      ZA    FRAG     MASS         X           Y           Z
   0 C     6.0000    0    12.011  -13.483319   -8.331139    3.011936
   1 H     1.0000    0     1.008  -14.914514   -6.842054    2.904772
   2 O     8.0000    0    15.999  -14.426591  -10.608577    1.957093
   3 H     1.0000    0     1.008  -11.763984   -7.740022    2.026210
   4 H     1.0000    0     1.008  -13.025810   -8.668998    4.997885
   5 O     8.0000    0    15.999  -14.969628  -10.033132   -0.578405

--------------------------------
INTERNAL COORDINATES (ANGSTROEM)
--------------------------------
 C      0   0   0     0.000000000000     0.00000000     0.00000000
 H      1   0   0     1.094409549263     0.00000000     0.00000000
 O      1   2   0     1.418863890861   110.34867809     0.00000000
 H      1   2   3     1.094410927806   110.17061196   122.09662254
 H      1   2   3     1.093164854237   108.71341482   241.12939429
 O      3   1   2     1.405538714478   105.27525045    60.99583853

---------------------------
INTERNAL COORDINATES (A.U.)
---------------------------
 C      0   0   0     0.000000000000     0.00000000     0.00000000
 H      1   0   0     2.068134326454     0.00000000     0.00000000
 O      1   2   0     2.681264175037   110.34867809     0.00000000
 H      1   2   3     2.068136931524   110.17061196   122.09662254
 H      1   2   3     2.065782193736   108.71341482   241.12939429
 O      3   1   2     2.656083240988   105.27525045    60.99583853

---------------------
BASIS SET INFORMATION
---------------------
There are 3 groups of distinct atoms

 Group   1 Type C   : 11s6p2d1f contracted to 5s3p2d1f pattern {62111/411/11/1}
 Group   2 Type H   : 5s1p contracted to 3s1p pattern {311/1}
 Group   3 Type O   : 11s6p2d1f contracted to 5s3p2d1f pattern {62111/411/11/1}

Atom   0C    basis set group =>   1
Atom   1H    basis set group =>   2
Atom   2O    basis set group =>   3
Atom   3H    basis set group =>   2
Atom   4H    basis set group =>   2
Atom   5O    basis set group =>   3
---------------------------------
AUXILIARY/J BASIS SET INFORMATION
---------------------------------
There are 3 groups of distinct atoms

 Group   1 Type C   : 12s5p4d2f1g contracted to 6s4p3d1f1g pattern {711111/2111/211/2/1}
 Group   2 Type H   : 5s2p1d contracted to 3s1p1d pattern {311/2/1}
 Group   3 Type O   : 12s5p4d2f1g contracted to 6s4p3d1f1g pattern {711111/2111/211/2/1}

Atom   0C    basis set group =>   1
Atom   1H    basis set group =>   2
Atom   2O    basis set group =>   3
Atom   3H    basis set group =>   2
Atom   4H    basis set group =>   2
Atom   5O    basis set group =>   3
------------------------------------------------------------------------------
                           ORCA GTO INTEGRAL CALCULATION
                           -- RI-GTO INTEGRALS CHOSEN --
------------------------------------------------------------------------------
------------------------------------------------------------------------------
                   ___                                                        
                  /   \      - P O W E R E D   B Y -                         
                 /     \                                                     
                 |  |  |   _    _      __       _____    __    __             
                 |  |  |  | |  | |    /  \     |  _  \  |  |  /  |          
                  \  \/   | |  | |   /    \    | | | |  |  | /  /          
                 / \  \   | |__| |  /  /\  \   | |_| |  |  |/  /          
                |  |  |   |  __  | /  /__\  \  |    /   |      \           
                |  |  |   | |  | | |   __   |  |    \   |  |\   \          
                \     /   | |  | | |  |  |  |  | |\  \  |  | \   \       
                 \___/    |_|  |_| |__|  |__|  |_| \__\ |__|  \__/        
                                                                              
                      - O R C A' S   B I G   F R I E N D -                    
                                      &                                       
                       - I N T E G R A L  F E E D E R -                       
                                                                              
 v1 FN, 2020, v2 2021                                                         
------------------------------------------------------------------------------


Reading SHARK input file inp.SHARKINP.tmp ... ok
----------------------
SHARK INTEGRAL PACKAGE
----------------------

Number of atoms                             ...      6
Number of basis functions                   ...    111
Number of shells                            ...     45
Maximum angular momentum                    ...      3
Integral batch strategy                     ... SHARK/LIBINT Hybrid
RI-J (if used) integral strategy            ... SPLIT-RIJ (Revised 2003 algorithm where possible)
Printlevel                                  ...      1
Contraction scheme used                     ... SEGMENTED contraction
Coulomb Range Separation                    ... NOT USED
Exchange Range Separation                   ... NOT USED
Finite Nucleus Model                        ... NOT USED
Auxiliary Coulomb fitting basis             ... AVAILABLE
   # of basis functions in Aux-J            ...    180
   # of shells in Aux-J                     ...     60
   Maximum angular momentum in Aux-J        ...      4
Auxiliary J/K fitting basis                 ... NOT available
Auxiliary Correlation fitting basis         ... NOT available
Auxiliary 'external' fitting basis          ... NOT available
Integral threshold                          ...     2.500000e-11
Primitive cut-off                           ...     2.500000e-12
Primitive pair pre-selection threshold      ...     2.500000e-12

Calculating pre-screening integrals         ... done (  0.0 sec) Dimension = 45
Organizing shell pair data                  ... done (  0.2 sec)
Shell pair information
Total number of shell pairs                 ...      1035
Shell pairs after pre-screening             ...      1022
Total number of primitive shell pairs       ...      3156
Primitive shell pairs kept                  ...      2640
          la=0 lb=0:    289 shell pairs
          la=1 lb=0:    287 shell pairs
          la=1 lb=1:     78 shell pairs
          la=2 lb=0:    143 shell pairs
          la=2 lb=1:     72 shell pairs
          la=2 lb=2:     21 shell pairs
          la=3 lb=0:     72 shell pairs
          la=3 lb=1:     36 shell pairs
          la=3 lb=2:     18 shell pairs
          la=3 lb=3:      6 shell pairs

Calculating one electron integrals          ... done (  0.0 sec)
Calculating RI/J V-Matrix + Cholesky decomp.... done (  0.2 sec)
Calculating Nuclear repulsion               ... done (  0.1 sec) ENN=     73.771186157092 Eh

SHARK setup successfully completed in   1.4 seconds

Maximum memory used throughout the entire GTOINT-calculation: 18.1 MB
-------------------------------------------------------------------------------
                                 ORCA SCF
-------------------------------------------------------------------------------

------------
SCF SETTINGS
------------
Hamiltonian:
 Density Functional     Method          .... DFT(GTOs)
 Exchange Functional    Exchange        .... PBE
   PBE kappa parameter   XKappa         ....  0.804000
   PBE mue parameter    XMuePBE         ....  0.219520
 Correlation Functional Correlation     .... PBE
   PBE beta parameter  CBetaPBE         ....  0.066725
 LDA part of GGA corr.  LDAOpt          .... PW91-LDA
 Gradients option       PostSCFGGA      .... off
   Density functional embedding theory  .... OFF
   NL short-range parameter             ....  6.400000
 RI-approximation to the Coulomb term is turned on
   Number of AuxJ basis functions       .... 180


General Settings:
 Integral files         IntName         .... inp
 Hartree-Fock type      HFTyp           .... RHF
 Total Charge           Charge          ....   -1
 Multiplicity           Mult            ....    1
 Number of Electrons    NEL             ....   26
 Basis Dimension        Dim             ....  111
 Nuclear Repulsion      ENuc            ....     73.7711861571 Eh

Convergence Acceleration:
 DIIS                   CNVDIIS         .... on
   Start iteration      DIISMaxIt       ....    12
   Startup error        DIISStart       ....  0.200000
   # of expansion vecs  DIISMaxEq       ....     5
   Bias factor          DIISBfac        ....   1.050
   Max. coefficient     DIISMaxC        ....  10.000
 Trust-Rad. Augm. Hess. CNVTRAH         .... auto
   Auto Start mean grad. ratio tolernc. ....  1.125000
   Auto Start start iteration           ....    20
   Auto Start num. interpolation iter.  ....    10
   Max. Number of Micro iterations      ....    16
   Max. Number of Macro iterations      .... Maxiter - #DIIS iter
   Number of Davidson start vectors     ....     2
   Converg. threshold I  (grad. norm)   ....   1.000e-05
   Converg. threshold II (energy diff.) ....   1.000e-08
   Grad. Scal. Fac. for Micro threshold ....   0.100
   Minimum threshold for Micro iter.    ....   0.010
   NR start threshold (gradient norm)   ....   0.001
   Initial trust radius                 ....   0.400
   Minimum AH scaling param. (alpha)    ....   1.000
   Maximum AH scaling param. (alpha)    .... 1000.000
   Orbital update algorithm             .... Taylor
   White noise on init. David. guess    .... on
   Maximum white noise                  ....   0.010
   Quad. conv. algorithm                .... NR
 SOSCF                  CNVSOSCF        .... on
   Start iteration      SOSCFMaxIt      ....   150
   Startup grad/error   SOSCFStart      ....  0.003300
 Level Shifting         CNVShift        .... on
   Level shift para.    LevelShift      ....    0.2500
   Turn off err/grad.   ShiftErr        ....    0.0010
 Zerner damping         CNVZerner       .... off
 Static damping         CNVDamp         .... on
   Fraction old density DampFac         ....    0.7000
   Max. Damping (<1)    DampMax         ....    0.9800
   Min. Damping (>=0)   DampMin         ....    0.0000
   Turn off err/grad.   DampErr         ....    0.1000
 Fernandez-Rico         CNVRico         .... off

SCF Procedure:
 Maximum # iterations   MaxIter         ....   125
 SCF integral mode      SCFMode         .... Direct
   Integral package                     .... SHARK and LIBINT hybrid scheme
 Reset frequency        DirectResetFreq ....    20
 Integral Threshold     Thresh          ....  2.500e-11 Eh
 Primitive CutOff       TCut            ....  2.500e-12 Eh

Convergence Tolerance:
 Convergence Check Mode ConvCheckMode   .... Total+1el-Energy
 Convergence forced     ConvForced      .... 0
 Energy Change          TolE            ....  1.000e-08 Eh
 1-El. energy change                    ....  1.000e-05 Eh
 Orbital Gradient       TolG            ....  1.000e-05
 Orbital Rotation angle TolX            ....  1.000e-05
 DIIS Error             TolErr          ....  5.000e-07


Diagonalization of the overlap matrix:
Smallest eigenvalue                        ... 1.635e-03
Time for diagonalization                   ...    0.002 sec
Threshold for overlap eigenvalues          ... 1.000e-08
Number of eigenvalues below threshold      ... 0
Time for construction of square roots      ...    0.179 sec
Total time needed                          ...    0.181 sec

Time for model grid setup =    0.165 sec

------------------------------
INITIAL GUESS: MODEL POTENTIAL
------------------------------
Loading Hartree-Fock densities                     ... done
Calculating cut-offs                               ... done
Initializing the effective Hamiltonian             ... done
Setting up the integral package (SHARK)            ... done
Starting the Coulomb interaction                   ... done (   0.2 sec)
Reading the grid                                   ... done
Mapping shells                                     ... done
Starting the XC term evaluation                    ... done (   0.1 sec)
  promolecular density results
     # of electrons  =     24.998350089
     EX              =    -22.192141120
     EC              =     -0.817420334
     EX+EC           =    -23.009561454
Transforming the Hamiltonian                       ... done (   0.0 sec)
Diagonalizing the Hamiltonian                      ... done (   0.0 sec)
Back transforming the eigenvectors                 ... done (   0.0 sec)
Now organizing SCF variables                       ... done
                      ------------------
                      INITIAL GUESS DONE (   0.5 sec)
                      ------------------
-------------------
DFT GRID GENERATION
-------------------

General Integration Accuracy     IntAcc      ... 4.388
Radial Grid Type                 RadialGrid  ... OptM3 with GC (2021)
Angular Grid (max. ang.)         AngularGrid ... 4 (Lebedev-302)
Angular grid pruning method      GridPruning ... 4 (adaptive)
Weight generation scheme         WeightScheme... Becke
Basis function cutoff            BFCut       ... 1.0000e-11
Integration weight cutoff        WCut        ... 1.0000e-14
Angular grids for H and He will be reduced by one unit
Partially contracted basis set               ... off
Rotationally invariant grid construction     ... off

Total number of grid points                  ...    28151
Total number of batches                      ...      443
Average number of points per batch           ...       63
Average number of grid points per atom       ...     4692
Time for grid setup =    0.488 sec


--------------------
CPCM SOLVATION MODEL
--------------------
CPCM parameters:
  Epsilon                                         ...      80.4000
  Refrac                                          ...       1.3300
  Rsolv                                           ...       1.3000
  Surface type                                    ... GAUSSIAN VDW
  Epsilon function type                           ...         CPCM
Radii:
 Radius for C  used is    3.8550 Bohr (=   2.0400 Ang.)
 Radius for H  used is    2.4944 Bohr (=   1.3200 Ang.)
 Radius for O  used is    3.4469 Bohr (=   1.8240 Ang.)
Calculating surface                               ...        done! (  0.0s)
GEPOL surface points                              ...          400
GEPOL Volume                                      ...     425.4269
GEPOL Surface-area                                ...     292.4158
Calculating surface distance matrix               ...        done! (  0.0s)
Performing Cholesky decomposition & store         ...        done! (  0.1s)
Overall time for CPCM initialization              ...                 0.1s
--------------
SCF ITERATIONS
--------------
ITER       Energy         Delta-E        Max-DP      RMS-DP      [F,P]     Damp
               ***  Starting incremental Fock matrix formation  ***
  0   -190.0775000484   0.000000000000 0.12001173  0.00370754  0.3273474 0.7000
  1   -190.1564824395  -0.078982391089 0.06914073  0.00287431  0.1051442 0.7000
                               ***Turning on DIIS***
  2   -190.1796046522  -0.023122212765 0.10897183  0.00414159  0.0244425 0.0000
  3   -190.2243107182  -0.044706066001 0.06680073  0.00219914  0.0589955 0.0000
  4   -190.2323642303  -0.008053512111 0.01777034  0.00061684  0.0260876 0.0000
  5   -190.2333575888  -0.000993358444 0.00946434  0.00032466  0.0054759 0.0000
                      *** Initiating the SOSCF procedure ***
                           *** Shutting down DIIS ***
                      *** Re-Reading the Fockian *** 
                      *** Removing any level shift *** 
ITER      Energy       Delta-E        Grad      Rot      Max-DP    RMS-DP
  6   -190.23342472  -0.0000671264  0.000687  0.000687  0.004857  0.000171
               *** Restarting incremental Fock matrix formation ***
  7   -190.23343502  -0.0000103055  0.000331  0.001428  0.005222  0.000155
  8   -190.23343477   0.0000002471  0.000551  0.000817  0.002175  0.000080
  9   -190.23343833  -0.0000035536  0.000104  0.000545  0.001892  0.000059
 10   -190.23343847  -0.0000001462  0.000069  0.000088  0.000270  0.000009
 11   -190.23343848  -0.0000000086  0.000071  0.000236  0.000810  0.000025
 12   -190.23343855  -0.0000000689  0.000021  0.000041  0.000147  0.000005
 13   -190.23343855  -0.0000000031  0.000021  0.000033  0.000117  0.000003
 14   -190.23343856  -0.0000000077  0.000004  0.000016  0.000063  0.000002
                 **** Energy Check signals convergence ****
              ***Rediagonalizing the Fockian in SOSCF/NRSCF***

               *****************************************************
               *                     SUCCESS                       *
               *           SCF CONVERGED AFTER  15 CYCLES          *
               *****************************************************


----------------
TOTAL SCF ENERGY
----------------

Total Energy       :         -190.23343856 Eh           -5176.51503 eV

Components:
Nuclear Repulsion  :           73.77118616 Eh            2007.41603 eV
Electronic Energy  :         -264.00462472 Eh           -7183.93106 eV
One Electron Energy:         -413.91540379 Eh          -11263.21075 eV
Two Electron Energy:          149.91077907 Eh            4079.27969 eV
CPCM Dielectric    :           -0.12548000 Eh              -3.41448 eV

Virial components:
Potential Energy   :         -379.87790774 Eh          -10337.00339 eV
Kinetic Energy     :          189.64446918 Eh            5160.48836 eV
Virial Ratio       :            2.00310565


DFT components:
N(Alpha)           :       13.000013633552 electrons
N(Beta)            :       13.000013633552 electrons
N(Total)           :       26.000027267104 electrons
E(X)               :      -22.841093481779 Eh       
E(C)               :       -0.853803720592 Eh       
E(XC)              :      -23.694897202372 Eh       
DFET-embed. en.    :        0.000000000000 Eh       
CPCM Solvation Model Properties:
Surface-charge          :            0.97485098
Charge-correction       :           -0.00474287 Eh              -0.12906 eV
Free-energy (cav+disp)  :  This term is not implemented in the current solvation scheme

---------------
SCF CONVERGENCE
---------------

  Last Energy change         ...   -1.2717e-09  Tolerance :   1.0000e-08
  Last MAX-Density change    ...    6.9842e-06  Tolerance :   1.0000e-07
  Last RMS-Density change    ...    2.0220e-07  Tolerance :   5.0000e-09
  Last Orbital Gradient      ...    2.2010e-06  Tolerance :   1.0000e-05
  Last Orbital Rotation      ...    1.3695e-06  Tolerance :   1.0000e-05

             **** THE GBW FILE WAS UPDATED (inp.gbw) ****
             **** DENSITY inp.scfp WAS UPDATED ****
             **** ENERGY FILE WAS UPDATED (inp.en.tmp) ****
             **** THE GBW FILE WAS UPDATED (inp.gbw) ****
             **** DENSITY inp.scfp WAS UPDATED ****
----------------
ORBITAL ENERGIES
----------------

  NO   OCC          E(Eh)            E(eV) 
   0   2.0000     -18.737548      -509.8746 
   1   2.0000     -18.642645      -507.2922 
   2   2.0000      -9.886848      -269.0348 
   3   2.0000      -0.940035       -25.5797 
   4   2.0000      -0.684893       -18.6369 
   5   2.0000      -0.552461       -15.0332 
   6   2.0000      -0.370671       -10.0865 
   7   2.0000      -0.370169       -10.0728 
   8   2.0000      -0.360697        -9.8151 
   9   2.0000      -0.271224        -7.3804 
  10   2.0000      -0.236456        -6.4343 
  11   2.0000      -0.124291        -3.3821 
  12   2.0000      -0.093603        -2.5471 
  13   0.0000       0.055632         1.5138 
  14   0.0000       0.078073         2.1245 
  15   0.0000       0.105779         2.8784 
  16   0.0000       0.121350         3.3021 
  17   0.0000       0.129384         3.5207 
  18   0.0000       0.206495         5.6190 
  19   0.0000       0.218103         5.9349 
  20   0.0000       0.296282         8.0623 
  21   0.0000       0.325994         8.8707 
  22   0.0000       0.396040        10.7768 
  23   0.0000       0.414919        11.2905 
  24   0.0000       0.428395        11.6572 
  25   0.0000       0.450070        12.2470 
  26   0.0000       0.453371        12.3368 
  27   0.0000       0.471318        12.8252 
  28   0.0000       0.509394        13.8613 
  29   0.0000       0.552111        15.0237 
  30   0.0000       0.553059        15.0495 
  31   0.0000       0.668306        18.1855 
  32   0.0000       0.734299        19.9813 
  33   0.0000       0.744556        20.2604 
  34   0.0000       0.793606        21.5951 
  35   0.0000       0.901523        24.5317 
  36   0.0000       0.943663        25.6784 
  37   0.0000       0.982510        26.7355 
  38   0.0000       1.278494        34.7896 
  39   0.0000       1.362641        37.0793 
  40   0.0000       1.412199        38.4279 
  41   0.0000       1.418523        38.6000 
  42   0.0000       1.476845        40.1870 
  43   0.0000       1.487636        40.4806 
  44   0.0000       1.526414        41.5358 
  45   0.0000       1.541793        41.9543 
  46   0.0000       1.637364        44.5550 
  47   0.0000       1.642835        44.7038 
  48   0.0000       1.807548        49.1859 
  49   0.0000       1.863530        50.7092 
  50   0.0000       1.907039        51.8932 
  51   0.0000       1.907293        51.9001 
  52   0.0000       1.968013        53.5524 
  53   0.0000       2.038455        55.4692 
  54   0.0000       2.106271        57.3145 
  55   0.0000       2.124673        57.8153 
  56   0.0000       2.210828        60.1597 
  57   0.0000       2.212345        60.2010 
  58   0.0000       2.256398        61.3997 
  59   0.0000       2.347474        63.8780 
  60   0.0000       2.448521        66.6277 
  61   0.0000       2.480676        67.5026 
  62   0.0000       2.508334        68.2552 
  63   0.0000       2.608112        70.9703 
  64   0.0000       2.676339        72.8269 
  65   0.0000       2.693473        73.2931 
  66   0.0000       2.706664        73.6521 
  67   0.0000       2.793561        76.0167 
  68   0.0000       2.822477        76.8035 
  69   0.0000       2.910330        79.1941 
  70   0.0000       2.954310        80.3909 
  71   0.0000       3.023010        82.2603 
  72   0.0000       3.155794        85.8735 
  73   0.0000       3.273414        89.0741 
  74   0.0000       3.316795        90.2546 
  75   0.0000       3.326407        90.5161 
  76   0.0000       3.448236        93.8313 
  77   0.0000       3.488058        94.9149 
  78   0.0000       3.533463        96.1504 
  79   0.0000       4.055473       110.3550 
  80   0.0000       4.065307       110.6226 
  81   0.0000       4.132238       112.4439 
  82   0.0000       4.299030       116.9826 
  83   0.0000       4.358493       118.6006 
  84   0.0000       4.685889       127.5095 
  85   0.0000       4.822983       131.2400 
  86   0.0000       4.928602       134.1141 
  87   0.0000       4.952896       134.7751 
  88   0.0000       5.112870       139.1283 
  89   0.0000       5.149788       140.1328 
  90   0.0000       5.169523       140.6699 
  91   0.0000       5.420790       147.5072 
  92   0.0000       5.502815       149.7392 
  93   0.0000       5.653983       153.8527 
  94   0.0000       5.743967       156.3013 
  95   0.0000       5.930962       161.3897 
  96   0.0000       6.053841       164.7334 
  97   0.0000       6.249207       170.0496 
  98   0.0000       6.293324       171.2501 
  99   0.0000       6.301281       171.4666 
 100   0.0000       6.349227       172.7712 
 101   0.0000       6.584066       179.1616 
 102   0.0000       6.619000       180.1121 
 103   0.0000       6.679481       181.7579 
 104   0.0000       6.901142       187.7896 
 105   0.0000       7.111939       193.5257 
 106   0.0000       7.136678       194.1989 
 107   0.0000       8.136333       221.4009 
 108   0.0000      22.058024       600.2293 
 109   0.0000      42.963077      1169.0848 
 110   0.0000      43.519803      1184.2340 

                    ********************************
                    * MULLIKEN POPULATION ANALYSIS *
                    ********************************

-----------------------
MULLIKEN ATOMIC CHARGES
-----------------------
   0 C :   -0.180899
   1 H :    0.063276
   2 O :   -0.246549
   3 H :    0.063033
   4 H :    0.084687
   5 O :   -0.783548
Sum of atomic charges:   -1.0000000

--------------------------------
MULLIKEN REDUCED ORBITAL CHARGES
--------------------------------
  0 C s       :     3.230262  s :     3.230262
      pz      :     1.027525  p :     2.849901
      px      :     1.010993
      py      :     0.811383
      dz2     :     0.020945  d :     0.093565
      dxz     :     0.007792
      dyz     :     0.011062
      dx2y2   :     0.020855
      dxy     :     0.032912
      f0      :     0.000779  f :     0.007170
      f+1     :     0.000365
      f-1     :     0.001259
      f+2     :     0.000910
      f-2     :     0.000888
      f+3     :     0.001165
      f-3     :     0.001804
  1 H s       :     0.916449  s :     0.916449
      pz      :     0.004304  p :     0.020276
      px      :     0.007686
      py      :     0.008286
  2 O s       :     3.794989  s :     3.794989
      pz      :     1.136943  p :     4.395152
      px      :     1.784584
      py      :     1.473625
      dz2     :     0.013610  d :     0.053548
      dxz     :     0.010637
      dyz     :     0.016432
      dx2y2   :     0.006408
      dxy     :     0.006460
      f0      :     0.000703  f :     0.002859
      f+1     :     0.000547
      f-1     :     0.000596
      f+2     :     0.000267
      f-2     :     0.000274
      f+3     :     0.000260
      f-3     :     0.000212
  3 H s       :     0.916691  s :     0.916691
      pz      :     0.006013  p :     0.020275
      px      :     0.009688
      py      :     0.004574
  4 H s       :     0.895430  s :     0.895430
      pz      :     0.011431  p :     0.019884
      px      :     0.004890
      py      :     0.003563
  5 O s       :     3.944075  s :     3.944075
      pz      :     0.999348  p :     4.812142
      px      :     1.921778
      py      :     1.891015
      dz2     :     0.011379  d :     0.025283
      dxz     :     0.007020
      dyz     :     0.005625
      dx2y2   :     0.000407
      dxy     :     0.000853
      f0      :     0.000871  f :     0.002048
      f+1     :     0.000529
      f-1     :     0.000461
      f+2     :     0.000069
      f-2     :     0.000111
      f+3     :     0.000002
      f-3     :     0.000005


                     *******************************
                     * LOEWDIN POPULATION ANALYSIS *
                     *******************************

----------------------
LOEWDIN ATOMIC CHARGES
----------------------
   0 C :   -0.467414
   1 H :    0.073268
   2 O :   -0.085822
   3 H :    0.073192
   4 H :    0.093848
   5 O :   -0.687072

-------------------------------
LOEWDIN REDUCED ORBITAL CHARGES
-------------------------------
  0 C s       :     2.900297  s :     2.900297
      pz      :     1.070991  p :     3.089234
      px      :     1.080385
      py      :     0.937858
      dz2     :     0.096099  d :     0.422983
      dxz     :     0.041309
      dyz     :     0.057478
      dx2y2   :     0.086771
      dxy     :     0.141326
      f0      :     0.004824  f :     0.054901
      f+1     :     0.002166
      f-1     :     0.009087
      f+2     :     0.010666
      f-2     :     0.007833
      f+3     :     0.009017
      f-3     :     0.011306
  1 H s       :     0.864311  s :     0.864311
      pz      :     0.012823  p :     0.062421
      px      :     0.024482
      py      :     0.025117
  2 O s       :     3.428145  s :     3.428145
      pz      :     1.214960  p :     4.487560
      px      :     1.735823
      py      :     1.536778
      dz2     :     0.048793  d :     0.159088
      dxz     :     0.033691
      dyz     :     0.046204
      dx2y2   :     0.013359
      dxy     :     0.017041
      f0      :     0.002851  f :     0.011028
      f+1     :     0.001856
      f-1     :     0.002974
      f+2     :     0.001039
      f-2     :     0.000902
      f+3     :     0.000735
      f-3     :     0.000671
  3 H s       :     0.864387  s :     0.864387
      pz      :     0.018653  p :     0.062421
      px      :     0.030508
      py      :     0.013260
  4 H s       :     0.844270  s :     0.844270
      pz      :     0.036093  p :     0.061883
      px      :     0.014864
      py      :     0.010926
  5 O s       :     3.715227  s :     3.715227
      pz      :     1.126558  p :     4.879875
      px      :     1.892272
      py      :     1.861045
      dz2     :     0.037235  d :     0.084632
      dxz     :     0.022440
      dyz     :     0.020756
      dx2y2   :     0.001375
      dxy     :     0.002827
      f0      :     0.002911  f :     0.007338
      f+1     :     0.001847
      f-1     :     0.001846
      f+2     :     0.000274
      f-2     :     0.000431
      f+3     :     0.000011
      f-3     :     0.000019


                      *****************************
                      * MAYER POPULATION ANALYSIS *
                      *****************************

  NA   - Mulliken gross atomic population
  ZA   - Total nuclear charge
  QA   - Mulliken gross atomic charge
  VA   - Mayer's total valence
  BVA  - Mayer's bonded valence
  FA   - Mayer's free valence

  ATOM       NA         ZA         QA         VA         BVA        FA
  0 C      6.1809     6.0000    -0.1809     3.9243     3.9243    -0.0000
  1 H      0.9367     1.0000     0.0633     0.9992     0.9992     0.0000
  2 O      8.2465     8.0000    -0.2465     1.9079     1.9079    -0.0000
  3 H      0.9370     1.0000     0.0630     0.9993     0.9993    -0.0000
  4 H      0.9153     1.0000     0.0847     0.9847     0.9847    -0.0000
  5 O      8.7835     8.0000    -0.7835     1.0040     1.0040    -0.0000

  Mayer bond orders larger than 0.100000
B(  0-C ,  1-H ) :   0.9565 B(  0-C ,  2-O ) :   1.0757 B(  0-C ,  3-H ) :   0.9564 
B(  0-C ,  4-H ) :   0.9382 B(  2-O ,  5-O ) :   0.8299 

-------
TIMINGS
-------

Total SCF time: 0 days 0 hours 0 min 22 sec 

Total time                  ....      22.609 sec
Sum of individual times     ....      18.309 sec  ( 81.0%)

Fock matrix formation       ....      16.755 sec  ( 74.1%)
  Split-RI-J                ....       0.871 sec  (  5.2% of F)
  XC integration            ....       8.339 sec  ( 49.8% of F)
    Basis function eval.    ....       1.352 sec  ( 16.2% of XC)
    Density eval.           ....       0.784 sec  (  9.4% of XC)
    XC-Functional eval.     ....       0.400 sec  (  4.8% of XC)
    XC-Potential eval.      ....       0.981 sec  ( 11.8% of XC)
Diagonalization             ....       0.014 sec  (  0.1%)
Density matrix formation    ....       0.001 sec  (  0.0%)
Population analysis         ....       0.158 sec  (  0.7%)
Initial guess               ....       0.298 sec  (  1.3%)
Orbital Transformation      ....       0.000 sec  (  0.0%)
Orbital Orthonormalization  ....       0.000 sec  (  0.0%)
DIIS solution               ....       0.171 sec  (  0.8%)
SOSCF solution              ....       0.259 sec  (  1.1%)
Grid generation             ....       0.653 sec  (  2.9%)

Maximum memory used throughout the entire SCF-calculation: 27.0 MB


-------------------------------------------------------------------------------
                          DFT DISPERSION CORRECTION                            
                                                                               
                              DFTD3 V3.1  Rev 1                                
                          USING Becke-Johnson damping                          
-------------------------------------------------------------------------------
The PBE functional is recognized
Active option DFTDOPT                   ...         4   

molecular C6(AA) [au] = 264.195490 


            DFT-D V3
 parameters
 s6 scaling factor         :     1.0000 
 a1 scaling factor         :     0.4289 
 s8 scaling factor         :     0.7875 
 a2 scaling factor         :     4.4407 
 ad hoc parameters k1-k3   :    16.0000     1.3333    -4.0000 

 Edisp/kcal,au: -1.397029299410  -0.002226307662 
 E6   /kcal   :  -1.019585920 
 E8   /kcal   :  -0.377443379 
 % E8         :  27.017570744 

-------------------------   ----------------
Dispersion correction           -0.002226308
-------------------------   ----------------


-------------------------   --------------------
FINAL SINGLE POINT ENERGY      -190.235664870556
-------------------------   --------------------

------------------------------------------------------------------------------
                         ORCA SCF GRADIENT CALCULATION
------------------------------------------------------------------------------

Gradient of the Kohn-Sham DFT energy:
Kohn-Sham wavefunction type      ... RKS
Hartree-Fock exchange scaling    ...    0.000
Number of operators              ...    1
Number of atoms                  ...    6
Basis set dimensions             ...  111
Integral neglect threshold       ... 2.5e-11
Integral primitive cutoff        ... 2.5e-12
SHARK Integral package           ... ON

Nuc. rep. gradient       (SHARK) ... done (  0.0 sec)
HCore & Overlap gradient (SHARK) ... done (  0.0 sec)
RI-J gradient            (SHARK) ... done (  0.3 sec)
Exchange-correlation gradient    ... done
Dispersion correction            ... done

------------------
CARTESIAN GRADIENT
------------------

   1   C   :    0.003332995    0.015589295   -0.002939858
   2   H   :    0.004597833   -0.007644892    0.002564498
   3   O   :   -0.011655940   -0.002295085   -0.040291141
   4   H   :   -0.005829720   -0.004665851    0.005345672
   5   H   :   -0.001358835    0.003004004   -0.007912738
   6   O   :    0.010913667   -0.003987471    0.043233567

Difference to translation invariance:
           :   -0.0000000000   -0.0000000000    0.0000000000

Difference to rotation invariance:
           :   -0.0002922714    0.0000189952    0.0005547383

Norm of the cartesian gradient     ...    0.0653865931
RMS gradient                       ...    0.0154117678
MAX gradient                       ...    0.0432335673

-------
TIMINGS
-------

Total SCF gradient time            ...        2.263 sec

One electron gradient       ....       0.034 sec  (  1.5%)
RI-J Coulomb gradient       ....       0.298 sec  ( 13.2%)
XC gradient                 ....       1.129 sec  ( 49.9%)
CPCM gradient               ....       0.103 sec  (  4.6%)
   A-Matrix (El+Nuc)        ....       0.009 sec  (  0.4%)
   Potential                ....       0.094 sec  (  4.2%)

Maximum memory used throughout the entire SCFGRAD-calculation: 40.2 MB
------------------------------------------------------------------------------
                         ORCA GEOMETRY RELAXATION STEP
------------------------------------------------------------------------------

Reading the OPT-File                    .... done
Getting information on internals        .... done
Copying old internal coords+grads       .... done
Making the new internal coordinates     .... (new redundants).... done
Validating the new internal coordinates .... (new redundants).... done
Calculating the B-matrix                .... done
Calculating the G,G- and P matrices     .... done
Transforming gradient to internals      .... done
Projecting the internal gradient        .... done
Number of atoms                         ....   6
Number of internal coordinates          ....  15
Current Energy                          ....  -190.235664871 Eh
Current gradient norm                   ....     0.065386593 Eh/bohr
Maximum allowed component of the step   ....  0.300
Current trust radius                    ....  0.300
Evaluating the initial hessian          ....  (Almloef) done
Projecting the Hessian                  .... done
Forming the augmented Hessian           .... done
Diagonalizing the augmented Hessian     .... done
Last element of RFO vector              ....  0.993825946
Lowest eigenvalues of augmented Hessian:
 -0.005514780  0.020034511  0.187029772  0.191524180  0.313404197
Length of the computed step             ....  0.111639662
The final length of the internal step   ....  0.111639662
Converting the step to cartesian space:
 Initial RMS(Int)=    0.0288252367
Transforming coordinates:
 Iter   0:  RMS(Cart)=    0.0310941228 RMS(Int)=    0.0290761769
 Iter   1:  RMS(Cart)=    0.0005957039 RMS(Int)=    0.0005286491
 Iter   2:  RMS(Cart)=    0.0000166670 RMS(Int)=    0.0000204153
 Iter   3:  RMS(Cart)=    0.0000004519 RMS(Int)=    0.0000002753
 Iter   4:  RMS(Cart)=    0.0000000157 RMS(Int)=    0.0000000184
done
Storing new coordinates                 .... done

                                .--------------------.
          ----------------------|Geometry convergence|-------------------------
          Item                value                   Tolerance       Converged
          ---------------------------------------------------------------------
          RMS gradient        0.0128858964            0.0001000000      NO
          MAX gradient        0.0443357542            0.0003000000      NO
          RMS step            0.0288252367            0.0020000000      NO
          MAX step            0.0925769103            0.0040000000      NO
          ........................................................
          Max(Bonds)      0.0490      Max(Angles)    2.31
          Max(Dihed)        0.52      Max(Improp)    0.00
          ---------------------------------------------------------------------

The optimization has not yet converged - more geometry cycles are needed


    ---------------------------------------------------------------------------
                         Redundant Internal Coordinates
                            (Angstroem and degrees)

        Definition                    Value    dE/dq     Step     New-Value
    ----------------------------------------------------------------------------
     1. B(H   1,C   0)                1.0944 -0.008833  0.0130    1.1074   
     2. B(O   2,C   0)                1.4189  0.004414 -0.0046    1.4143   
     3. B(H   3,C   0)                1.0944 -0.008727  0.0128    1.1072   
     4. B(H   4,C   0)                1.0932 -0.008392  0.0123    1.1055   
     5. B(O   5,O   2)                1.4055 -0.044336  0.0490    1.4545   
     6. A(H   1,C   0,H   3)          110.17  0.003225   -0.82    109.35   
     7. A(H   1,C   0,O   2)          110.35 -0.000739    0.08    110.42   
     8. A(H   1,C   0,H   4)          108.71 -0.001670    0.42    109.14   
     9. A(O   2,C   0,H   4)          108.49  0.001816   -0.21    108.28   
    10. A(H   3,C   0,H   4)          108.71 -0.001612    0.42    109.13   
    11. A(O   2,C   0,H   3)          110.35 -0.001072    0.14    110.48   
    12. A(C   0,O   2,O   5)          105.28 -0.016003    2.31    107.59   
    13. D(O   5,O   2,C   0,H   3)    -61.00 -0.001474    0.52    -60.48   
    14. D(O   5,O   2,C   0,H   4)   -180.00  0.000013    0.05   -179.95   
    15. D(O   5,O   2,C   0,H   1)     61.00  0.001374   -0.37     60.62   
    ----------------------------------------------------------------------------

         *************************************************************
         *                GEOMETRY OPTIMIZATION CYCLE   2            *
         *************************************************************
---------------------------------
CARTESIAN COORDINATES (ANGSTROEM)
---------------------------------
  C     -7.131554   -4.406816    1.604215
  H     -7.892903   -3.604981    1.543047
  O     -7.630481   -5.605031    1.042502
  H     -6.214504   -4.083151    1.074826
  H     -6.889240   -4.596225    2.666020
  O     -7.942806   -5.339505   -0.353063

----------------------------
CARTESIAN COORDINATES (A.U.)
----------------------------
  NO LB      ZA    FRAG     MASS         X           Y           Z
   0 C     6.0000    0    12.011  -13.476684   -8.327676    3.031528
   1 H     1.0000    0     1.008  -14.915426   -6.812427    2.915936
   2 O     8.0000    0    15.999  -14.419519  -10.591973    1.970044
   3 H     1.0000    0     1.008  -11.743711   -7.716038    2.031126
   4 H     1.0000    0     1.008  -13.018777   -8.685606    5.038048
   5 O     8.0000    0    15.999  -15.009729  -10.090201   -0.667192

--------------------------------
INTERNAL COORDINATES (ANGSTROEM)
--------------------------------
 C      0   0   0     0.000000000000     0.00000000     0.00000000
 H      1   0   0     1.107399569585     0.00000000     0.00000000
 O      1   2   0     1.414272807623   110.42468423     0.00000000
 H      1   2   3     1.107245615101   109.35064360   121.77316870
 H      1   2   3     1.105450858924   109.13647945   241.08624182
 O      3   1   2     1.454528304675   107.58750043    60.62112880

---------------------------
INTERNAL COORDINATES (A.U.)
---------------------------
 C      0   0   0     0.000000000000     0.00000000     0.00000000
 H      1   0   0     2.092681907338     0.00000000     0.00000000
 O      1   2   0     2.672588285060   110.42468423     0.00000000
 H      1   2   3     2.092390975526   109.35064360   121.77316870
 H      1   2   3     2.088999377875   109.13647945   241.08624182
 O      3   1   2     2.748660149873   107.58750043    60.62112880

------------------------------------------------------------------------------
                   ___                                                        
                  /   \      - P O W E R E D   B Y -                         
                 /     \                                                     
                 |  |  |   _    _      __       _____    __    __             
                 |  |  |  | |  | |    /  \     |  _  \  |  |  /  |          
                  \  \/   | |  | |   /    \    | | | |  |  | /  /          
                 / \  \   | |__| |  /  /\  \   | |_| |  |  |/  /          
                |  |  |   |  __  | /  /__\  \  |    /   |      \           
                |  |  |   | |  | | |   __   |  |    \   |  |\   \          
                \     /   | |  | | |  |  |  |  | |\  \  |  | \   \       
                 \___/    |_|  |_| |__|  |__|  |_| \__\ |__|  \__/        
                                                                              
                      - O R C A' S   B I G   F R I E N D -                    
                                      &                                       
                       - I N T E G R A L  F E E D E R -                       
                                                                              
 v1 FN, 2020, v2 2021                                                         
------------------------------------------------------------------------------


Reading SHARK input file inp.SHARKINP.tmp ... ok
----------------------
SHARK INTEGRAL PACKAGE
----------------------

Number of atoms                             ...      6
Number of basis functions                   ...    111
Number of shells                            ...     45
Maximum angular momentum                    ...      3
Integral batch strategy                     ... SHARK/LIBINT Hybrid
RI-J (if used) integral strategy            ... SPLIT-RIJ (Revised 2003 algorithm where possible)
Printlevel                                  ...      1
Contraction scheme used                     ... SEGMENTED contraction
Coulomb Range Separation                    ... NOT USED
Exchange Range Separation                   ... NOT USED
Finite Nucleus Model                        ... NOT USED
Auxiliary Coulomb fitting basis             ... AVAILABLE
   # of basis functions in Aux-J            ...    180
   # of shells in Aux-J                     ...     60
   Maximum angular momentum in Aux-J        ...      4
Auxiliary J/K fitting basis                 ... NOT available
Auxiliary Correlation fitting basis         ... NOT available
Auxiliary 'external' fitting basis          ... NOT available
Integral threshold                          ...     2.500000e-11
Primitive cut-off                           ...     2.500000e-12
Primitive pair pre-selection threshold      ...     2.500000e-12

Calculating pre-screening integrals         ... done (  0.0 sec) Dimension = 45
Organizing shell pair data                  ... done (  0.2 sec)
Shell pair information
Total number of shell pairs                 ...      1035
Shell pairs after pre-screening             ...      1019
Total number of primitive shell pairs       ...      3156
Primitive shell pairs kept                  ...      2615
          la=0 lb=0:    287 shell pairs
          la=1 lb=0:    287 shell pairs
          la=1 lb=1:     78 shell pairs
          la=2 lb=0:    142 shell pairs
          la=2 lb=1:     72 shell pairs
          la=2 lb=2:     21 shell pairs
          la=3 lb=0:     72 shell pairs
          la=3 lb=1:     36 shell pairs
          la=3 lb=2:     18 shell pairs
          la=3 lb=3:      6 shell pairs

Calculating one electron integrals          ... done (  0.0 sec)
Calculating RI/J V-Matrix + Cholesky decomp.... done (  0.3 sec)
Calculating Nuclear repulsion               ... done (  0.0 sec) ENN=     72.425409603960 Eh

SHARK setup successfully completed in   1.1 seconds

Maximum memory used throughout the entire GTOINT-calculation: 18.0 MB

Diagonalization of the overlap matrix:
Smallest eigenvalue                        ... 1.718e-03
Time for diagonalization                   ...    0.003 sec
Threshold for overlap eigenvalues          ... 1.000e-08
Number of eigenvalues below threshold      ... 0
Time for construction of square roots      ...    0.091 sec
Total time needed                          ...    0.094 sec

-------------------
DFT GRID GENERATION
-------------------

General Integration Accuracy     IntAcc      ... 4.388
Radial Grid Type                 RadialGrid  ... OptM3 with GC (2021)
Angular Grid (max. ang.)         AngularGrid ... 4 (Lebedev-302)
Angular grid pruning method      GridPruning ... 4 (adaptive)
Weight generation scheme         WeightScheme... Becke
Basis function cutoff            BFCut       ... 1.0000e-11
Integration weight cutoff        WCut        ... 1.0000e-14
Angular grids for H and He will be reduced by one unit
Partially contracted basis set               ... off
Rotationally invariant grid construction     ... off

Total number of grid points                  ...    28156
Total number of batches                      ...      443
Average number of points per batch           ...       63
Average number of grid points per atom       ...     4693
Time for grid setup =    0.370 sec


--------------------
CPCM SOLVATION MODEL
--------------------
CPCM parameters:
  Epsilon                                         ...      80.4000
  Refrac                                          ...       1.3300
  Rsolv                                           ...       1.3000
  Surface type                                    ... GAUSSIAN VDW
  Epsilon function type                           ...         CPCM
Radii:
 Radius for C  used is    3.8550 Bohr (=   2.0400 Ang.)
 Radius for H  used is    2.4944 Bohr (=   1.3200 Ang.)
 Radius for O  used is    3.4469 Bohr (=   1.8240 Ang.)
Calculating surface                               ...        done! (  0.0s)
GEPOL surface points                              ...          406
GEPOL Volume                                      ...     428.7679
GEPOL Surface-area                                ...     296.2910
Calculating surface distance matrix               ...        done! (  0.0s)
Performing Cholesky decomposition & store         ...        done! (  0.2s)
Overall time for CPCM initialization              ...                 0.2s
--------------
SCF ITERATIONS
--------------
ITER       Energy         Delta-E        Max-DP      RMS-DP      [F,P]     Damp
               ***  Starting incremental Fock matrix formation  ***
  0   -190.2351600860   0.000000000000 0.00345107  0.00015634  0.0157557 0.7000
                      *** Initiating the SOSCF procedure ***
                      *** Re-Reading the Fockian *** 
                      *** Removing any level shift *** 
ITER      Energy       Delta-E        Grad      Rot      Max-DP    RMS-DP
  1   -190.23563627  -0.0004761880  0.001984  0.001984  0.012040  0.000565
               *** Restarting incremental Fock matrix formation ***
  2   -190.23682867  -0.0011923971  0.001121  0.003083  0.004475  0.000195
  3   -190.23681473   0.0000139455  0.002108  0.001380  0.002076  0.000093
  4   -190.23685143  -0.0000367084  0.000458  0.001270  0.001379  0.000067
  5   -190.23685020   0.0000012358  0.000480  0.000496  0.000955  0.000042
  6   -190.23685597  -0.0000057717  0.000163  0.000628  0.000940  0.000042
  7   -190.23685622  -0.0000002534  0.000107  0.000212  0.000408  0.000016
  8   -190.23685653  -0.0000003083  0.000041  0.000107  0.000114  0.000006
  9   -190.23685655  -0.0000000166  0.000026  0.000064  0.000061  0.000003
                  ***Gradient check signals convergence***
              ***Rediagonalizing the Fockian in SOSCF/NRSCF***

               *****************************************************
               *                     SUCCESS                       *
               *           SCF CONVERGED AFTER  10 CYCLES          *
               *****************************************************

Total Energy       :         -190.23685657 Eh           -5176.60804 eV
  Last Energy change         ...   -2.2245e-08  Tolerance :   1.0000e-08
  Last MAX-Density change    ...    3.2135e-06  Tolerance :   1.0000e-07
             **** THE GBW FILE WAS UPDATED (inp.gbw) ****
             **** DENSITY inp.scfp WAS UPDATED ****
             **** ENERGY FILE WAS UPDATED (inp.en.tmp) ****
             **** THE GBW FILE WAS UPDATED (inp.gbw) ****
             **** DENSITY inp.scfp WAS UPDATED ****
Total SCF time: 0 days 0 hours 0 min 13 sec 

Maximum memory used throughout the entire SCF-calculation: 26.9 MB


-------------------------------------------------------------------------------
                          DFT DISPERSION CORRECTION                            
                                                                               
                              DFTD3 V3.1  Rev 1                                
                          USING Becke-Johnson damping                          
-------------------------------------------------------------------------------
-------------------------   ----------------
Dispersion correction           -0.002211699
-------------------------   ----------------


-------------------------   --------------------
FINAL SINGLE POINT ENERGY      -190.239068269096
-------------------------   --------------------

------------------------------------------------------------------------------
                         ORCA SCF GRADIENT CALCULATION
------------------------------------------------------------------------------

Gradient of the Kohn-Sham DFT energy:
Kohn-Sham wavefunction type      ... RKS
Hartree-Fock exchange scaling    ...    0.000
Number of operators              ...    1
Number of atoms                  ...    6
Basis set dimensions             ...  111
Integral neglect threshold       ... 2.5e-11
Integral primitive cutoff        ... 2.5e-12
SHARK Integral package           ... ON

Nuc. rep. gradient       (SHARK) ... done (  0.0 sec)
HCore & Overlap gradient (SHARK) ... done (  0.0 sec)
RI-J gradient            (SHARK) ... done (  0.3 sec)
Exchange-correlation gradient    ... done
Dispersion correction            ... done

------------------
CARTESIAN GRADIENT
------------------

   1   C   :    0.002595859    0.006837891    0.002477056
   2   H   :   -0.000775222   -0.002611759    0.000498171
   3   O   :   -0.004786475   -0.000038707   -0.017633047
   4   H   :   -0.000525545   -0.002609942    0.000476909
   5   H   :    0.000556204    0.001474886    0.000473707
   6   O   :    0.002935179   -0.003052369    0.013707204

Difference to translation invariance:
           :   -0.0000000000    0.0000000000    0.0000000000

Difference to rotation invariance:
           :   -0.0005590565    0.0000178093    0.0006564649

Norm of the cartesian gradient     ...    0.0248391187
RMS gradient                       ...    0.0058546364
MAX gradient                       ...    0.0176330472

-------
TIMINGS
-------

Total SCF gradient time            ...        2.012 sec

One electron gradient       ....       0.034 sec  (  1.7%)
RI-J Coulomb gradient       ....       0.296 sec  ( 14.7%)
XC gradient                 ....       1.103 sec  ( 54.8%)
CPCM gradient               ....       0.104 sec  (  5.2%)
   A-Matrix (El+Nuc)        ....       0.009 sec  (  0.5%)
   Potential                ....       0.094 sec  (  4.7%)

Maximum memory used throughout the entire SCFGRAD-calculation: 40.2 MB
------------------------------------------------------------------------------
                         ORCA GEOMETRY RELAXATION STEP
------------------------------------------------------------------------------

Reading the OPT-File                    .... done
Getting information on internals        .... done
Copying old internal coords+grads       .... done
Making the new internal coordinates     .... (new redundants).... done
Validating the new internal coordinates .... (new redundants).... done
Calculating the B-matrix                .... done
Calculating the G,G- and P matrices     .... done
Transforming gradient to internals      .... done
Projecting the internal gradient        .... done
Number of atoms                         ....   6
Number of internal coordinates          ....  15
Current Energy                          ....  -190.239068269 Eh
Current gradient norm                   ....     0.024839119 Eh/bohr
Maximum allowed component of the step   ....  0.300
Current trust radius                    ....  0.300
Updating the Hessian (BFGS)             .... done
Forming the augmented Hessian           .... done
Diagonalizing the augmented Hessian     .... done
Last element of RFO vector              ....  0.998476532
Lowest eigenvalues of augmented Hessian:
 -0.000882273  0.020033746  0.185567357  0.191523468  0.280044353
Length of the computed step             ....  0.055262216
The final length of the internal step   ....  0.055262216
Converting the step to cartesian space:
 Initial RMS(Int)=    0.0142686429
Transforming coordinates:
 Iter   0:  RMS(Cart)=    0.0101911404 RMS(Int)=    0.0142789823
 Iter   1:  RMS(Cart)=    0.0000539421 RMS(Int)=    0.0000542476
 Iter   2:  RMS(Cart)=    0.0000006982 RMS(Int)=    0.0000005701
 Iter   3:  RMS(Cart)=    0.0000000072 RMS(Int)=    0.0000000057
done
Storing new coordinates                 .... done

                                .--------------------.
          ----------------------|Geometry convergence|-------------------------
          Item                value                   Tolerance       Converged
          ---------------------------------------------------------------------
          Energy change      -0.0034033985            0.0000050000      NO
          RMS gradient        0.0041822314            0.0001000000      NO
          MAX gradient        0.0142916122            0.0003000000      NO
          RMS step            0.0142686429            0.0020000000      NO
          MAX step            0.0466126849            0.0040000000      NO
          ........................................................
          Max(Bonds)      0.0247      Max(Angles)    0.85
          Max(Dihed)        0.29      Max(Improp)    0.00
          ---------------------------------------------------------------------

The optimization has not yet converged - more geometry cycles are needed


    ---------------------------------------------------------------------------
                         Redundant Internal Coordinates
                            (Angstroem and degrees)

        Definition                    Value    dE/dq     Step     New-Value
    ----------------------------------------------------------------------------
     1. B(H   1,C   0)                1.1074 -0.001405  0.0036    1.1110   
     2. B(O   2,C   0)                1.4143  0.004790 -0.0071    1.4072   
     3. B(H   3,C   0)                1.1072 -0.001428  0.0037    1.1109   
     4. B(H   4,C   0)                1.1055  0.000336  0.0001    1.1055   
     5. B(O   5,O   2)                1.4545 -0.014292  0.0247    1.4792   
     6. A(H   1,C   0,H   3)          109.35  0.002940   -0.85    108.50   
     7. A(H   1,C   0,O   2)          110.42 -0.002514    0.59    111.01   
     8. A(H   1,C   0,H   4)          109.14 -0.000358    0.15    109.28   
     9. A(O   2,C   0,H   4)          108.28  0.002863   -0.64    107.64   
    10. A(H   3,C   0,H   4)          109.13 -0.000388    0.16    109.29   
    11. A(O   2,C   0,H   3)          110.48 -0.002525    0.59    111.08   
    12. A(C   0,O   2,O   5)          107.59  0.001077   -0.07    107.51   
    13. D(O   5,O   2,C   0,H   3)    -60.48 -0.000226    0.29    -60.19   
    14. D(O   5,O   2,C   0,H   4)   -179.95 -0.000025    0.14   -179.81   
    15. D(O   5,O   2,C   0,H   1)     60.62  0.000135    0.00     60.62   
    ----------------------------------------------------------------------------

         *************************************************************
         *                GEOMETRY OPTIMIZATION CYCLE   3            *
         *************************************************************
---------------------------------
CARTESIAN COORDINATES (ANGSTROEM)
---------------------------------
  C     -7.132219   -4.409068    1.604877
  H     -7.889261   -3.598227    1.543212
  O     -7.628353   -5.605472    1.054797
  H     -6.214727   -4.075776    1.074554
  H     -6.890659   -4.603173    2.666076
  O     -7.946270   -5.343993   -0.365968

----------------------------
CARTESIAN COORDINATES (A.U.)
----------------------------
  NO LB      ZA    FRAG     MASS         X           Y           Z
   0 C     6.0000    0    12.011  -13.477941   -8.331931    3.032777
   1 H     1.0000    0     1.008  -14.908542   -6.799664    2.916249
   2 O     8.0000    0    15.999  -14.415499  -10.592807    1.993278
   3 H     1.0000    0     1.008  -11.744132   -7.702101    2.030613
   4 H     1.0000    0     1.008  -13.021458   -8.698735    5.038153
   5 O     8.0000    0    15.999  -15.016275  -10.098683   -0.691579

--------------------------------
INTERNAL COORDINATES (ANGSTROEM)
--------------------------------
 C      0   0   0     0.000000000000     0.00000000     0.00000000
 H      1   0   0     1.111025592345     0.00000000     0.00000000
 O      1   2   0     1.407166951452   111.01205611     0.00000000
 H      1   2   3     1.110908472328   108.49991844   122.32982468
 H      1   2   3     1.105518279344   109.28712725   241.42561832
 O      3   1   2     1.479194675186   107.51492808    60.62481348

---------------------------
INTERNAL COORDINATES (A.U.)
---------------------------
 C      0   0   0     0.000000000000     0.00000000     0.00000000
 H      1   0   0     2.099534097310     0.00000000     0.00000000
 O      1   2   0     2.659160162948   111.01205611     0.00000000
 H      1   2   3     2.099312772553   108.49991844   122.32982468
 H      1   2   3     2.089126784004   109.28712725   241.42561832
 O      3   1   2     2.795272834857   107.51492808    60.62481348

------------------------------------------------------------------------------
                   ___                                                        
                  /   \      - P O W E R E D   B Y -                         
                 /     \                                                     
                 |  |  |   _    _      __       _____    __    __             
                 |  |  |  | |  | |    /  \     |  _  \  |  |  /  |          
                  \  \/   | |  | |   /    \    | | | |  |  | /  /          
                 / \  \   | |__| |  /  /\  \   | |_| |  |  |/  /          
                |  |  |   |  __  | /  /__\  \  |    /   |      \           
                |  |  |   | |  | | |   __   |  |    \   |  |\   \          
                \     /   | |  | | |  |  |  |  | |\  \  |  | \   \       
                 \___/    |_|  |_| |__|  |__|  |_| \__\ |__|  \__/        
                                                                              
                      - O R C A' S   B I G   F R I E N D -                    
                                      &                                       
                       - I N T E G R A L  F E E D E R -                       
                                                                              
 v1 FN, 2020, v2 2021                                                         
------------------------------------------------------------------------------


Reading SHARK input file inp.SHARKINP.tmp ... ok
----------------------
SHARK INTEGRAL PACKAGE
----------------------

Number of atoms                             ...      6
Number of basis functions                   ...    111
Number of shells                            ...     45
Maximum angular momentum                    ...      3
Integral batch strategy                     ... SHARK/LIBINT Hybrid
RI-J (if used) integral strategy            ... SPLIT-RIJ (Revised 2003 algorithm where possible)
Printlevel                                  ...      1
Contraction scheme used                     ... SEGMENTED contraction
Coulomb Range Separation                    ... NOT USED
Exchange Range Separation                   ... NOT USED
Finite Nucleus Model                        ... NOT USED
Auxiliary Coulomb fitting basis             ... AVAILABLE
   # of basis functions in Aux-J            ...    180
   # of shells in Aux-J                     ...     60
   Maximum angular momentum in Aux-J        ...      4
Auxiliary J/K fitting basis                 ... NOT available
Auxiliary Correlation fitting basis         ... NOT available
Auxiliary 'external' fitting basis          ... NOT available
Integral threshold                          ...     2.500000e-11
Primitive cut-off                           ...     2.500000e-12
Primitive pair pre-selection threshold      ...     2.500000e-12

Calculating pre-screening integrals         ... done (  0.0 sec) Dimension = 45
Organizing shell pair data                  ... done (  0.3 sec)
Shell pair information
Total number of shell pairs                 ...      1035
Shell pairs after pre-screening             ...      1019
Total number of primitive shell pairs       ...      3156
Primitive shell pairs kept                  ...      2613
          la=0 lb=0:    287 shell pairs
          la=1 lb=0:    287 shell pairs
          la=1 lb=1:     78 shell pairs
          la=2 lb=0:    142 shell pairs
          la=2 lb=1:     72 shell pairs
          la=2 lb=2:     21 shell pairs
          la=3 lb=0:     72 shell pairs
          la=3 lb=1:     36 shell pairs
          la=3 lb=2:     18 shell pairs
          la=3 lb=3:      6 shell pairs

Calculating one electron integrals          ... done (  0.0 sec)
Calculating RI/J V-Matrix + Cholesky decomp.... done (  0.3 sec)
Calculating Nuclear repulsion               ... done (  0.0 sec) ENN=     72.026319967870 Eh

SHARK setup successfully completed in   1.1 seconds

Maximum memory used throughout the entire GTOINT-calculation: 18.0 MB

Diagonalization of the overlap matrix:
Smallest eigenvalue                        ... 1.732e-03
Time for diagonalization                   ...    0.003 sec
Threshold for overlap eigenvalues          ... 1.000e-08
Number of eigenvalues below threshold      ... 0
Time for construction of square roots      ...    0.079 sec
Total time needed                          ...    0.082 sec

-------------------
DFT GRID GENERATION
-------------------

General Integration Accuracy     IntAcc      ... 4.388
Radial Grid Type                 RadialGrid  ... OptM3 with GC (2021)
Angular Grid (max. ang.)         AngularGrid ... 4 (Lebedev-302)
Angular grid pruning method      GridPruning ... 4 (adaptive)
Weight generation scheme         WeightScheme... Becke
Basis function cutoff            BFCut       ... 1.0000e-11
Integration weight cutoff        WCut        ... 1.0000e-14
Angular grids for H and He will be reduced by one unit
Partially contracted basis set               ... off
Rotationally invariant grid construction     ... off

Total number of grid points                  ...    28156
Total number of batches                      ...      443
Average number of points per batch           ...       63
Average number of grid points per atom       ...     4693
Time for grid setup =    0.242 sec


--------------------
CPCM SOLVATION MODEL
--------------------
CPCM parameters:
  Epsilon                                         ...      80.4000
  Refrac                                          ...       1.3300
  Rsolv                                           ...       1.3000
  Surface type                                    ... GAUSSIAN VDW
  Epsilon function type                           ...         CPCM
Radii:
 Radius for C  used is    3.8550 Bohr (=   2.0400 Ang.)
 Radius for H  used is    2.4944 Bohr (=   1.3200 Ang.)
 Radius for O  used is    3.4469 Bohr (=   1.8240 Ang.)
Calculating surface                               ...        done! (  0.0s)
GEPOL surface points                              ...          407
GEPOL Volume                                      ...     429.2027
GEPOL Surface-area                                ...     297.3145
Calculating surface distance matrix               ...        done! (  0.0s)
Performing Cholesky decomposition & store         ...        done! (  0.1s)
Overall time for CPCM initialization              ...                 0.1s
--------------
SCF ITERATIONS
--------------
ITER       Energy         Delta-E        Max-DP      RMS-DP      [F,P]     Damp
               ***  Starting incremental Fock matrix formation  ***
[...]
GEPOL surface points                              ...          407
GEPOL Volume                                      ...     428.7819
GEPOL Surface-area                                ...     297.4061
Calculating surface distance matrix               ...        done! (  0.0s)
Performing Cholesky decomposition & store         ...        done! (  0.1s)
Overall time for CPCM initialization              ...                 0.2s
--------------
SCF ITERATIONS
--------------
ITER       Energy         Delta-E        Max-DP      RMS-DP      [F,P]     Damp
               ***  Starting incremental Fock matrix formation  ***
                      *** Initiating the SOSCF procedure ***
                      *** Re-Reading the Fockian *** 
                      *** Removing any level shift *** 
ITER      Energy       Delta-E        Grad      Rot      Max-DP    RMS-DP
  0   -190.23750930 -190.2375093035  0.000041  0.000041  0.000064  0.000004
               *** Restarting incremental Fock matrix formation ***
  1   -190.23750940  -0.0000001008  0.000020  0.000042  0.000083  0.000003
  2   -190.23750938   0.0000000227  0.000055  0.000054  0.000051  0.000002
  3   -190.23750942  -0.0000000350  0.000008  0.000020  0.000026  0.000001
  4   -190.23750942   0.0000000014  0.000011  0.000011  0.000018  0.000001
                  ***Gradient check signals convergence***
              ***Rediagonalizing the Fockian in SOSCF/NRSCF***

               *****************************************************
               *                     SUCCESS                       *
               *           SCF CONVERGED AFTER   5 CYCLES          *
               *****************************************************


----------------
TOTAL SCF ENERGY
----------------

Total Energy       :         -190.23750942 Eh           -5176.62581 eV

Components:
Nuclear Repulsion  :           71.96339872 Eh            1958.22363 eV
Electronic Energy  :         -262.20090814 Eh           -7134.84944 eV
One Electron Energy:         -410.32776489 Eh          -11165.58613 eV
Two Electron Energy:          148.12685675 Eh            4030.73669 eV
CPCM Dielectric    :           -0.12595921 Eh              -3.42752 eV

Virial components:
Potential Energy   :         -379.72748275 Eh          -10332.91012 eV
Kinetic Energy     :          189.48997333 Eh            5156.28431 eV
Virial Ratio       :            2.00394499


DFT components:
N(Alpha)           :       13.000014312627 electrons
N(Beta)            :       13.000014312627 electrons
N(Total)           :       26.000028625253 electrons
E(X)               :      -22.799823567060 Eh       
E(C)               :       -0.849123173650 Eh       
E(XC)              :      -23.648946740710 Eh       
DFET-embed. en.    :        0.000000000000 Eh       
CPCM Solvation Model Properties:
Surface-charge          :            0.97521526
Charge-correction       :           -0.00463947 Eh              -0.12625 eV
Free-energy (cav+disp)  :  This term is not implemented in the current solvation scheme

---------------
SCF CONVERGENCE
---------------

  Last Energy change         ...   -2.4883e-09  Tolerance :   1.0000e-08
  Last MAX-Density change    ...    6.0106e-06  Tolerance :   1.0000e-07
  Last RMS-Density change    ...    1.8932e-07  Tolerance :   5.0000e-09
  Last Orbital Gradient      ...    1.1956e-06  Tolerance :   1.0000e-05
  Last Orbital Rotation      ...    3.4251e-06  Tolerance :   1.0000e-05

             **** THE GBW FILE WAS UPDATED (inp.gbw) ****
             **** DENSITY inp.scfp WAS UPDATED ****
             **** ENERGY FILE WAS UPDATED (inp.en.tmp) ****
             **** THE GBW FILE WAS UPDATED (inp.gbw) ****
             **** DENSITY inp.scfp WAS UPDATED ****
----------------
ORBITAL ENERGIES
----------------

  NO   OCC          E(Eh)            E(eV) 
   0   2.0000     -18.738797      -509.9086 
   1   2.0000     -18.651225      -507.5256 
   2   2.0000      -9.893720      -269.2218 
   3   2.0000      -0.916598       -24.9419 
   4   2.0000      -0.690732       -18.7958 
   5   2.0000      -0.553218       -15.0538 
   6   2.0000      -0.374178       -10.1819 
   7   2.0000      -0.365924        -9.9573 
   8   2.0000      -0.356729        -9.7071 
   9   2.0000      -0.264196        -7.1891 
  10   2.0000      -0.225538        -6.1372 
  11   2.0000      -0.132420        -3.6033 
  12   2.0000      -0.106853        -2.9076 
  13   0.0000       0.040449         1.1007 
  14   0.0000       0.055869         1.5203 
  15   0.0000       0.097163         2.6439 
  16   0.0000       0.117855         3.2070 
  17   0.0000       0.119811         3.2602 
  18   0.0000       0.206842         5.6285 
  19   0.0000       0.215981         5.8771 
  20   0.0000       0.303560         8.2603 
  21   0.0000       0.330038         8.9808 
  22   0.0000       0.391515        10.6537 
  23   0.0000       0.409779        11.1507 
  24   0.0000       0.418879        11.3983 
  25   0.0000       0.443712        12.0740 
  26   0.0000       0.452023        12.3002 
  27   0.0000       0.471431        12.8283 
  28   0.0000       0.507618        13.8130 
  29   0.0000       0.548701        14.9309 
  30   0.0000       0.551963        15.0197 
  31   0.0000       0.670052        18.2330 
  32   0.0000       0.731956        19.9175 
  33   0.0000       0.736569        20.0431 
  34   0.0000       0.791157        21.5285 
  35   0.0000       0.899003        24.4631 
  36   0.0000       0.932748        25.3814 
  37   0.0000       0.987258        26.8647 
  38   0.0000       1.269681        34.5498 
  39   0.0000       1.358179        36.9579 
  40   0.0000       1.423848        38.7449 
  41   0.0000       1.426290        38.8113 
  42   0.0000       1.466735        39.9119 
  43   0.0000       1.481710        40.3194 
  44   0.0000       1.524713        41.4896 
  45   0.0000       1.527768        41.5727 
  46   0.0000       1.622031        44.1377 
  47   0.0000       1.627048        44.2742 
  48   0.0000       1.758328        47.8465 
  49   0.0000       1.838170        50.0192 
  50   0.0000       1.881801        51.2064 
  51   0.0000       1.904211        51.8162 
  52   0.0000       1.937077        52.7105 
  53   0.0000       2.013288        54.7844 
  54   0.0000       2.068942        56.2988 
  55   0.0000       2.104663        57.2708 
  56   0.0000       2.207997        60.0827 
  57   0.0000       2.208920        60.1078 
  58   0.0000       2.264307        61.6149 
  59   0.0000       2.326822        63.3160 
  60   0.0000       2.423103        65.9360 
  61   0.0000       2.453440        66.7615 
  62   0.0000       2.489940        67.7547 
  63   0.0000       2.580977        70.2319 
  64   0.0000       2.629069        71.5406 
  65   0.0000       2.674034        72.7642 
  66   0.0000       2.698075        73.4183 
  67   0.0000       2.775021        75.5122 
  68   0.0000       2.803628        76.2906 
  69   0.0000       2.888966        78.6128 
  70   0.0000       2.943659        80.1010 
  71   0.0000       2.995212        81.5039 
  72   0.0000       3.141261        85.4781 
  73   0.0000       3.243245        88.2532 
  74   0.0000       3.306310        89.9693 
  75   0.0000       3.323039        90.4245 
  76   0.0000       3.455121        94.0186 
  77   0.0000       3.485369        94.8417 
  78   0.0000       3.513901        95.6181 
  79   0.0000       3.935336       107.0859 
  80   0.0000       4.047612       110.1411 
  81   0.0000       4.067920       110.6937 
  82   0.0000       4.249683       115.6398 
  83   0.0000       4.359990       118.6413 
  84   0.0000       4.723589       128.5354 
  85   0.0000       4.848235       131.9272 
  86   0.0000       4.959095       134.9438 
  87   0.0000       4.997025       135.9760 
  88   0.0000       5.123365       139.4139 
  89   0.0000       5.148686       140.1029 
  90   0.0000       5.160342       140.4201 
  91   0.0000       5.346424       145.4836 
  92   0.0000       5.443275       148.1191 
  93   0.0000       5.664683       154.1439 
  94   0.0000       5.732101       155.9784 
  95   0.0000       5.747137       156.3876 
  96   0.0000       5.915004       160.9555 
  97   0.0000       6.214024       169.0922 
  98   0.0000       6.226291       169.4260 
  99   0.0000       6.247330       169.9985 
 100   0.0000       6.274714       170.7437 
 101   0.0000       6.514336       177.2641 
 102   0.0000       6.609534       179.8546 
 103   0.0000       6.630618       180.4283 
 104   0.0000       6.798769       185.0039 
 105   0.0000       6.948592       189.0808 
 106   0.0000       7.037428       191.4982 
 107   0.0000       7.860031       213.8823 
 108   0.0000      22.035003       599.6029 
 109   0.0000      42.878083      1166.7720 
 110   0.0000      43.457080      1182.5273 

                    ********************************
                    * MULLIKEN POPULATION ANALYSIS *
                    ********************************

-----------------------
MULLIKEN ATOMIC CHARGES
-----------------------
   0 C :   -0.178697
   1 H :    0.064792
   2 O :   -0.269519
   3 H :    0.064585
   4 H :    0.097337
   5 O :   -0.778498
Sum of atomic charges:   -1.0000000

--------------------------------
MULLIKEN REDUCED ORBITAL CHARGES
--------------------------------
  0 C s       :     3.232500  s :     3.232500
      pz      :     1.020226  p :     2.840919
      px      :     1.011912
      py      :     0.808782
      dz2     :     0.021365  d :     0.097820
      dxz     :     0.007493
      dyz     :     0.012194
      dx2y2   :     0.022254
      dxy     :     0.034514
      f0      :     0.000752  f :     0.007457
      f+1     :     0.000348
      f-1     :     0.001342
      f+2     :     0.000930
      f-2     :     0.000958
      f+3     :     0.001243
      f-3     :     0.001883
  1 H s       :     0.915541  s :     0.915541
      pz      :     0.004062  p :     0.019667
      px      :     0.007343
      py      :     0.008262
  2 O s       :     3.811014  s :     3.811014
      pz      :     1.152353  p :     4.409958
      px      :     1.782557
      py      :     1.475048
      dz2     :     0.011832  d :     0.046268
      dxz     :     0.008297
      dyz     :     0.013388
      dx2y2   :     0.006383
      dxy     :     0.006369
      f0      :     0.000496  f :     0.002278
      f+1     :     0.000395
      f-1     :     0.000448
      f+2     :     0.000214
      f-2     :     0.000233
      f+3     :     0.000270
      f-3     :     0.000224
  3 H s       :     0.915737  s :     0.915737
      pz      :     0.005693  p :     0.019678
      px      :     0.009500
      py      :     0.004484
  4 H s       :     0.883107  s :     0.883107
      pz      :     0.011388  p :     0.019556
      px      :     0.004691
      py      :     0.003477
  5 O s       :     3.958575  s :     3.958575
      pz      :     0.959107  p :     4.799007
      px      :     1.922322
      py      :     1.917578
      dz2     :     0.009425  d :     0.019505
      dxz     :     0.005373
      dyz     :     0.003901
      dx2y2   :     0.000267
      dxy     :     0.000540
      f0      :     0.000647  f :     0.001410
      f+1     :     0.000384
      f-1     :     0.000273
      f+2     :     0.000041
      f-2     :     0.000062
      f+3     :     0.000001
      f-3     :     0.000003


                     *******************************
                     * LOEWDIN POPULATION ANALYSIS *
                     *******************************

----------------------
LOEWDIN ATOMIC CHARGES
----------------------
   0 C :   -0.481014
   1 H :    0.076489
   2 O :   -0.075712
   3 H :    0.076443
   4 H :    0.101721
   5 O :   -0.697929

-------------------------------
LOEWDIN REDUCED ORBITAL CHARGES
-------------------------------
  0 C s       :     2.902036  s :     2.902036
      pz      :     1.066492  p :     3.087453
      px      :     1.079129
      py      :     0.941832
      dz2     :     0.095082  d :     0.434428
      dxz     :     0.039109
      dyz     :     0.060917
      dx2y2   :     0.091548
      dxy     :     0.147772
      f0      :     0.004788  f :     0.057097
      f+1     :     0.002090
      f-1     :     0.009692
      f+2     :     0.010854
      f-2     :     0.008199
      f+3     :     0.009527
      f-3     :     0.011946
  1 H s       :     0.863863  s :     0.863863
      pz      :     0.011878  p :     0.059648
      px      :     0.023133
      py      :     0.024637
  2 O s       :     3.448747  s :     3.448747
      pz      :     1.209221  p :     4.484931
      px      :     1.734246
      py      :     1.541463
      dz2     :     0.041360  d :     0.133641
      dxz     :     0.025849
      dyz     :     0.036171
      dx2y2   :     0.013820
      dxy     :     0.016440
      f0      :     0.002004  f :     0.008393
      f+1     :     0.001230
      f-1     :     0.002143
      f+2     :     0.000789
      f-2     :     0.000760
      f+3     :     0.000743
      f-3     :     0.000724
  3 H s       :     0.863869  s :     0.863869
      pz      :     0.017484  p :     0.059687
      px      :     0.029534
      py      :     0.012669
  4 H s       :     0.838690  s :     0.838690
      pz      :     0.035126  p :     0.059589
      px      :     0.013999
      py      :     0.010463
  5 O s       :     3.770620  s :     3.770620
      pz      :     1.066375  p :     4.860699
      px      :     1.901260
      py      :     1.893064
      dz2     :     0.030051  d :     0.061975
      dxz     :     0.016014
      dyz     :     0.013415
      dx2y2   :     0.000822
      dxy     :     0.001673
      f0      :     0.002024  f :     0.004635
      f+1     :     0.001203
      f-1     :     0.001029
      f+2     :     0.000143
      f-2     :     0.000220
      f+3     :     0.000005
      f-3     :     0.000010


                      *****************************
                      * MAYER POPULATION ANALYSIS *
                      *****************************

  NA   - Mulliken gross atomic population
  ZA   - Total nuclear charge
  QA   - Mulliken gross atomic charge
  VA   - Mayer's total valence
  BVA  - Mayer's bonded valence
  FA   - Mayer's free valence

  ATOM       NA         ZA         QA         VA         BVA        FA
  0 C      6.1787     6.0000    -0.1787     3.9372     3.9372    -0.0000
  1 H      0.9352     1.0000     0.0648     0.9900     0.9900    -0.0000
  2 O      8.2695     8.0000    -0.2695     1.9287     1.9287    -0.0000
  3 H      0.9354     1.0000     0.0646     0.9908     0.9908    -0.0000
  4 H      0.9027     1.0000     0.0973     0.9781     0.9781     0.0000
  5 O      8.7785     8.0000    -0.7785     0.9983     0.9983    -0.0000

  Mayer bond orders larger than 0.100000
B(  0-C ,  1-H ) :   0.9547 B(  0-C ,  2-O ) :   1.0856 B(  0-C ,  3-H ) :   0.9545 
B(  0-C ,  4-H ) :   0.9378 B(  2-O ,  5-O ) :   0.8386 

-------
TIMINGS
-------

Total SCF time: 0 days 0 hours 0 min 7 sec 

Total time                  ....       7.986 sec
Sum of individual times     ....       6.052 sec  ( 75.8%)

Fock matrix formation       ....       5.508 sec  ( 69.0%)
  Split-RI-J                ....       0.329 sec  (  6.0% of F)
  XC integration            ....       2.947 sec  ( 53.5% of F)
    Basis function eval.    ....       0.517 sec  ( 17.5% of XC)
    Density eval.           ....       0.292 sec  (  9.9% of XC)
    XC-Functional eval.     ....       0.155 sec  (  5.3% of XC)
    XC-Potential eval.      ....       0.330 sec  ( 11.2% of XC)
Diagonalization             ....       0.002 sec  (  0.0%)
Density matrix formation    ....       0.001 sec  (  0.0%)
Population analysis         ....       0.137 sec  (  1.7%)
Initial guess               ....       0.003 sec  (  0.0%)
Orbital Transformation      ....       0.000 sec  (  0.0%)
Orbital Orthonormalization  ....       0.002 sec  (  0.0%)
DIIS solution               ....       0.000 sec  (  0.0%)
SOSCF solution              ....       0.067 sec  (  0.8%)
Grid generation             ....       0.335 sec  (  4.2%)

Maximum memory used throughout the entire SCF-calculation: 26.9 MB


-------------------------------------------------------------------------------
                          DFT DISPERSION CORRECTION                            
                                                                               
                              DFTD3 V3.1  Rev 1                                
                          USING Becke-Johnson damping                          
-------------------------------------------------------------------------------
The PBE functional is recognized
Active option DFTDOPT                   ...         4   

molecular C6(AA) [au] = 264.853891 


            DFT-D V3
 parameters
 s6 scaling factor         :     1.0000 
 a1 scaling factor         :     0.4289 
 s8 scaling factor         :     0.7875 
 a2 scaling factor         :     4.4407 
 ad hoc parameters k1-k3   :    16.0000     1.3333    -4.0000 

 Edisp/kcal,au: -1.387089780969  -0.002210468033 
 E6   /kcal   :  -1.012015588 
 E8   /kcal   :  -0.375074193 
 % E8         :  27.040368817 

-------------------------   ----------------
Dispersion correction           -0.002210468
-------------------------   ----------------


-------------------------   --------------------
FINAL SINGLE POINT ENERGY      -190.239719885633
-------------------------   --------------------

                                *** OPTIMIZATION RUN DONE ***

                            ***************************************
                            *     ORCA property calculations      *
                            ***************************************

                                    ---------------------
                                    Active property flags
                                    ---------------------
   (+) Dipole Moment


------------------------------------------------------------------------------
                       ORCA ELECTRIC PROPERTIES CALCULATION
------------------------------------------------------------------------------

Dipole Moment Calculation                       ... on
Quadrupole Moment Calculation                   ... off
Polarizability Calculation                      ... off
GBWName                                         ... inp.gbw
Electron density                                ... inp.scfp
The origin for moment calculation is the CENTER OF MASS  = (-14.304225, -9.666806  1.432749)

-------------
DIPOLE MOMENT
-------------
                                X             Y             Z
Electronic contribution:     -0.89148      -2.07417      -1.06913
Nuclear contribution   :      1.60250       2.87485       2.80959
                        -----------------------------------------
Total Dipole Moment    :      0.71103       0.80069       1.74047
                        -----------------------------------------
Magnitude (a.u.)       :      2.04350
Magnitude (Debye)      :      5.19416



--------------------
Rotational spectrum 
--------------------
 
Rotational constants in cm-1:     1.525761     0.361555     0.309707 
Rotational constants in MHz : 45741.165044 10839.138610  9284.780930 

 Dipole components along the rotational axes: 
x,y,z [a.u.] :     2.043496    -0.001066    -0.000773 
x,y,z [Debye]:     5.194154    -0.002709    -0.001966 

 

Timings for individual modules:

Sum of individual times         ...      104.482 sec (=   1.741 min)
GTO integral calculation        ...        8.425 sec (=   0.140 min)   8.1 %
SCF iterations                  ...       82.303 sec (=   1.372 min)  78.8 %
SCF Gradient evaluation         ...       12.538 sec (=   0.209 min)  12.0 %
Geometry relaxation             ...        1.217 sec (=   0.020 min)   1.2 %
                             ****ORCA TERMINATED NORMALLY****
TOTAL RUN TIME: 0 days 0 hours 1 minutes 51 seconds 962 msec
