
                                 *****************
                                 * O   R   C   A *
                                 *****************

                                            #,                                       
                                            ###                                      
                                            ####                                     
                                            #####                                    
                                            ######                                   
                                           ########,                                 
                                     ,,################,,,,,                         
                               ,,#################################,,                 
                          ,,##########################################,,             
                       ,#########################################, ''#####,          
                    ,#############################################,,   '####,        
                  ,##################################################,,,,####,       
                ,###########''''           ''''###############################       
              ,#####''   ,,,,##########,,,,          '''####'''          '####       
            ,##' ,,,,###########################,,,                        '##       
           ' ,,###''''                  '''############,,,                           
         ,,##''                                '''############,,,,        ,,,,,,###''
      ,#''                                            '''#######################'''  
     '                                                          ''''####''''         
             ,#######,   #######,   ,#######,      ##                                
            ,#'     '#,  ##    ##  ,#'     '#,    #''#        ######   ,####,        
            ##       ##  ##   ,#'  ##            #'  '#       #        #'  '#        
            ##       ##  #######   ##           ,######,      #####,   #    #        
            '#,     ,#'  ##    ##  '#,     ,#' ,#      #,         ##   #,  ,#        
             '#######'   ##     ##  '#######'  #'      '#     #####' # '####'        



                  #######################################################
                  #                        -***-                        #
                  #          Department of theory and spectroscopy      #
                  #    Directorship and core code : Frank Neese         #
                  #        Max Planck Institute fuer Kohlenforschung    #
                  #                Kaiser Wilhelm Platz 1               #
                  #                 D-45470 Muelheim/Ruhr               #
                  #                      Germany                        #
                  #                                                     #
                  #                  All rights reserved                #
                  #                        -***-                        #
                  #######################################################


                         Program Version 5.0.4 -  RELEASE  -


 With contributions from (in alphabetic order):
   Daniel Aravena         : Magnetic Suceptibility
   Michael Atanasov       : Ab Initio Ligand Field Theory (pilot matlab implementation)
   Alexander A. Auer      : GIAO ZORA, VPT2 properties, NMR spectrum
   Ute Becker             : Parallelization
   Giovanni Bistoni       : ED, misc. LED, open-shell LED, HFLD
   Martin Brehm           : Molecular dynamics
   Dmytro Bykov           : SCF Hessian
   Vijay G. Chilkuri      : MRCI spin determinant printing, contributions to CSF-ICE
   Dipayan Datta          : RHF DLPNO-CCSD density
   Achintya Kumar Dutta   : EOM-CC, STEOM-CC
   Dmitry Ganyushin       : Spin-Orbit,Spin-Spin,Magnetic field MRCI
   Miquel Garcia          : C-PCM and meta-GGA Hessian, CC/C-PCM, Gaussian charge scheme
   Yang Guo               : DLPNO-NEVPT2, F12-NEVPT2, CIM, IAO-localization
   Andreas Hansen         : Spin unrestricted coupled pair/coupled cluster methods
   Benjamin Helmich-Paris : MC-RPA, TRAH-SCF, COSX integrals
   Lee Huntington         : MR-EOM, pCC
   Robert Izsak           : Overlap fitted RIJCOSX, COSX-SCS-MP3, EOM
   Marcus Kettner         : VPT2
   Christian Kollmar      : KDIIS, OOCD, Brueckner-CCSD(T), CCSD density, CASPT2, CASPT2-K
   Simone Kossmann        : Meta GGA functionals, TD-DFT gradient, OOMP2, MP2 Hessian
   Martin Krupicka        : Initial AUTO-CI
   Lucas Lang             : DCDCAS
   Marvin Lechner         : AUTO-CI (C++ implementation), FIC-MRCC
   Dagmar Lenk            : GEPOL surface, SMD
   Dimitrios Liakos       : Extrapolation schemes; Compound Job, initial MDCI parallelization
   Dimitrios Manganas     : Further ROCIS development; embedding schemes
   Dimitrios Pantazis     : SARC Basis sets
   Anastasios Papadopoulos: AUTO-CI, single reference methods and gradients
   Taras Petrenko         : DFT Hessian,TD-DFT gradient, ASA, ECA, R-Raman, ABS, FL, XAS/XES, NRVS
   Peter Pinski           : DLPNO-MP2, DLPNO-MP2 Gradient
   Christoph Reimann      : Effective Core Potentials
   Marius Retegan         : Local ZFS, SOC
   Christoph Riplinger    : Optimizer, TS searches, QM/MM, DLPNO-CCSD(T), (RO)-DLPNO pert. Triples
   Tobias Risthaus        : Range-separated hybrids, TD-DFT gradient, RPA, STAB
   Michael Roemelt        : Original ROCIS implementation
   Masaaki Saitow         : Open-shell DLPNO-CCSD energy and density
   Barbara Sandhoefer     : DKH picture change effects
   Avijit Sen             : IP-ROCIS
   Kantharuban Sivalingam : CASSCF convergence, NEVPT2, FIC-MRCI
   Bernardo de Souza      : ESD, SOC TD-DFT
   Georgi Stoychev        : AutoAux, RI-MP2 NMR, DLPNO-MP2 response
   Willem Van den Heuvel  : Paramagnetic NMR
   Boris Wezisla          : Elementary symmetry handling
   Frank Wennmohs         : Technical directorship


 We gratefully acknowledge several colleagues who have allowed us to
 interface, adapt or use parts of their codes:
   Stefan Grimme, W. Hujo, H. Kruse, P. Pracht,  : VdW corrections, initial TS optimization,
                  C. Bannwarth, S. Ehlert          DFT functionals, gCP, sTDA/sTD-DF
   Ed Valeev, F. Pavosevic, A. Kumar             : LibInt (2-el integral package), F12 methods
   Garnet Chan, S. Sharma, J. Yang, R. Olivares  : DMRG
   Ulf Ekstrom                                   : XCFun DFT Library
   Mihaly Kallay                                 : mrcc  (arbitrary order and MRCC methods)
   Jiri Pittner, Ondrej Demel                    : Mk-CCSD
   Frank Weinhold                                : gennbo (NPA and NBO analysis)
   Christopher J. Cramer and Donald G. Truhlar   : smd solvation model
   Lars Goerigk                                  : TD-DFT with DH, B97 family of functionals
   V. Asgeirsson, H. Jonsson                     : NEB implementation
   FAccTs GmbH                                   : IRC, NEB, NEB-TS, DLPNO-Multilevel, CI-OPT
                                                   MM, QMMM, 2- and 3-layer-ONIOM, Crystal-QMMM,
                                                   LR-CPCM, SF, NACMEs, symmetry and pop. for TD-DFT,
                                                   nearIR, NL-DFT gradient (VV10), updates on ESD,
                                                   ML-optimized integration grids
   S Lehtola, MJT Oliveira, MAL Marques          : LibXC Library
   Liviu Ungur et al                             : ANISO software


 Your calculation uses the libint2 library for the computation of 2-el integrals
 For citations please refer to: http://libint.valeyev.net

 Your ORCA version has been built with support for libXC version: 5.1.0
 For citations please refer to: https://tddft.org/programs/libxc/

 This ORCA versions uses:
   CBLAS   interface :  Fast vector & matrix operations
   LAPACKE interface :  Fast linear algebra routines
   SCALAPACK package :  Parallel linear algebra routines
   Shared memory     :  Shared parallel matrices
   BLAS/LAPACK       :  OpenBLAS 0.3.15  USE64BITINT DYNAMIC_ARCH NO_AFFINITY Haswell SINGLE_THREADED
        Core in use  :  Haswell
   Copyright (c) 2011-2014, The OpenBLAS Project


Your calculation utilizes the atom-pairwise dispersion correction
with the Becke-Johnson damping scheme (D3BJ)
Cite in your paper:
S.Grimme, S.Ehrlich, L.Goerigk, J Comput Chem, (2011), 32, 1456–1465 
S.Grimme, J.Antony, S.Ehrlich and H.Krieg, J.Chem.Phys., 132, (2010), 154104 
   

================================================================================

----- Orbital basis set information -----
Your calculation utilizes the basis: def2-TZVP
   F. Weigend and R. Ahlrichs, Phys. Chem. Chem. Phys. 7, 3297 (2005).

----- AuxJ basis set information -----
Your calculation utilizes the auxiliary basis: def2/J
   F. Weigend, Phys. Chem. Chem. Phys. 8, 1057 (2006).

================================================================================
                                        WARNINGS
                       Please study these warnings very carefully!
================================================================================


WARNING: your system is open-shell and RHF/RKS was chosen
  ===> : WILL SWITCH to UHF/UKS


WARNING: Geometry Optimization
  ===> : Switching off AutoStart
         For restart on a previous wavefunction, please use MOREAD

INFO   : the flag for use of the SHARK integral package has been found!

================================================================================
                                       INPUT FILE
================================================================================
NAME = inp.inp
|  1> !OPT PBE D3BJ def2-TZVP CPCM(water)
|  2> 
|  3> *xyz -1 2
|  4> O     -3.032813   -4.552245    2.749850
|  5> O     -4.137289   -5.180783    2.580746
|  6> *
|  7> 
|  8>                          ****END OF INPUT****
================================================================================

                       *****************************
                       * Geometry Optimization Run *
                       *****************************

Geometry optimization settings:
Update method            Update   .... BFGS
Choice of coordinates    CoordSys .... Z-matrix Internals
Initial Hessian          InHess   .... Almoef's Model

Convergence Tolerances:
Energy Change            TolE     ....  5.0000e-06 Eh
Max. Gradient            TolMAXG  ....  3.0000e-04 Eh/bohr
RMS Gradient             TolRMSG  ....  1.0000e-04 Eh/bohr
Max. Displacement        TolMAXD  ....  4.0000e-03 bohr
RMS Displacement         TolRMSD  ....  2.0000e-03 bohr
Strict Convergence                ....  False
------------------------------------------------------------------------------
                        ORCA OPTIMIZATION COORDINATE SETUP
------------------------------------------------------------------------------

The optimization will be done in new redundant internal coordinates
Making redundant internal coordinates   ...  (new redundants) done
Evaluating the initial hessian          ...  (Almloef) done
Evaluating the coordinates              ...  done
Calculating the B-matrix                .... done
Calculating the G-matrix                .... done
Diagonalizing the G-matrix              .... done
The first mode is                       ....    0
The number of degrees of freedom        ....    1

    -----------------------------------------------------------------
                    Redundant Internal Coordinates


    -----------------------------------------------------------------
         Definition                    Initial Value    Approx d2E/dq
    -----------------------------------------------------------------
      1. B(O   1,O   0)                  1.2820         0.745281   
    -----------------------------------------------------------------

Number of atoms                         .... 2
Number of degrees of freedom            .... 1

         *************************************************************
         *                GEOMETRY OPTIMIZATION CYCLE   1            *
         *************************************************************
---------------------------------
CARTESIAN COORDINATES (ANGSTROEM)
---------------------------------
  O     -3.032813   -4.552245    2.749850
  O     -4.137289   -5.180783    2.580746

----------------------------
CARTESIAN COORDINATES (A.U.)
----------------------------
  NO LB      ZA    FRAG     MASS         X           Y           Z
   0 O     8.0000    0    15.999   -5.731186   -8.602496    5.196463
   1 O     8.0000    0    15.999   -7.818343   -9.790261    4.876903

--------------------------------
INTERNAL COORDINATES (ANGSTROEM)
--------------------------------
 O      0   0   0     0.000000000000     0.00000000     0.00000000
 O      1   0   0     1.281999771777     0.00000000     0.00000000

---------------------------
INTERNAL COORDINATES (A.U.)
---------------------------
 O      0   0   0     0.000000000000     0.00000000     0.00000000
 O      1   0   0     2.422628472408     0.00000000     0.00000000

---------------------
BASIS SET INFORMATION
---------------------
There are 1 groups of distinct atoms

 Group   1 Type O   : 11s6p2d1f contracted to 5s3p2d1f pattern {62111/411/11/1}

Atom   0O    basis set group =>   1
Atom   1O    basis set group =>   1
---------------------------------
AUXILIARY/J BASIS SET INFORMATION
---------------------------------
There are 1 groups of distinct atoms

 Group   1 Type O   : 12s5p4d2f1g contracted to 6s4p3d1f1g pattern {711111/2111/211/2/1}

Atom   0O    basis set group =>   1
Atom   1O    basis set group =>   1
------------------------------------------------------------------------------
                           ORCA GTO INTEGRAL CALCULATION
                           -- RI-GTO INTEGRALS CHOSEN --
------------------------------------------------------------------------------
------------------------------------------------------------------------------
                   ___                                                        
                  /   \      - P O W E R E D   B Y -                         
                 /     \                                                     
                 |  |  |   _    _      __       _____    __    __             
                 |  |  |  | |  | |    /  \     |  _  \  |  |  /  |          
                  \  \/   | |  | |   /    \    | | | |  |  | /  /          
                 / \  \   | |__| |  /  /\  \   | |_| |  |  |/  /          
                |  |  |   |  __  | /  /__\  \  |    /   |      \           
                |  |  |   | |  | | |   __   |  |    \   |  |\   \          
                \     /   | |  | | |  |  |  |  | |\  \  |  | \   \       
                 \___/    |_|  |_| |__|  |__|  |_| \__\ |__|  \__/        
                                                                              
                      - O R C A' S   B I G   F R I E N D -                    
                                      &                                       
                       - I N T E G R A L  F E E D E R -                       
                                                                              
 v1 FN, 2020, v2 2021                                                         
------------------------------------------------------------------------------


Reading SHARK input file inp.SHARKINP.tmp ... ok
----------------------
SHARK INTEGRAL PACKAGE
----------------------

Number of atoms                             ...      2
Number of basis functions                   ...     62
Number of shells                            ...     22
Maximum angular momentum                    ...      3
Integral batch strategy                     ... SHARK/LIBINT Hybrid
RI-J (if used) integral strategy            ... SPLIT-RIJ (Revised 2003 algorithm where possible)
Printlevel                                  ...      1
Contraction scheme used                     ... SEGMENTED contraction
Coulomb Range Separation                    ... NOT USED
Exchange Range Separation                   ... NOT USED
Finite Nucleus Model                        ... NOT USED
Auxiliary Coulomb fitting basis             ... AVAILABLE
   # of basis functions in Aux-J            ...     98
   # of shells in Aux-J                     ...     30
   Maximum angular momentum in Aux-J        ...      4
Auxiliary J/K fitting basis                 ... NOT available
Auxiliary Correlation fitting basis         ... NOT available
Auxiliary 'external' fitting basis          ... NOT available
Integral threshold                          ...     2.500000e-11
Primitive cut-off                           ...     2.500000e-12
Primitive pair pre-selection threshold      ...     2.500000e-12

Calculating pre-screening integrals         ... done (  0.0 sec) Dimension = 22
Organizing shell pair data                  ... done (  0.0 sec)
Shell pair information
Total number of shell pairs                 ...       253
Shell pairs after pre-screening             ...       252
Total number of primitive shell pairs       ...       864
Primitive shell pairs kept                  ...       781
          la=0 lb=0:     54 shell pairs
          la=1 lb=0:     60 shell pairs
          la=1 lb=1:     21 shell pairs
          la=2 lb=0:     40 shell pairs
          la=2 lb=1:     24 shell pairs
          la=2 lb=2:     10 shell pairs
          la=3 lb=0:     20 shell pairs
          la=3 lb=1:     12 shell pairs
          la=3 lb=2:      8 shell pairs
          la=3 lb=3:      3 shell pairs

Calculating one electron integrals          ... done (  0.0 sec)
Calculating RI/J V-Matrix + Cholesky decomp.... done (  0.1 sec)
Calculating Nuclear repulsion               ... done (  0.0 sec) ENN=     26.417587644543 Eh

SHARK setup successfully completed in   0.5 seconds

Maximum memory used throughout the entire GTOINT-calculation: 13.9 MB
-------------------------------------------------------------------------------
                                 ORCA SCF
-------------------------------------------------------------------------------

------------
SCF SETTINGS
------------
Hamiltonian:
 Density Functional     Method          .... DFT(GTOs)
 Exchange Functional    Exchange        .... PBE
   PBE kappa parameter   XKappa         ....  0.804000
   PBE mue parameter    XMuePBE         ....  0.219520
 Correlation Functional Correlation     .... PBE
   PBE beta parameter  CBetaPBE         ....  0.066725
 LDA part of GGA corr.  LDAOpt          .... PW91-LDA
 Gradients option       PostSCFGGA      .... off
   Density functional embedding theory  .... OFF
   NL short-range parameter             ....  6.400000
 RI-approximation to the Coulomb term is turned on
   Number of AuxJ basis functions       .... 98


General Settings:
 Integral files         IntName         .... inp
 Hartree-Fock type      HFTyp           .... UHF
 Total Charge           Charge          ....   -1
 Multiplicity           Mult            ....    2
 Number of Electrons    NEL             ....   17
 Basis Dimension        Dim             ....   62
 Nuclear Repulsion      ENuc            ....     26.4175876445 Eh

Convergence Acceleration:
 DIIS                   CNVDIIS         .... on
   Start iteration      DIISMaxIt       ....    12
   Startup error        DIISStart       ....  0.200000
   # of expansion vecs  DIISMaxEq       ....     5
   Bias factor          DIISBfac        ....   1.050
   Max. coefficient     DIISMaxC        ....  10.000
 Trust-Rad. Augm. Hess. CNVTRAH         .... auto
   Auto Start mean grad. ratio tolernc. ....  1.125000
   Auto Start start iteration           ....    20
   Auto Start num. interpolation iter.  ....    10
   Max. Number of Micro iterations      ....    16
   Max. Number of Macro iterations      .... Maxiter - #DIIS iter
   Number of Davidson start vectors     ....     2
   Converg. threshold I  (grad. norm)   ....   1.000e-05
   Converg. threshold II (energy diff.) ....   1.000e-08
   Grad. Scal. Fac. for Micro threshold ....   0.100
   Minimum threshold for Micro iter.    ....   0.010
   NR start threshold (gradient norm)   ....   0.001
   Initial trust radius                 ....   0.400
   Minimum AH scaling param. (alpha)    ....   1.000
   Maximum AH scaling param. (alpha)    .... 1000.000
   Orbital update algorithm             .... Taylor
   White noise on init. David. guess    .... on
   Maximum white noise                  ....   0.010
   Quad. conv. algorithm                .... NR
 SOSCF                  CNVSOSCF        .... off
 Level Shifting         CNVShift        .... on
   Level shift para.    LevelShift      ....    0.2500
   Turn off err/grad.   ShiftErr        ....    0.0010
 Zerner damping         CNVZerner       .... off
 Static damping         CNVDamp         .... on
   Fraction old density DampFac         ....    0.7000
   Max. Damping (<1)    DampMax         ....    0.9800
   Min. Damping (>=0)   DampMin         ....    0.0000
   Turn off err/grad.   DampErr         ....    0.1000
 Fernandez-Rico         CNVRico         .... off

SCF Procedure:
 Maximum # iterations   MaxIter         ....   125
 SCF integral mode      SCFMode         .... Direct
   Integral package                     .... SHARK and LIBINT hybrid scheme
 Reset frequency        DirectResetFreq ....    20
 Integral Threshold     Thresh          ....  2.500e-11 Eh
 Primitive CutOff       TCut            ....  2.500e-12 Eh

Convergence Tolerance:
 Convergence Check Mode ConvCheckMode   .... Total+1el-Energy
 Convergence forced     ConvForced      .... 0
 Energy Change          TolE            ....  1.000e-08 Eh
 1-El. energy change                    ....  1.000e-05 Eh
 DIIS Error             TolErr          ....  5.000e-07


Diagonalization of the overlap matrix:
Smallest eigenvalue                        ... 3.802e-03
Time for diagonalization                   ...    0.001 sec
Threshold for overlap eigenvalues          ... 1.000e-08
Number of eigenvalues below threshold      ... 0
Time for construction of square roots      ...    0.052 sec
Total time needed                          ...    0.053 sec

Time for model grid setup =    0.063 sec

------------------------------
INITIAL GUESS: MODEL POTENTIAL
------------------------------
Loading Hartree-Fock densities                     ... done
Calculating cut-offs                               ... done
Initializing the effective Hamiltonian             ... done
Setting up the integral package (SHARK)            ... done
Starting the Coulomb interaction                   ... done (   0.1 sec)
Reading the grid                                   ... done
Mapping shells                                     ... done
Starting the XC term evaluation                    ... done (   0.0 sec)
  promolecular density results
     # of electrons  =     15.999962612
     EX              =    -16.179731347
     EC              =     -0.529040845
     EX+EC           =    -16.708772191
Transforming the Hamiltonian                       ... done (   0.0 sec)
Diagonalizing the Hamiltonian                      ... done (   0.0 sec)
Back transforming the eigenvectors                 ... done (   0.0 sec)
Now organizing SCF variables                       ... done
                      ------------------
                      INITIAL GUESS DONE (   0.2 sec)
                      ------------------
-------------------
DFT GRID GENERATION
-------------------

General Integration Accuracy     IntAcc      ... 4.388
Radial Grid Type                 RadialGrid  ... OptM3 with GC (2021)
Angular Grid (max. ang.)         AngularGrid ... 4 (Lebedev-302)
Angular grid pruning method      GridPruning ... 4 (adaptive)
Weight generation scheme         WeightScheme... Becke
Basis function cutoff            BFCut       ... 1.0000e-11
Integration weight cutoff        WCut        ... 1.0000e-14
Angular grids for H and He will be reduced by one unit
Partially contracted basis set               ... off
Rotationally invariant grid construction     ... off

Total number of grid points                  ...    12266
Total number of batches                      ...      192
Average number of points per batch           ...       63
Average number of grid points per atom       ...     6133
Time for grid setup =    0.145 sec


--------------------
CPCM SOLVATION MODEL
--------------------
CPCM parameters:
  Epsilon                                         ...      80.4000
  Refrac                                          ...       1.3300
  Rsolv                                           ...       1.3000
  Surface type                                    ... GAUSSIAN VDW
  Epsilon function type                           ...         CPCM
Radii:
 Radius for O  used is    3.4469 Bohr (=   1.8240 Ang.)
Calculating surface                               ...        done! (  0.0s)
GEPOL surface points                              ...          182
GEPOL Volume                                      ...     258.1354
GEPOL Surface-area                                ...     201.8482
Calculating surface distance matrix               ...        done! (  0.0s)
Performing Cholesky decomposition & store         ...        done! (  0.0s)
Overall time for CPCM initialization              ...                 0.0s
--------------
SCF ITERATIONS
--------------
ITER       Energy         Delta-E        Max-DP      RMS-DP      [F,P]     Damp
               ***  Starting incremental Fock matrix formation  ***
  0   -150.2862267925   0.000000000000 0.04029352  0.00187956  0.1024408 0.7000
  1   -150.3243491706  -0.038122378063 0.02830801  0.00130244  0.0460608 0.7000
                               ***Turning on DIIS***
  2   -150.3378218820  -0.013472711388 0.03677522  0.00186132  0.0119983 0.0000
  3   -150.3607521960  -0.022930314021 0.02191203  0.00092258  0.0286009 0.0000
  4   -150.3655933733  -0.004841177336 0.00212127  0.00012881  0.0026844 0.0000
  5   -150.3657065223  -0.000113149001 0.00055789  0.00002948  0.0007695 0.0000
  6   -150.3657109766  -0.000004454263 0.00022595  0.00000792  0.0002384 0.0000
  7   -150.3657112740  -0.000000297433 0.00003576  0.00000142  0.0000347 0.0000
  8   -150.3657112795  -0.000000005490 0.00001292  0.00000089  0.0000046 0.0000
                 **** Energy Check signals convergence ****

               *****************************************************
               *                     SUCCESS                       *
               *           SCF CONVERGED AFTER   9 CYCLES          *
               *****************************************************


----------------
TOTAL SCF ENERGY
----------------

Total Energy       :         -150.36571128 Eh           -4091.65902 eV

Components:
Nuclear Repulsion  :           26.41758764 Eh             718.85911 eV
Electronic Energy  :         -176.78329892 Eh           -4810.51813 eV
One Electron Energy:         -265.26148474 Eh           -7218.13196 eV
Two Electron Energy:           88.47818582 Eh            2407.61384 eV
CPCM Dielectric    :           -0.12165501 Eh              -3.31040 eV

Virial components:
Potential Energy   :         -300.43092484 Eh           -8175.14108 eV
Kinetic Energy     :          150.06521356 Eh            4083.48206 eV
Virial Ratio       :            2.00200245


DFT components:
N(Alpha)           :        8.999996013821 electrons
N(Beta)            :        7.999997388438 electrons
N(Total)           :       16.999993402259 electrons
E(X)               :      -16.641552165354 Eh       
E(C)               :       -0.562511800691 Eh       
E(XC)              :      -17.204063966044 Eh       
DFET-embed. en.    :        0.000000000000 Eh       
CPCM Solvation Model Properties:
Surface-charge          :            0.98632407
Charge-correction       :           -0.00168681 Eh              -0.04590 eV
Free-energy (cav+disp)  :  This term is not implemented in the current solvation scheme

---------------
SCF CONVERGENCE
---------------

  Last Energy change         ...   -1.4472e-10  Tolerance :   1.0000e-08
  Last MAX-Density change    ...    1.3328e-05  Tolerance :   1.0000e-07
  Last RMS-Density change    ...    1.0318e-06  Tolerance :   5.0000e-09
  Last DIIS Error            ...    3.6691e-06  Tolerance :   5.0000e-07

             **** THE GBW FILE WAS UPDATED (inp.gbw) ****
             **** DENSITY inp.scfp WAS UPDATED ****
             **** ENERGY FILE WAS UPDATED (inp.en.tmp) ****
----------------------
UHF SPIN CONTAMINATION
----------------------

Warning: in a DFT calculation there is little theoretical justification to 
         calculate <S**2> as in Hartree-Fock theory. We will do it anyways
         but you should keep in mind that the values have only limited relevance

Expectation value of <S**2>     :     0.752137
Ideal value S*(S+1) for S=0.5   :     0.750000
Deviation                       :     0.002137

             **** THE GBW FILE WAS UPDATED (inp.gbw) ****
             **** DENSITY inp.scfp WAS UPDATED ****
----------------
ORBITAL ENERGIES
----------------
                 SPIN UP ORBITALS
  NO   OCC          E(Eh)            E(eV) 
   0   1.0000     -18.702222      -508.9133 
   1   1.0000     -18.702203      -508.9128 
   2   1.0000      -0.978567       -26.6282 
   3   1.0000      -0.601509       -16.3679 
   4   1.0000      -0.332501        -9.0478 
   5   1.0000      -0.325886        -8.8678 
   6   1.0000      -0.289399        -7.8749 
   7   1.0000      -0.116821        -3.1789 
   8   1.0000      -0.076929        -2.0933 
   9   0.0000       0.177540         4.8311 
  10   0.0000       0.346167         9.4197 
  11   0.0000       0.396408        10.7868 
  12   0.0000       0.410227        11.1628 
  13   0.0000       0.421839        11.4788 
  14   0.0000       0.457435        12.4474 
  15   0.0000       0.488594        13.2953 
  16   0.0000       0.500346        13.6151 
  17   0.0000       0.736342        20.0369 
  18   0.0000       1.302327        35.4381 
  19   0.0000       1.302426        35.4408 
  20   0.0000       1.314763        35.7765 
  21   0.0000       1.339336        36.4452 
  22   0.0000       1.647552        44.8322 
  23   0.0000       1.647601        44.8335 
  24   0.0000       1.876057        51.0501 
  25   0.0000       2.082896        56.6785 
  26   0.0000       2.105249        57.2867 
  27   0.0000       2.108301        57.3698 
  28   0.0000       2.411005        65.6068 
  29   0.0000       2.443258        66.4844 
  30   0.0000       2.549479        69.3748 
  31   0.0000       2.719585        74.0037 
  32   0.0000       2.753374        74.9231 
  33   0.0000       2.755050        74.9687 
  34   0.0000       2.763966        75.2113 
  35   0.0000       4.209984       114.5595 
  36   0.0000       4.617693       125.6538 
  37   0.0000       4.645097       126.3995 
  38   0.0000       4.667659       127.0134 
  39   0.0000       4.668631       127.0399 
  40   0.0000       4.869453       132.5046 
  41   0.0000       4.985446       135.6609 
  42   0.0000       4.985461       135.6613 
  43   0.0000       5.152855       140.2163 
  44   0.0000       5.152860       140.2165 
  45   0.0000       5.569631       151.5574 
  46   0.0000       5.569665       151.5583 
  47   0.0000       6.065913       165.0619 
  48   0.0000       6.065975       165.0636 
  49   0.0000       6.155559       167.5013 
  50   0.0000       6.189658       168.4292 
  51   0.0000       6.256674       170.2528 
  52   0.0000       6.260019       170.3438 
  53   0.0000       6.309038       171.6776 
  54   0.0000       6.344881       172.6530 
  55   0.0000       6.367360       173.2647 
  56   0.0000       7.037160       191.4909 
  57   0.0000       7.068670       192.3483 
  58   0.0000       7.279545       198.0865 
  59   0.0000       8.520422       231.8525 
  60   0.0000      42.651236      1160.5991 
  61   0.0000      43.276527      1177.6142 

                 SPIN DOWN ORBITALS
  NO   OCC          E(Eh)            E(eV) 
   0   1.0000     -18.689983      -508.5803 
   1   1.0000     -18.689969      -508.5799 
   2   1.0000      -0.956469       -26.0269 
   3   1.0000      -0.569983       -15.5100 
   4   1.0000      -0.317402        -8.6370 
   5   1.0000      -0.279687        -7.6107 
   6   1.0000      -0.272752        -7.4220 
   7   1.0000      -0.064586        -1.7575 
   8   0.0000      -0.051710        -1.4071 
   9   0.0000       0.192059         5.2262 
  10   0.0000       0.356002         9.6873 
  11   0.0000       0.414398        11.2763 
  12   0.0000       0.420379        11.4391 
  13   0.0000       0.432701        11.7744 
  14   0.0000       0.460068        12.5191 
  15   0.0000       0.505488        13.7550 
  16   0.0000       0.516875        14.0649 
  17   0.0000       0.748280        20.3617 
  18   0.0000       1.323711        36.0200 
  19   0.0000       1.325640        36.0725 
  20   0.0000       1.336952        36.3803 
  21   0.0000       1.340878        36.4871 
  22   0.0000       1.675418        45.5905 
  23   0.0000       1.677926        45.6587 
  24   0.0000       1.888634        51.3923 
  25   0.0000       2.113323        57.5064 
  26   0.0000       2.115857        57.5754 
  27   0.0000       2.119446        57.6731 
  28   0.0000       2.453107        66.7524 
  29   0.0000       2.466922        67.1283 
  30   0.0000       2.572602        70.0041 
  31   0.0000       2.763077        75.1872 
  32   0.0000       2.773077        75.4593 
  33   0.0000       2.775528        75.5260 
  34   0.0000       2.779654        75.6382 
  35   0.0000       4.227591       115.0386 
  36   0.0000       4.648105       126.4814 
  37   0.0000       4.648298       126.4866 
  38   0.0000       4.690887       127.6455 
  39   0.0000       4.692645       127.6934 
  40   0.0000       4.887575       132.9977 
  41   0.0000       5.023892       136.7071 
  42   0.0000       5.024348       136.7195 
  43   0.0000       5.192760       141.3022 
  44   0.0000       5.193211       141.3144 
  45   0.0000       5.597686       152.3208 
  46   0.0000       5.599830       152.3791 
  47   0.0000       6.116912       166.4496 
  48   0.0000       6.121920       166.5859 
  49   0.0000       6.196310       168.6102 
  50   0.0000       6.206567       168.8893 
  51   0.0000       6.309153       171.6808 
  52   0.0000       6.313209       171.7912 
  53   0.0000       6.351117       172.8227 
  54   0.0000       6.361573       173.1072 
  55   0.0000       6.386354       173.7815 
  56   0.0000       7.072685       192.4576 
  57   0.0000       7.076047       192.5490 
  58   0.0000       7.296340       198.5435 
  59   0.0000       8.535858       232.2725 
  60   0.0000      42.665184      1160.9787 
  61   0.0000      43.290431      1177.9925 

                    ********************************
                    * MULLIKEN POPULATION ANALYSIS *
                    ********************************

--------------------------------------------
MULLIKEN ATOMIC CHARGES AND SPIN POPULATIONS
--------------------------------------------
   0 O :   -0.500000    0.500000
   1 O :   -0.500000    0.500000
Sum of atomic charges         :   -1.0000000
Sum of atomic spin populations:    1.0000000

-----------------------------------------------------
MULLIKEN REDUCED ORBITAL CHARGES AND SPIN POPULATIONS
-----------------------------------------------------
CHARGE
  0 O s       :     3.930794  s :     3.930794
      pz      :     1.880972  p :     4.526207
      px      :     1.214180
      py      :     1.431055
      dz2     :     0.003985  d :     0.039591
      dxz     :     0.009539
      dyz     :     0.003307
      dx2y2   :     0.011681
      dxy     :     0.011081
      f0      :     0.000341  f :     0.003408
      f+1     :     0.000496
      f-1     :     0.000208
      f+2     :     0.000210
      f-2     :     0.000442
      f+3     :     0.000831
      f-3     :     0.000878
  1 O s       :     3.930794  s :     3.930794
      pz      :     1.880972  p :     4.526207
      px      :     1.214180
      py      :     1.431055
      dz2     :     0.003985  d :     0.039591
      dxz     :     0.009539
      dyz     :     0.003307
      dx2y2   :     0.011681
      dxy     :     0.011081
      f0      :     0.000341  f :     0.003408
      f+1     :     0.000496
      f-1     :     0.000208
      f+2     :     0.000210
      f-2     :     0.000442
      f+3     :     0.000831
      f-3     :     0.000878

SPIN
  0 O s       :     0.003998  s :     0.003998
      pz      :     0.089149  p :     0.495427
      px      :     0.076299
      py      :     0.329979
      dz2     :    -0.000090  d :     0.000721
      dxz     :    -0.000024
      dyz     :     0.000041
      dx2y2   :     0.000421
      dxy     :     0.000374
      f0      :     0.000009  f :    -0.000147
      f+1     :    -0.000004
      f-1     :     0.000017
      f+2     :     0.000013
      f-2     :    -0.000020
      f+3     :    -0.000015
      f-3     :    -0.000146
  1 O s       :     0.003998  s :     0.003998
      pz      :     0.089149  p :     0.495427
      px      :     0.076299
      py      :     0.329979
      dz2     :    -0.000090  d :     0.000721
      dxz     :    -0.000024
      dyz     :     0.000041
      dx2y2   :     0.000421
      dxy     :     0.000374
      f0      :     0.000009  f :    -0.000147
      f+1     :    -0.000004
      f-1     :     0.000017
      f+2     :     0.000013
      f-2     :    -0.000020
      f+3     :    -0.000015
      f-3     :    -0.000146


                     *******************************
                     * LOEWDIN POPULATION ANALYSIS *
                     *******************************

-------------------------------------------
LOEWDIN ATOMIC CHARGES AND SPIN POPULATIONS
-------------------------------------------
   0 O :   -0.500000    0.500000
   1 O :   -0.500000    0.500000

----------------------------------------------------
LOEWDIN REDUCED ORBITAL CHARGES AND SPIN POPULATIONS
----------------------------------------------------
CHARGE
  0 O s       :     3.688859  s :     3.688859
      pz      :     1.848898  p :     4.660436
      px      :     1.351798
      py      :     1.459739
      dz2     :     0.015119  d :     0.137197
      dxz     :     0.033594
      dyz     :     0.012276
      dx2y2   :     0.036922
      dxy     :     0.039287
      f0      :     0.001523  f :     0.013508
      f+1     :     0.001857
      f-1     :     0.000690
      f+2     :     0.000783
      f-2     :     0.002132
      f+3     :     0.003098
      f-3     :     0.003424
  1 O s       :     3.688859  s :     3.688859
      pz      :     1.848898  p :     4.660436
      px      :     1.351798
      py      :     1.459739
      dz2     :     0.015119  d :     0.137197
      dxz     :     0.033594
      dyz     :     0.012276
      dx2y2   :     0.036922
      dxy     :     0.039287
      f0      :     0.001523  f :     0.013508
      f+1     :     0.001857
      f-1     :     0.000690
      f+2     :     0.000783
      f-2     :     0.002132
      f+3     :     0.003098
      f-3     :     0.003424

SPIN
  0 O s       :     0.003866  s :     0.003866
      pz      :     0.086460  p :     0.479253
      px      :     0.073478
      py      :     0.319315
      dz2     :     0.000075  d :     0.015421
      dxz     :     0.002349
      dyz     :     0.000159
      dx2y2   :     0.008456
      dxy     :     0.004382
      f0      :     0.000081  f :     0.001460
      f+1     :    -0.000002
      f-1     :     0.000121
      f+2     :     0.000190
      f-2     :     0.000045
      f+3     :     0.001151
      f-3     :    -0.000126
  1 O s       :     0.003866  s :     0.003866
      pz      :     0.086460  p :     0.479253
      px      :     0.073478
      py      :     0.319315
      dz2     :     0.000075  d :     0.015421
      dxz     :     0.002349
      dyz     :     0.000159
      dx2y2   :     0.008456
      dxy     :     0.004382
      f0      :     0.000081  f :     0.001460
      f+1     :    -0.000002
      f-1     :     0.000121
      f+2     :     0.000190
      f-2     :     0.000045
      f+3     :     0.001151
      f-3     :    -0.000126


                      *****************************
                      * MAYER POPULATION ANALYSIS *
                      *****************************

  NA   - Mulliken gross atomic population
  ZA   - Total nuclear charge
  QA   - Mulliken gross atomic charge
  VA   - Mayer's total valence
  BVA  - Mayer's bonded valence
  FA   - Mayer's free valence

  ATOM       NA         ZA         QA         VA         BVA        FA
  0 O      8.5000     8.0000    -0.5000     1.5428     1.2811     0.2617
  1 O      8.5000     8.0000    -0.5000     1.5428     1.2811     0.2617

  Mayer bond orders larger than 0.100000
B(  0-O ,  1-O ) :   1.2811 

-------
TIMINGS
-------

Total SCF time: 0 days 0 hours 0 min 5 sec 

Total time                  ....       5.186 sec
Sum of individual times     ....       4.327 sec  ( 83.4%)

Fock matrix formation       ....       3.720 sec  ( 71.7%)
  Split-RI-J                ....       0.135 sec  (  3.6% of F)
  XC integration            ....       1.943 sec  ( 52.2% of F)
    Basis function eval.    ....       0.239 sec  ( 12.3% of XC)
    Density eval.           ....       0.236 sec  ( 12.1% of XC)
    XC-Functional eval.     ....       0.162 sec  (  8.4% of XC)
    XC-Potential eval.      ....       0.309 sec  ( 15.9% of XC)
Diagonalization             ....       0.014 sec  (  0.3%)
Density matrix formation    ....       0.000 sec  (  0.0%)
Population analysis         ....       0.118 sec  (  2.3%)
Initial guess               ....       0.092 sec  (  1.8%)
Orbital Transformation      ....       0.000 sec  (  0.0%)
Orbital Orthonormalization  ....       0.000 sec  (  0.0%)
DIIS solution               ....       0.174 sec  (  3.4%)
Grid generation             ....       0.208 sec  (  4.0%)

Maximum memory used throughout the entire SCF-calculation: 13.0 MB


-------------------------------------------------------------------------------
                          DFT DISPERSION CORRECTION                            
                                                                               
                              DFTD3 V3.1  Rev 1                                
                          USING Becke-Johnson damping                          
-------------------------------------------------------------------------------
The PBE functional is recognized
Active option DFTDOPT                   ...         4   

molecular C6(AA) [au] = 51.260237 


            DFT-D V3
 parameters
 s6 scaling factor         :     1.0000 
 a1 scaling factor         :     0.4289 
 s8 scaling factor         :     0.7875 
 a2 scaling factor         :     4.4407 
 ad hoc parameters k1-k3   :    16.0000     1.3333    -4.0000 

 Edisp/kcal,au: -0.167565561531  -0.000267032691 
 E6   /kcal   :  -0.120292214 
 E8   /kcal   :  -0.047273348 
 % E8         :  28.211851840 

-------------------------   ----------------
Dispersion correction           -0.000267033
-------------------------   ----------------


-------------------------   --------------------
FINAL SINGLE POINT ENERGY      -150.365978312336
-------------------------   --------------------

------------------------------------------------------------------------------
                         ORCA SCF GRADIENT CALCULATION
------------------------------------------------------------------------------

Gradient of the Kohn-Sham DFT energy:
Kohn-Sham wavefunction type      ... UKS
Hartree-Fock exchange scaling    ...    0.000
Number of operators              ...    2
Number of atoms                  ...    2
Basis set dimensions             ...   62
Integral neglect threshold       ... 2.5e-11
Integral primitive cutoff        ... 2.5e-12
SHARK Integral package           ... ON

Nuc. rep. gradient       (SHARK) ... done (  0.0 sec)
HCore & Overlap gradient (SHARK) ... done (  0.0 sec)
RI-J gradient            (SHARK) ... done (  0.1 sec)
Exchange-correlation gradient    ... done
Dispersion correction            ... done

------------------
CARTESIAN GRADIENT
------------------

   1   O   :   -0.062026770   -0.035320452   -0.009454380
   2   O   :    0.062026770    0.035320452    0.009454380

Difference to translation invariance:
           :   -0.0000000000   -0.0000000000    0.0000000000

Difference to rotation invariance:
           :    0.0000574334   -0.0000885125   -0.0000461272

Norm of the cartesian gradient     ...    0.1018257322
RMS gradient                       ...    0.0415701811
MAX gradient                       ...    0.0620267702

-------
TIMINGS
-------

Total SCF gradient time            ...        0.762 sec

One electron gradient       ....       0.006 sec  (  0.8%)
RI-J Coulomb gradient       ....       0.133 sec  ( 17.4%)
XC gradient                 ....       0.336 sec  ( 44.0%)
CPCM gradient               ....       0.051 sec  (  6.7%)
   A-Matrix (El+Nuc)        ....       0.001 sec  (  0.2%)
   Potential                ....       0.050 sec  (  6.5%)

Maximum memory used throughout the entire SCFGRAD-calculation: 31.0 MB
------------------------------------------------------------------------------
                         ORCA GEOMETRY RELAXATION STEP
------------------------------------------------------------------------------

Reading the OPT-File                    .... done
Getting information on internals        .... done
Copying old internal coords+grads       .... done
Making the new internal coordinates     .... (new redundants).... done
Validating the new internal coordinates .... (new redundants).... done
Calculating the B-matrix                .... done
Calculating the G,G- and P matrices     .... done
Transforming gradient to internals      .... done
Projecting the internal gradient        .... done
Number of atoms                         ....   2
Number of internal coordinates          ....   1
Current Energy                          ....  -150.365978312 Eh
Current gradient norm                   ....     0.101825732 Eh/bohr
Maximum allowed component of the step   ....  0.300
Current trust radius                    ....  0.300
Evaluating the initial hessian          ....  (Almloef) done
Projecting the Hessian                  .... done
Forming the augmented Hessian           .... done
Diagonalizing the augmented Hessian     .... done
Last element of RFO vector              ....  0.995449625
Lowest eigenvalues of augmented Hessian:
 -0.006892347
Length of the computed step             ....  0.095724852
The final length of the internal step   ....  0.095724852
Converting the step to cartesian space:
 Initial RMS(Int)=    0.0957248521
Transforming coordinates:
 Iter   0:  RMS(Cart)=    0.0276333846 RMS(Int)=    0.0957248521
 Iter   1:  RMS(Cart)=    0.0000000000 RMS(Int)=    0.0000000000
done
Storing new coordinates                 .... done

                                .--------------------.
          ----------------------|Geometry convergence|-------------------------
          Item                value                   Tolerance       Converged
          ---------------------------------------------------------------------
          RMS gradient        0.0720016500            0.0001000000      NO
          MAX gradient        0.0720016500            0.0003000000      NO
          RMS step            0.0957248521            0.0020000000      NO
          MAX step            0.0957248521            0.0040000000      NO
          ........................................................
          Max(Bonds)      0.0507      Max(Angles)    0.00
          Max(Dihed)        0.00      Max(Improp)    0.00
          ---------------------------------------------------------------------

The optimization has not yet converged - more geometry cycles are needed


    ---------------------------------------------------------------------------
                         Redundant Internal Coordinates
                            (Angstroem and degrees)

        Definition                    Value    dE/dq     Step     New-Value
    ----------------------------------------------------------------------------
     1. B(O   1,O   0)                1.2820 -0.072002  0.0507    1.3327   
    ----------------------------------------------------------------------------

         *************************************************************
         *                GEOMETRY OPTIMIZATION CYCLE   2            *
         *************************************************************
---------------------------------
CARTESIAN COORDINATES (ANGSTROEM)
---------------------------------
  O     -3.010993   -4.539827    2.753191
  O     -4.159109   -5.193201    2.577405

----------------------------
CARTESIAN COORDINATES (A.U.)
----------------------------
  NO LB      ZA    FRAG     MASS         X           Y           Z
   0 O     8.0000    0    15.999   -5.689951   -8.579030    5.202777
   1 O     8.0000    0    15.999   -7.859578   -9.813727    4.870590

--------------------------------
INTERNAL COORDINATES (ANGSTROEM)
--------------------------------
 O      0   0   0     0.000000000000     0.00000000     0.00000000
 O      1   0   0     1.332655181753     0.00000000     0.00000000

---------------------------
INTERNAL COORDINATES (A.U.)
---------------------------
 O      0   0   0     0.000000000000     0.00000000     0.00000000
 O      1   0   0     2.518353324464     0.00000000     0.00000000

------------------------------------------------------------------------------
                   ___                                                        
                  /   \      - P O W E R E D   B Y -                         
                 /     \                                                     
                 |  |  |   _    _      __       _____    __    __             
                 |  |  |  | |  | |    /  \     |  _  \  |  |  /  |          
                  \  \/   | |  | |   /    \    | | | |  |  | /  /          
                 / \  \   | |__| |  /  /\  \   | |_| |  |  |/  /          
                |  |  |   |  __  | /  /__\  \  |    /   |      \           
                |  |  |   | |  | | |   __   |  |    \   |  |\   \          
                \     /   | |  | | |  |  |  |  | |\  \  |  | \   \       
                 \___/    |_|  |_| |__|  |__|  |_| \__\ |__|  \__/        
                                                                              
                      - O R C A' S   B I G   F R I E N D -                    
                                      &                                       
                       - I N T E G R A L  F E E D E R -                       
                                                                              
 v1 FN, 2020, v2 2021                                                         
------------------------------------------------------------------------------


Reading SHARK input file inp.SHARKINP.tmp ... ok
----------------------
SHARK INTEGRAL PACKAGE
----------------------

Number of atoms                             ...      2
Number of basis functions                   ...     62
Number of shells                            ...     22
Maximum angular momentum                    ...      3
Integral batch strategy                     ... SHARK/LIBINT Hybrid
RI-J (if used) integral strategy            ... SPLIT-RIJ (Revised 2003 algorithm where possible)
Printlevel                                  ...      1
Contraction scheme used                     ... SEGMENTED contraction
Coulomb Range Separation                    ... NOT USED
Exchange Range Separation                   ... NOT USED
Finite Nucleus Model                        ... NOT USED
Auxiliary Coulomb fitting basis             ... AVAILABLE
   # of basis functions in Aux-J            ...     98
   # of shells in Aux-J                     ...     30
   Maximum angular momentum in Aux-J        ...      4
Auxiliary J/K fitting basis                 ... NOT available
Auxiliary Correlation fitting basis         ... NOT available
Auxiliary 'external' fitting basis          ... NOT available
Integral threshold                          ...     2.500000e-11
Primitive cut-off                           ...     2.500000e-12
Primitive pair pre-selection threshold      ...     2.500000e-12

Calculating pre-screening integrals         ... done (  0.0 sec) Dimension = 22
Organizing shell pair data                  ... done (  0.0 sec)
Shell pair information
Total number of shell pairs                 ...       253
Shell pairs after pre-screening             ...       250
Total number of primitive shell pairs       ...       864
Primitive shell pairs kept                  ...       771
          la=0 lb=0:     52 shell pairs
          la=1 lb=0:     60 shell pairs
          la=1 lb=1:     21 shell pairs
          la=2 lb=0:     40 shell pairs
          la=2 lb=1:     24 shell pairs
          la=2 lb=2:     10 shell pairs
          la=3 lb=0:     20 shell pairs
          la=3 lb=1:     12 shell pairs
          la=3 lb=2:      8 shell pairs
          la=3 lb=3:      3 shell pairs

Calculating one electron integrals          ... done (  0.0 sec)
Calculating RI/J V-Matrix + Cholesky decomp.... done (  0.1 sec)
Calculating Nuclear repulsion               ... done (  0.0 sec) ENN=     25.413431617515 Eh

SHARK setup successfully completed in   0.4 seconds

Maximum memory used throughout the entire GTOINT-calculation: 13.9 MB

Diagonalization of the overlap matrix:
Smallest eigenvalue                        ... 5.435e-03
Time for diagonalization                   ...    0.001 sec
Threshold for overlap eigenvalues          ... 1.000e-08
Number of eigenvalues below threshold      ... 0
Time for construction of square roots      ...    0.053 sec
Total time needed                          ...    0.054 sec

-------------------
DFT GRID GENERATION
-------------------

General Integration Accuracy     IntAcc      ... 4.388
Radial Grid Type                 RadialGrid  ... OptM3 with GC (2021)
Angular Grid (max. ang.)         AngularGrid ... 4 (Lebedev-302)
Angular grid pruning method      GridPruning ... 4 (adaptive)
Weight generation scheme         WeightScheme... Becke
Basis function cutoff            BFCut       ... 1.0000e-11
Integration weight cutoff        WCut        ... 1.0000e-14
Angular grids for H and He will be reduced by one unit
Partially contracted basis set               ... off
Rotationally invariant grid construction     ... off

Total number of grid points                  ...    12266
Total number of batches                      ...      192
Average number of points per batch           ...       63
Average number of grid points per atom       ...     6133
Time for grid setup =    0.096 sec


--------------------
CPCM SOLVATION MODEL
--------------------
CPCM parameters:
  Epsilon                                         ...      80.4000
  Refrac                                          ...       1.3300
  Rsolv                                           ...       1.3000
  Surface type                                    ... GAUSSIAN VDW
  Epsilon function type                           ...         CPCM
Radii:
 Radius for O  used is    3.4469 Bohr (=   1.8240 Ang.)
Calculating surface                               ...        done! (  0.0s)
GEPOL surface points                              ...          182
GEPOL Volume                                      ...     261.4416
GEPOL Surface-area                                ...     204.1032
Calculating surface distance matrix               ...        done! (  0.0s)
Performing Cholesky decomposition & store         ...        done! (  0.0s)
Overall time for CPCM initialization              ...                 0.0s
--------------
SCF ITERATIONS
--------------
ITER       Energy         Delta-E        Max-DP      RMS-DP      [F,P]     Damp
               ***  Starting incremental Fock matrix formation  ***
  0   -150.3683480410   0.000000000000 0.00210748  0.00010717  0.0085915 0.7000
  1   -150.3688352791  -0.000487238103 0.00218261  0.00010342  0.0063952 0.7000
                               ***Turning on DIIS***
  2   -150.3691948212  -0.000359542117 0.00580846  0.00026915  0.0045616 0.0000
  3   -150.3700328775  -0.000838056234 0.00024858  0.00001458  0.0003767 0.0000
  4   -150.3700342448  -0.000001367372 0.00021423  0.00000853  0.0001401 0.0000
  5   -150.3700342072   0.000000037688 0.00009122  0.00000432  0.0001545 0.0000
  6   -150.3700343565  -0.000000149321 0.00003302  0.00000242  0.0000095 0.0000
  7   -150.3700343592  -0.000000002754 0.00001876  0.00000142  0.0000100 0.0000
  8   -150.3700343612  -0.000000001960 0.00002338  0.00000184  0.0000097 0.0000
                 **** Energy Check signals convergence ****

               *****************************************************
               *                     SUCCESS                       *
               *           SCF CONVERGED AFTER   9 CYCLES          *
               *****************************************************

Total Energy       :         -150.37003436 Eh           -4091.77666 eV
  Last Energy change         ...   -1.7643e-09  Tolerance :   1.0000e-08
  Last MAX-Density change    ...    3.0097e-05  Tolerance :   1.0000e-07
             **** THE GBW FILE WAS UPDATED (inp.gbw) ****
             **** DENSITY inp.scfp WAS UPDATED ****
             **** ENERGY FILE WAS UPDATED (inp.en.tmp) ****
----------------------
UHF SPIN CONTAMINATION
----------------------

Warning: in a DFT calculation there is little theoretical justification to 
         calculate <S**2> as in Hartree-Fock theory. We will do it anyways
         but you should keep in mind that the values have only limited relevance

Expectation value of <S**2>     :     0.752244
Ideal value S*(S+1) for S=0.5   :     0.750000
Deviation                       :     0.002244

             **** THE GBW FILE WAS UPDATED (inp.gbw) ****
             **** DENSITY inp.scfp WAS UPDATED ****
Total SCF time: 0 days 0 hours 0 min 3 sec 

Maximum memory used throughout the entire SCF-calculation: 13.0 MB


-------------------------------------------------------------------------------
                          DFT DISPERSION CORRECTION                            
                                                                               
                              DFTD3 V3.1  Rev 1                                
                          USING Becke-Johnson damping                          
-------------------------------------------------------------------------------
-------------------------   ----------------
Dispersion correction           -0.000267000
-------------------------   ----------------


-------------------------   --------------------
FINAL SINGLE POINT ENERGY      -150.370301362682
-------------------------   --------------------

------------------------------------------------------------------------------
                         ORCA SCF GRADIENT CALCULATION
------------------------------------------------------------------------------

Gradient of the Kohn-Sham DFT energy:
Kohn-Sham wavefunction type      ... UKS
Hartree-Fock exchange scaling    ...    0.000
Number of operators              ...    2
Number of atoms                  ...    2
Basis set dimensions             ...   62
Integral neglect threshold       ... 2.5e-11
Integral primitive cutoff        ... 2.5e-12
SHARK Integral package           ... ON

Nuc. rep. gradient       (SHARK) ... done (  0.0 sec)
HCore & Overlap gradient (SHARK) ... done (  0.0 sec)
RI-J gradient            (SHARK) ... done (  0.1 sec)
Exchange-correlation gradient    ... done
Dispersion correction            ... done

------------------
CARTESIAN GRADIENT
------------------

   1   O   :   -0.018034052   -0.010199635   -0.002772836
   2   O   :    0.018034052    0.010199635    0.002772836

Difference to translation invariance:
           :   -0.0000000000   -0.0000000000   -0.0000000000

Difference to rotation invariance:
           :   -0.0000354248    0.0000253407    0.0001371833

Norm of the cartesian gradient     ...    0.0295617395
RMS gradient                       ...    0.0120685296
MAX gradient                       ...    0.0180340524

-------
TIMINGS
-------

Total SCF gradient time            ...        0.739 sec

One electron gradient       ....       0.006 sec  (  0.8%)
RI-J Coulomb gradient       ....       0.131 sec  ( 17.7%)
XC gradient                 ....       0.362 sec  ( 49.0%)
CPCM gradient               ....       0.054 sec  (  7.4%)
   A-Matrix (El+Nuc)        ....       0.001 sec  (  0.2%)
   Potential                ....       0.053 sec  (  7.2%)

Maximum memory used throughout the entire SCFGRAD-calculation: 31.0 MB
------------------------------------------------------------------------------
                         ORCA GEOMETRY RELAXATION STEP
------------------------------------------------------------------------------

Reading the OPT-File                    .... done
Getting information on internals        .... done
Copying old internal coords+grads       .... done
Making the new internal coordinates     .... (new redundants).... done
Validating the new internal coordinates .... (new redundants).... done
Calculating the B-matrix                .... done
Calculating the G,G- and P matrices     .... done
Transforming gradient to internals      .... done
Projecting the internal gradient        .... done
Number of atoms                         ....   2
Number of internal coordinates          ....   1
Current Energy                          ....  -150.370301363 Eh
Current gradient norm                   ....     0.029561739 Eh/bohr
Maximum allowed component of the step   ....  0.300
Current trust radius                    ....  0.300
Updating the Hessian (BFGS)             .... done
Forming the augmented Hessian           .... done
Diagonalizing the augmented Hessian     .... done
Last element of RFO vector              ....  0.999236508
Lowest eigenvalues of augmented Hessian:
 -0.000817296
Length of the computed step             ....  0.039099045
The final length of the internal step   ....  0.039099045
Converting the step to cartesian space:
 Initial RMS(Int)=    0.0390990453
Transforming coordinates:
 Iter   0:  RMS(Cart)=    0.0112869222 RMS(Int)=    0.0390990453
 Iter   1:  RMS(Cart)=    0.0000000000 RMS(Int)=    0.0000000000
done
Storing new coordinates                 .... done

                                .--------------------.
          ----------------------|Geometry convergence|-------------------------
          Item                value                   Tolerance       Converged
          ---------------------------------------------------------------------
          Energy change      -0.0043230503            0.0000050000      NO
          RMS gradient        0.0209032283            0.0001000000      NO
          MAX gradient        0.0209032283            0.0003000000      NO
          RMS step            0.0390990453            0.0020000000      NO
          MAX step            0.0390990453            0.0040000000      NO
          ........................................................
          Max(Bonds)      0.0207      Max(Angles)    0.00
          Max(Dihed)        0.00      Max(Improp)    0.00
          ---------------------------------------------------------------------

The optimization has not yet converged - more geometry cycles are needed


    ---------------------------------------------------------------------------
                         Redundant Internal Coordinates
                            (Angstroem and degrees)

        Definition                    Value    dE/dq     Step     New-Value
    ----------------------------------------------------------------------------
     1. B(O   1,O   0)                1.3327 -0.020903  0.0207    1.3533   
    ----------------------------------------------------------------------------

         *************************************************************
         *                GEOMETRY OPTIMIZATION CYCLE   3            *
         *************************************************************
---------------------------------
CARTESIAN COORDINATES (ANGSTROEM)
---------------------------------
  O     -3.002080   -4.534755    2.754555
  O     -4.168022   -5.198273    2.576041

----------------------------
CARTESIAN COORDINATES (A.U.)
----------------------------
  NO LB      ZA    FRAG     MASS         X           Y           Z
   0 O     8.0000    0    15.999   -5.673109   -8.569446    5.205355
   1 O     8.0000    0    15.999   -7.876420   -9.823312    4.868011

--------------------------------
INTERNAL COORDINATES (ANGSTROEM)
--------------------------------
 O      0   0   0     0.000000000000     0.00000000     0.00000000
 O      1   0   0     1.353345505366     0.00000000     0.00000000

---------------------------
INTERNAL COORDINATES (A.U.)
---------------------------
 O      0   0   0     0.000000000000     0.00000000     0.00000000
 O      1   0   0     2.557452369715     0.00000000     0.00000000

------------------------------------------------------------------------------
                   ___                                                        
                  /   \      - P O W E R E D   B Y -                         
                 /     \                                                     
                 |  |  |   _    _      __       _____    __    __             
                 |  |  |  | |  | |    /  \     |  _  \  |  |  /  |          
                  \  \/   | |  | |   /    \    | | | |  |  | /  /          
                 / \  \   | |__| |  /  /\  \   | |_| |  |  |/  /          
                |  |  |   |  __  | /  /__\  \  |    /   |      \           
                |  |  |   | |  | | |   __   |  |    \   |  |\   \          
                \     /   | |  | | |  |  |  |  | |\  \  |  | \   \       
                 \___/    |_|  |_| |__|  |__|  |_| \__\ |__|  \__/        
                                                                              
                      - O R C A' S   B I G   F R I E N D -                    
                                      &                                       
                       - I N T E G R A L  F E E D E R -                       
                                                                              
 v1 FN, 2020, v2 2021                                                         
------------------------------------------------------------------------------


Reading SHARK input file inp.SHARKINP.tmp ... ok
----------------------
SHARK INTEGRAL PACKAGE
----------------------

Number of atoms                             ...      2
Number of basis functions                   ...     62
Number of shells                            ...     22
Maximum angular momentum                    ...      3
Integral batch strategy                     ... SHARK/LIBINT Hybrid
RI-J (if used) integral strategy            ... SPLIT-RIJ (Revised 2003 algorithm where possible)
Printlevel                                  ...      1
Contraction scheme used                     ... SEGMENTED contraction
Coulomb Range Separation                    ... NOT USED
Exchange Range Separation                   ... NOT USED
Finite Nucleus Model                        ... NOT USED
Auxiliary Coulomb fitting basis             ... AVAILABLE
   # of basis functions in Aux-J            ...     98
   # of shells in Aux-J                     ...     30
   Maximum angular momentum in Aux-J        ...      4
Auxiliary J/K fitting basis                 ... NOT available
Auxiliary Correlation fitting basis         ... NOT available
Auxiliary 'external' fitting basis          ... NOT available
Integral threshold                          ...     2.500000e-11
Primitive cut-off                           ...     2.500000e-12
Primitive pair pre-selection threshold      ...     2.500000e-12

Calculating pre-screening integrals         ... done (  0.0 sec) Dimension = 22
Organizing shell pair data                  ... done (  0.0 sec)
Shell pair information
Total number of shell pairs                 ...       253
Shell pairs after pre-screening             ...       250
Total number of primitive shell pairs       ...       864
Primitive shell pairs kept                  ...       769
          la=0 lb=0:     52 shell pairs
          la=1 lb=0:     60 shell pairs
          la=1 lb=1:     21 shell pairs
          la=2 lb=0:     40 shell pairs
          la=2 lb=1:     24 shell pairs
          la=2 lb=2:     10 shell pairs
          la=3 lb=0:     20 shell pairs
          la=3 lb=1:     12 shell pairs
          la=3 lb=2:      8 shell pairs
          la=3 lb=3:      3 shell pairs

Calculating one electron integrals          ... done (  0.0 sec)
Calculating RI/J V-Matrix + Cholesky decomp.... done (  0.0 sec)
Calculating Nuclear repulsion               ... done (  0.0 sec) ENN=     25.024903985651 Eh

SHARK setup successfully completed in   0.2 seconds

Maximum memory used throughout the entire GTOINT-calculation: 13.9 MB

Diagonalization of the overlap matrix:
Smallest eigenvalue                        ... 5.839e-03
Time for diagonalization                   ...    0.001 sec
Threshold for overlap eigenvalues          ... 1.000e-08
Number of eigenvalues below threshold      ... 0
Time for construction of square roots      ...    0.010 sec
Total time needed                          ...    0.011 sec

-------------------
DFT GRID GENERATION
-------------------

General Integration Accuracy     IntAcc      ... 4.388
Radial Grid Type                 RadialGrid  ... OptM3 with GC (2021)
Angular Grid (max. ang.)         AngularGrid ... 4 (Lebedev-302)
Angular grid pruning method      GridPruning ... 4 (adaptive)
Weight generation scheme         WeightScheme... Becke
Basis function cutoff            BFCut       ... 1.0000e-11
Integration weight cutoff        WCut        ... 1.0000e-14
Angular grids for H and He will be reduced by one unit
Partially contracted basis set               ... off
Rotationally invariant grid construction     ... off

Total number of grid points                  ...    12266
Total number of batches                      ...      192
Average number of points per batch           ...       63
Average number of grid points per atom       ...     6133
Time for grid setup =    0.095 sec


--------------------
CPCM SOLVATION MODEL
--------------------
CPCM parameters:
  Epsilon                                         ...      80.4000
  Refrac                                          ...       1.3300
  Rsolv                                           ...       1.3000
  Surface type                                    ... GAUSSIAN VDW
  Epsilon function type                           ...         CPCM
Radii:
 Radius for O  used is    3.4469 Bohr (=   1.8240 Ang.)
Calculating surface                               ...        done! (  0.0s)
GEPOL surface points                              ...          182
GEPOL Volume                                      ...     262.7714
GEPOL Surface-area                                ...     205.0142
Calculating surface distance matrix               ...        done! (  0.0s)
Performing Cholesky decomposition & store         ...        done! (  0.0s)
Overall time for CPCM initialization              ...                 0.0s
--------------
SCF ITERATIONS
--------------
ITER       Energy         Delta-E        Max-DP      RMS-DP      [F,P]     Damp
               ***  Starting incremental Fock matrix formation  ***
  0   -150.3702711163   0.000000000000 0.00076201  0.00004045  0.0032374 0.7000
  1   -150.3703420736  -0.000070957360 0.00078688  0.00003914  0.0024185 0.7000
                               ***Turning on DIIS***
  2   -150.3703945150  -0.000052441329 0.00208921  0.00010171  0.0017282 0.0000
  3   -150.3705167767  -0.000122261679 0.00011775  0.00000652  0.0001409 0.0000
  4   -150.3705169685  -0.000000191822 0.00009352  0.00000407  0.0000654 0.0000
  5   -150.3705169671   0.000000001366 0.00003686  0.00000222  0.0000665 0.0000
  6   -150.3705169968  -0.000000029691 0.00003540  0.00000276  0.0000106 0.0000
  7   -150.3705170003  -0.000000003527 0.00002035  0.00000153  0.0000117 0.0000
                 **** Energy Check signals convergence ****

               *****************************************************
               *                     SUCCESS                       *
               *           SCF CONVERGED AFTER   8 CYCLES          *
               *****************************************************

Total Energy       :         -150.37051700 Eh           -4091.78979 eV
  Last Energy change         ...   -2.5985e-09  Tolerance :   1.0000e-08
  Last MAX-Density change    ...    1.6030e-05  Tolerance :   1.0000e-07
             **** THE GBW FILE WAS UPDATED (inp.gbw) ****
             **** DENSITY inp.scfp WAS UPDATED ****
             **** ENERGY FILE WAS UPDATED (inp.en.tmp) ****
----------------------
UHF SPIN CONTAMINATION
----------------------

Warning: in a DFT calculation there is little theoretical justification to 
         calculate <S**2> as in Hartree-Fock theory. We will do it anyways
         but you should keep in mind that the values have only limited relevance

Expectation value of <S**2>     :     0.752283
Ideal value S*(S+1) for S=0.5   :     0.750000
Deviation                       :     0.002283

             **** THE GBW FILE WAS UPDATED (inp.gbw) ****
             **** DENSITY inp.scfp WAS UPDATED ****
Total SCF time: 0 days 0 hours 0 min 3 sec 

Maximum memory used throughout the entire SCF-calculation: 13.0 MB


-------------------------------------------------------------------------------
                          DFT DISPERSION CORRECTION                            
                                                                               
                              DFTD3 V3.1  Rev 1                                
                          USING Becke-Johnson damping                          
-------------------------------------------------------------------------------
-------------------------   ----------------
Dispersion correction           -0.000267008
-------------------------   ----------------


-------------------------   --------------------
FINAL SINGLE POINT ENERGY      -150.370784010918
-------------------------   --------------------

------------------------------------------------------------------------------
                         ORCA SCF GRADIENT CALCULATION
------------------------------------------------------------------------------

Gradient of the Kohn-Sham DFT energy:
Kohn-Sham wavefunction type      ... UKS
Hartree-Fock exchange scaling    ...    0.000
Number of operators              ...    2
Number of atoms                  ...    2
Basis set dimensions             ...   62
Integral neglect threshold       ... 2.5e-11
Integral primitive cutoff        ... 2.5e-12
SHARK Integral package           ... ON

Nuc. rep. gradient       (SHARK) ... done (  0.0 sec)
HCore & Overlap gradient (SHARK) ... done (  0.0 sec)
RI-J gradient            (SHARK) ... done (  0.1 sec)
Exchange-correlation gradient    ... done
Dispersion correction            ... done

------------------
CARTESIAN GRADIENT
------------------

   1   O   :   -0.003599127   -0.001957188   -0.000590638
   2   O   :    0.003599127    0.001957188    0.000590638

Difference to translation invariance:
           :   -0.0000000000   -0.0000000000    0.0000000000

Difference to rotation invariance:
           :   -0.0000803342    0.0000872136    0.0002005288

Norm of the cartesian gradient     ...    0.0058537422
RMS gradient                       ...    0.0023897802
MAX gradient                       ...    0.0035991266

-------
TIMINGS
-------

Total SCF gradient time            ...        0.716 sec

One electron gradient       ....       0.006 sec  (  0.8%)
RI-J Coulomb gradient       ....       0.122 sec  ( 17.1%)
XC gradient                 ....       0.358 sec  ( 50.1%)
CPCM gradient               ....       0.053 sec  (  7.4%)
   A-Matrix (El+Nuc)        ....       0.001 sec  (  0.2%)
   Potential                ....       0.052 sec  (  7.2%)

Maximum memory used throughout the entire SCFGRAD-calculation: 31.0 MB
------------------------------------------------------------------------------
                         ORCA GEOMETRY RELAXATION STEP
------------------------------------------------------------------------------

Reading the OPT-File                    .... done
Getting information on internals        .... done
Copying old internal coords+grads       .... done
Making the new internal coordinates     .... (new redundants).... done
Validating the new internal coordinates .... (new redundants).... done
Calculating the B-matrix                .... done
Calculating the G,G- and P matrices     .... done
Transforming gradient to internals      .... done
Projecting the internal gradient        .... done
Number of atoms                         ....   2
Number of internal coordinates          ....   1
Current Energy                          ....  -150.370784011 Eh
Current gradient norm                   ....     0.005853742 Eh/bohr
Maximum allowed component of the step   ....  0.300
Current trust radius                    ....  0.300
Updating the Hessian (BFGS)             .... done
Forming the augmented Hessian           .... done
Diagonalizing the augmented Hessian     .... done
Last element of RFO vector              ....  0.999953440
Lowest eigenvalues of augmented Hessian:
 -0.000039935
Length of the computed step             ....  0.009650177
The final length of the internal step   ....  0.009650177
Converting the step to cartesian space:
 Initial RMS(Int)=    0.0096501773
Transforming coordinates:
 Iter   0:  RMS(Cart)=    0.0027857662 RMS(Int)=    0.0096501773
 Iter   1:  RMS(Cart)=    0.0000000000 RMS(Int)=    0.0000000000
done
Storing new coordinates                 .... done

                                .--------------------.
          ----------------------|Geometry convergence|-------------------------
          Item                value                   Tolerance       Converged
          ---------------------------------------------------------------------
          Energy change      -0.0004826482            0.0000050000      NO
          RMS gradient        0.0041382184            0.0001000000      NO
          MAX gradient        0.0041382184            0.0003000000      NO
          RMS step            0.0096501773            0.0020000000      NO
          MAX step            0.0096501773            0.0040000000      NO
          ........................................................
          Max(Bonds)      0.0051      Max(Angles)    0.00
          Max(Dihed)        0.00      Max(Improp)    0.00
          ---------------------------------------------------------------------

The optimization has not yet converged - more geometry cycles are needed


    ---------------------------------------------------------------------------
                         Redundant Internal Coordinates
                            (Angstroem and degrees)

        Definition                    Value    dE/dq     Step     New-Value
    ----------------------------------------------------------------------------
     1. B(O   1,O   0)                1.3533 -0.004138  0.0051    1.3585   
    ----------------------------------------------------------------------------

[...]
               ***  Starting incremental Fock matrix formation  ***
  0   -150.3705385768   0.000000000000 0.00000346  0.00000020  0.0000148 0.7000
  1   -150.3705385775  -0.000000000661 0.00000206  0.00000012  0.0000090 0.7000
                               ***Turning on DIIS***
  2   -150.3705385777  -0.000000000201 0.00004110  0.00000303  0.0000066 0.0000
                 **** Energy Check signals convergence ****

               *****************************************************
               *                     SUCCESS                       *
               *           SCF CONVERGED AFTER   3 CYCLES          *
               *****************************************************


----------------
TOTAL SCF ENERGY
----------------

Total Energy       :         -150.37053858 Eh           -4091.79038 eV

Components:
Nuclear Repulsion  :           24.92281422 Eh             678.18425 eV
Electronic Energy  :         -175.29335281 Eh           -4769.97463 eV
One Electron Energy:         -262.32728929 Eh           -7138.28845 eV
Two Electron Energy:           87.03393649 Eh            2368.31381 eV
CPCM Dielectric    :           -0.12122876 Eh              -3.29880 eV

Virial components:
Potential Energy   :         -300.26540917 Eh           -8170.63717 eV
Kinetic Energy     :          149.89487059 Eh            4078.84679 eV
Virial Ratio       :            2.00317334


DFT components:
N(Alpha)           :        8.999996643660 electrons
N(Beta)            :        7.999997719229 electrons
N(Total)           :       16.999994362889 electrons
E(X)               :      -16.596179275872 Eh       
E(C)               :       -0.557774011228 Eh       
E(XC)              :      -17.153953287100 Eh       
DFET-embed. en.    :        0.000000000000 Eh       
CPCM Solvation Model Properties:
Surface-charge          :            0.98643350
Charge-correction       :           -0.00166727 Eh              -0.04537 eV
Free-energy (cav+disp)  :  This term is not implemented in the current solvation scheme

---------------
SCF CONVERGENCE
---------------

  Last Energy change         ...   -4.0065e-09  Tolerance :   1.0000e-08
  Last MAX-Density change    ...    1.7974e-06  Tolerance :   1.0000e-07
  Last RMS-Density change    ...    1.1682e-07  Tolerance :   5.0000e-09
  Last DIIS Error            ...    1.3544e-05  Tolerance :   5.0000e-07

             **** THE GBW FILE WAS UPDATED (inp.gbw) ****
             **** DENSITY inp.scfp WAS UPDATED ****
             **** ENERGY FILE WAS UPDATED (inp.en.tmp) ****
----------------------
UHF SPIN CONTAMINATION
----------------------

Warning: in a DFT calculation there is little theoretical justification to 
         calculate <S**2> as in Hartree-Fock theory. We will do it anyways
         but you should keep in mind that the values have only limited relevance

Expectation value of <S**2>     :     0.752293
Ideal value S*(S+1) for S=0.5   :     0.750000
Deviation                       :     0.002293

             **** THE GBW FILE WAS UPDATED (inp.gbw) ****
             **** DENSITY inp.scfp WAS UPDATED ****
----------------
ORBITAL ENERGIES
----------------
                 SPIN UP ORBITALS
  NO   OCC          E(Eh)            E(eV) 
   0   1.0000     -18.710612      -509.1416 
   1   1.0000     -18.710574      -509.1406 
   2   1.0000      -0.935468       -25.4554 
   3   1.0000      -0.623192       -16.9579 
   4   1.0000      -0.326633        -8.8881 
   5   1.0000      -0.309951        -8.4342 
   6   1.0000      -0.273718        -7.4482 
   7   1.0000      -0.136008        -3.7010 
   8   1.0000      -0.096063        -2.6140 
   9   0.0000       0.120522         3.2796 
  10   0.0000       0.343711         9.3528 
  11   0.0000       0.395332        10.7575 
  12   0.0000       0.398983        10.8569 
  13   0.0000       0.413310        11.2467 
  14   0.0000       0.466517        12.6946 
  15   0.0000       0.485222        13.2035 
  16   0.0000       0.496926        13.5220 
  17   0.0000       0.720748        19.6125 
  18   0.0000       1.282872        34.9087 
  19   0.0000       1.306495        35.5515 
  20   0.0000       1.321621        35.9631 
  21   0.0000       1.321770        35.9672 
  22   0.0000       1.619851        44.0784 
  23   0.0000       1.619923        44.0803 
  24   0.0000       1.841379        50.1065 
  25   0.0000       2.038446        55.4689 
  26   0.0000       2.063544        56.1519 
  27   0.0000       2.082334        56.6632 
  28   0.0000       2.403301        65.3971 
  29   0.0000       2.435344        66.2691 
  30   0.0000       2.548440        69.3466 
  31   0.0000       2.644171        71.9515 
  32   0.0000       2.674137        72.7670 
  33   0.0000       2.707913        73.6861 
  34   0.0000       2.731395        74.3250 
  35   0.0000       4.086872       111.2094 
  36   0.0000       4.614635       125.5706 
  37   0.0000       4.642275       126.3227 
  38   0.0000       4.733027       128.7922 
  39   0.0000       4.737851       128.9235 
  40   0.0000       4.787228       130.2671 
  41   0.0000       5.014418       136.4492 
  42   0.0000       5.014423       136.4494 
  43   0.0000       5.126008       139.4858 
  44   0.0000       5.126022       139.4861 
  45   0.0000       5.441192       148.0624 
  46   0.0000       5.441208       148.0628 
  47   0.0000       5.982717       162.7980 
  48   0.0000       6.015509       163.6903 
  49   0.0000       6.062111       164.9584 
  50   0.0000       6.062298       164.9635 
  51   0.0000       6.229207       169.5053 
  52   0.0000       6.232839       169.6042 
  53   0.0000       6.236544       169.7050 
  54   0.0000       6.264986       170.4789 
  55   0.0000       6.331430       172.2870 
  56   0.0000       6.901115       187.7889 
  57   0.0000       6.933399       188.6674 
  58   0.0000       7.098614       193.1631 
  59   0.0000       8.247818       224.4346 
  60   0.0000      42.554313      1157.9617 
  61   0.0000      43.238619      1176.5826 

                 SPIN DOWN ORBITALS
  NO   OCC          E(Eh)            E(eV) 
   0   1.0000     -18.698396      -508.8092 
   1   1.0000     -18.698362      -508.8083 
   2   1.0000      -0.912317       -24.8254 
   3   1.0000      -0.591537       -16.0965 
   4   1.0000      -0.312344        -8.4993 
   5   1.0000      -0.263998        -7.1837 
   6   1.0000      -0.256618        -6.9829 
   7   1.0000      -0.083820        -2.2809 
   8   0.0000      -0.071149        -1.9361 
   9   0.0000       0.136201         3.7062 
  10   0.0000       0.353304         9.6139 
  11   0.0000       0.404251        11.0002 
  12   0.0000       0.417585        11.3631 
  13   0.0000       0.423607        11.5269 
  14   0.0000       0.469043        12.7633 
  15   0.0000       0.501874        13.6567 
  16   0.0000       0.512627        13.9493 
  17   0.0000       0.732011        19.9190 
  18   0.0000       1.304127        35.4871 
  19   0.0000       1.307877        35.5891 
  20   0.0000       1.343667        36.5630 
  21   0.0000       1.345623        36.6163 
  22   0.0000       1.647305        44.8254 
  23   0.0000       1.649754        44.8921 
  24   0.0000       1.854299        50.4581 
  25   0.0000       2.068186        56.2782 
  26   0.0000       2.073300        56.4174 
  27   0.0000       2.093057        56.9550 
  28   0.0000       2.445107        66.5348 
  29   0.0000       2.459000        66.9128 
  30   0.0000       2.571286        69.9683 
  31   0.0000       2.656025        72.2741 
  32   0.0000       2.717798        73.9550 
  33   0.0000       2.728730        74.2525 
  34   0.0000       2.755411        74.9786 
  35   0.0000       4.105001       111.7028 
  36   0.0000       4.645596       126.4131 
  37   0.0000       4.646011       126.4244 
  38   0.0000       4.761152       129.5575 
  39   0.0000       4.762909       129.6053 
  40   0.0000       4.800033       130.6155 
  41   0.0000       5.053257       137.5061 
  42   0.0000       5.053726       137.5189 
  43   0.0000       5.165855       140.5701 
  44   0.0000       5.166316       140.5826 
  45   0.0000       5.468485       148.8050 
  46   0.0000       5.470568       148.8617 
  47   0.0000       6.021529       163.8541 
  48   0.0000       6.030000       164.0847 
  49   0.0000       6.113221       166.3492 
  50   0.0000       6.118208       166.4849 
  51   0.0000       6.271393       170.6533 
  52   0.0000       6.282818       170.9642 
  53   0.0000       6.286301       171.0590 
  54   0.0000       6.290232       171.1659 
  55   0.0000       6.351571       172.8350 
  56   0.0000       6.937887       188.7895 
  57   0.0000       6.943606       188.9451 
  58   0.0000       7.116650       193.6539 
  59   0.0000       8.260934       224.7915 
  60   0.0000      42.568256      1158.3411 
  61   0.0000      43.252530      1176.9612 

                    ********************************
                    * MULLIKEN POPULATION ANALYSIS *
                    ********************************

--------------------------------------------
MULLIKEN ATOMIC CHARGES AND SPIN POPULATIONS
--------------------------------------------
   0 O :   -0.500023    0.499986
   1 O :   -0.499977    0.500014
Sum of atomic charges         :   -1.0000000
Sum of atomic spin populations:    1.0000000

-----------------------------------------------------
MULLIKEN REDUCED ORBITAL CHARGES AND SPIN POPULATIONS
-----------------------------------------------------
CHARGE
  0 O s       :     3.944134  s :     3.944134
      pz      :     1.881761  p :     4.521537
      px      :     1.207522
      py      :     1.432254
      dz2     :     0.003402  d :     0.031865
      dxz     :     0.007380
      dyz     :     0.002566
      dx2y2   :     0.009226
      dxy     :     0.009291
      f0      :     0.000240  f :     0.002486
      f+1     :     0.000377
      f-1     :     0.000159
      f+2     :     0.000151
      f-2     :     0.000307
      f+3     :     0.000577
      f-3     :     0.000675
  1 O s       :     3.944135  s :     3.944135
      pz      :     1.881756  p :     4.521490
      px      :     1.207503
      py      :     1.432231
      dz2     :     0.003402  d :     0.031866
      dxz     :     0.007380
      dyz     :     0.002566
      dx2y2   :     0.009226
      dxy     :     0.009291
      f0      :     0.000240  f :     0.002486
      f+1     :     0.000377
      f-1     :     0.000159
      f+2     :     0.000151
      f-2     :     0.000307
      f+3     :     0.000577
      f-3     :     0.000675

SPIN
  0 O s       :     0.003491  s :     0.003491
      pz      :     0.091391  p :     0.496164
      px      :     0.076020
      py      :     0.328753
      dz2     :    -0.000084  d :     0.000486
      dxz     :    -0.000036
      dyz     :     0.000038
      dx2y2   :     0.000299
      dxy     :     0.000269
      f0      :     0.000007  f :    -0.000155
      f+1     :    -0.000003
      f-1     :     0.000014
      f+2     :     0.000009
      f-2     :    -0.000020
      f+3     :    -0.000033
      f-3     :    -0.000130
  1 O s       :     0.003491  s :     0.003491
      pz      :     0.091396  p :     0.496192
      px      :     0.076025
      py      :     0.328772
      dz2     :    -0.000084  d :     0.000486
      dxz     :    -0.000036
      dyz     :     0.000038
      dx2y2   :     0.000299
      dxy     :     0.000269
      f0      :     0.000007  f :    -0.000155
      f+1     :    -0.000003
      f-1     :     0.000014
      f+2     :     0.000009
      f-2     :    -0.000020
      f+3     :    -0.000033
      f-3     :    -0.000130


                     *******************************
                     * LOEWDIN POPULATION ANALYSIS *
                     *******************************

-------------------------------------------
LOEWDIN ATOMIC CHARGES AND SPIN POPULATIONS
-------------------------------------------
   0 O :   -0.500022    0.499987
   1 O :   -0.499978    0.500013

----------------------------------------------------
LOEWDIN REDUCED ORBITAL CHARGES AND SPIN POPULATIONS
----------------------------------------------------
CHARGE
  0 O s       :     3.741232  s :     3.741232
      pz      :     1.860841  p :     4.644185
      px      :     1.324058
      py      :     1.459285
      dz2     :     0.012557  d :     0.105520
      dxz     :     0.023994
      dyz     :     0.008761
      dx2y2   :     0.027853
      dxy     :     0.032355
      f0      :     0.000948  f :     0.009085
      f+1     :     0.001338
      f-1     :     0.000494
      f+2     :     0.000495
      f-2     :     0.001318
      f+3     :     0.001891
      f-3     :     0.002601
  1 O s       :     3.741232  s :     3.741232
      pz      :     1.860835  p :     4.644141
      px      :     1.324042
      py      :     1.459264
      dz2     :     0.012557  d :     0.105520
      dxz     :     0.023994
      dyz     :     0.008760
      dx2y2   :     0.027853
      dxy     :     0.032355
      f0      :     0.000948  f :     0.009085
      f+1     :     0.001338
      f-1     :     0.000494
      f+2     :     0.000495
      f-2     :     0.001318
      f+3     :     0.001891
      f-3     :     0.002601

SPIN
  0 O s       :     0.003761  s :     0.003761
      pz      :     0.089609  p :     0.485234
      px      :     0.073891
      py      :     0.321734
      dz2     :     0.000016  d :     0.010223
      dxz     :     0.001544
      dyz     :     0.000123
      dx2y2   :     0.005586
      dxy     :     0.002955
      f0      :     0.000047  f :     0.000769
      f+1     :    -0.000004
      f-1     :     0.000074
      f+2     :     0.000113
      f-2     :     0.000020
      f+3     :     0.000636
      f-3     :    -0.000117
  1 O s       :     0.003761  s :     0.003761
      pz      :     0.089614  p :     0.485260
      px      :     0.073895
      py      :     0.321751
      dz2     :     0.000016  d :     0.010223
      dxz     :     0.001544
      dyz     :     0.000123
      dx2y2   :     0.005585
      dxy     :     0.002955
      f0      :     0.000047  f :     0.000769
      f+1     :    -0.000004
      f-1     :     0.000074
      f+2     :     0.000113
      f-2     :     0.000020
      f+3     :     0.000636
      f-3     :    -0.000117


                      *****************************
                      * MAYER POPULATION ANALYSIS *
                      *****************************

  NA   - Mulliken gross atomic population
  ZA   - Total nuclear charge
  QA   - Mulliken gross atomic charge
  VA   - Mayer's total valence
  BVA  - Mayer's bonded valence
  FA   - Mayer's free valence

  ATOM       NA         ZA         QA         VA         BVA        FA
  0 O      8.5000     8.0000    -0.5000     1.5841     1.3223     0.2618
  1 O      8.5000     8.0000    -0.5000     1.5841     1.3223     0.2618

  Mayer bond orders larger than 0.100000
B(  0-O ,  1-O ) :   1.3223 

-------
TIMINGS
-------

Total SCF time: 0 days 0 hours 0 min 2 sec 

Total time                  ....       2.093 sec
Sum of individual times     ....       1.448 sec  ( 69.2%)

Fock matrix formation       ....       1.223 sec  ( 58.4%)
  Split-RI-J                ....       0.052 sec  (  4.3% of F)
  XC integration            ....       0.541 sec  ( 44.2% of F)
    Basis function eval.    ....       0.089 sec  ( 16.4% of XC)
    Density eval.           ....       0.084 sec  ( 15.5% of XC)
    XC-Functional eval.     ....       0.059 sec  ( 10.9% of XC)
    XC-Potential eval.      ....       0.100 sec  ( 18.6% of XC)
Diagonalization             ....       0.005 sec  (  0.2%)
Density matrix formation    ....       0.000 sec  (  0.0%)
Population analysis         ....       0.052 sec  (  2.5%)
Initial guess               ....       0.002 sec  (  0.1%)
Orbital Transformation      ....       0.000 sec  (  0.0%)
Orbital Orthonormalization  ....       0.001 sec  (  0.1%)
DIIS solution               ....       0.037 sec  (  1.8%)
Grid generation             ....       0.128 sec  (  6.1%)

Maximum memory used throughout the entire SCF-calculation: 13.0 MB


-------------------------------------------------------------------------------
                          DFT DISPERSION CORRECTION                            
                                                                               
                              DFTD3 V3.1  Rev 1                                
                          USING Becke-Johnson damping                          
-------------------------------------------------------------------------------
The PBE functional is recognized
Active option DFTDOPT                   ...         4   

molecular C6(AA) [au] = 51.306819 


            DFT-D V3
 parameters
 s6 scaling factor         :     1.0000 
 a1 scaling factor         :     0.4289 
 s8 scaling factor         :     0.7875 
 a2 scaling factor         :     4.4407 
 ad hoc parameters k1-k3   :    16.0000     1.3333    -4.0000 

 Edisp/kcal,au: -0.167553379936  -0.000267013279 
 E6   /kcal   :  -0.120249397 
 E8   /kcal   :  -0.047303983 
 % E8         :  28.232186694 

-------------------------   ----------------
Dispersion correction           -0.000267013
-------------------------   ----------------


-------------------------   --------------------
FINAL SINGLE POINT ENERGY      -150.370805594979
-------------------------   --------------------

                                *** OPTIMIZATION RUN DONE ***

                            ***************************************
                            *     ORCA property calculations      *
                            ***************************************

                                    ---------------------
                                    Active property flags
                                    ---------------------
   (+) Dipole Moment


------------------------------------------------------------------------------
                       ORCA ELECTRIC PROPERTIES CALCULATION
------------------------------------------------------------------------------

Dipole Moment Calculation                       ... on
Quadrupole Moment Calculation                   ... off
Polarizability Calculation                      ... off
GBWName                                         ... inp.gbw
Electron density                                ... inp.scfp
The origin for moment calculation is the CENTER OF MASS  = (-6.774765, -9.196379  5.036683)

-------------
DIPOLE MOMENT
-------------
                                X             Y             Z
Electronic contribution:     -0.00005      -0.00003      -0.00001
Nuclear contribution   :      0.00000       0.00000       0.00000
                        -----------------------------------------
Total Dipole Moment    :     -0.00005      -0.00003      -0.00001
                        -----------------------------------------
Magnitude (a.u.)       :      0.00006
Magnitude (Debye)      :      0.00015



--------------------
Rotational spectrum 
--------------------
 
Rotational constants in cm-1:     0.000000     1.141211     1.141211 
Rotational constants in MHz :     0.000000 34212.649808 34212.649808 

 Dipole components along the rotational axes: 
x,y,z [a.u.] :    -0.000058    -0.000000     0.000000 
x,y,z [Debye]:    -0.000147    -0.000000     0.000000 

 

Timings for individual modules:

Sum of individual times         ...       28.249 sec (=   0.471 min)
GTO integral calculation        ...        2.213 sec (=   0.037 min)   7.8 %
SCF iterations                  ...       21.679 sec (=   0.361 min)  76.7 %
SCF Gradient evaluation         ...        3.959 sec (=   0.066 min)  14.0 %
Geometry relaxation             ...        0.398 sec (=   0.007 min)   1.4 %
                             ****ORCA TERMINATED NORMALLY****
TOTAL RUN TIME: 0 days 0 hours 0 minutes 30 seconds 300 msec
