
                                 *****************
                                 * O   R   C   A *
                                 *****************

                                            #,                                       
                                            ###                                      
                                            ####                                     
                                            #####                                    
                                            ######                                   
                                           ########,                                 
                                     ,,################,,,,,                         
                               ,,#################################,,                 
                          ,,##########################################,,             
                       ,#########################################, ''#####,          
                    ,#############################################,,   '####,        
                  ,##################################################,,,,####,       
                ,###########''''           ''''###############################       
              ,#####''   ,,,,##########,,,,          '''####'''          '####       
            ,##' ,,,,###########################,,,                        '##       
           ' ,,###''''                  '''############,,,                           
         ,,##''                                '''############,,,,        ,,,,,,###''
      ,#''                                            '''#######################'''  
     '                                                          ''''####''''         
             ,#######,   #######,   ,#######,      ##                                
            ,#'     '#,  ##    ##  ,#'     '#,    #''#        ######   ,####,        
            ##       ##  ##   ,#'  ##            #'  '#       #        #'  '#        
            ##       ##  #######   ##           ,######,      #####,   #    #        
            '#,     ,#'  ##    ##  '#,     ,#' ,#      #,         ##   #,  ,#        
             '#######'   ##     ##  '#######'  #'      '#     #####' # '####'        



                  #######################################################
                  #                        -***-                        #
                  #          Department of theory and spectroscopy      #
                  #    Directorship and core code : Frank Neese         #
                  #        Max Planck Institute fuer Kohlenforschung    #
                  #                Kaiser Wilhelm Platz 1               #
                  #                 D-45470 Muelheim/Ruhr               #
                  #                      Germany                        #
                  #                                                     #
                  #                  All rights reserved                #
                  #                        -***-                        #
                  #######################################################


                         Program Version 5.0.4 -  RELEASE  -


 With contributions from (in alphabetic order):
   Daniel Aravena         : Magnetic Suceptibility
   Michael Atanasov       : Ab Initio Ligand Field Theory (pilot matlab implementation)
   Alexander A. Auer      : GIAO ZORA, VPT2 properties, NMR spectrum
   Ute Becker             : Parallelization
   Giovanni Bistoni       : ED, misc. LED, open-shell LED, HFLD
   Martin Brehm           : Molecular dynamics
   Dmytro Bykov           : SCF Hessian
   Vijay G. Chilkuri      : MRCI spin determinant printing, contributions to CSF-ICE
   Dipayan Datta          : RHF DLPNO-CCSD density
   Achintya Kumar Dutta   : EOM-CC, STEOM-CC
   Dmitry Ganyushin       : Spin-Orbit,Spin-Spin,Magnetic field MRCI
   Miquel Garcia          : C-PCM and meta-GGA Hessian, CC/C-PCM, Gaussian charge scheme
   Yang Guo               : DLPNO-NEVPT2, F12-NEVPT2, CIM, IAO-localization
   Andreas Hansen         : Spin unrestricted coupled pair/coupled cluster methods
   Benjamin Helmich-Paris : MC-RPA, TRAH-SCF, COSX integrals
   Lee Huntington         : MR-EOM, pCC
   Robert Izsak           : Overlap fitted RIJCOSX, COSX-SCS-MP3, EOM
   Marcus Kettner         : VPT2
   Christian Kollmar      : KDIIS, OOCD, Brueckner-CCSD(T), CCSD density, CASPT2, CASPT2-K
   Simone Kossmann        : Meta GGA functionals, TD-DFT gradient, OOMP2, MP2 Hessian
   Martin Krupicka        : Initial AUTO-CI
   Lucas Lang             : DCDCAS
   Marvin Lechner         : AUTO-CI (C++ implementation), FIC-MRCC
   Dagmar Lenk            : GEPOL surface, SMD
   Dimitrios Liakos       : Extrapolation schemes; Compound Job, initial MDCI parallelization
   Dimitrios Manganas     : Further ROCIS development; embedding schemes
   Dimitrios Pantazis     : SARC Basis sets
   Anastasios Papadopoulos: AUTO-CI, single reference methods and gradients
   Taras Petrenko         : DFT Hessian,TD-DFT gradient, ASA, ECA, R-Raman, ABS, FL, XAS/XES, NRVS
   Peter Pinski           : DLPNO-MP2, DLPNO-MP2 Gradient
   Christoph Reimann      : Effective Core Potentials
   Marius Retegan         : Local ZFS, SOC
   Christoph Riplinger    : Optimizer, TS searches, QM/MM, DLPNO-CCSD(T), (RO)-DLPNO pert. Triples
   Tobias Risthaus        : Range-separated hybrids, TD-DFT gradient, RPA, STAB
   Michael Roemelt        : Original ROCIS implementation
   Masaaki Saitow         : Open-shell DLPNO-CCSD energy and density
   Barbara Sandhoefer     : DKH picture change effects
   Avijit Sen             : IP-ROCIS
   Kantharuban Sivalingam : CASSCF convergence, NEVPT2, FIC-MRCI
   Bernardo de Souza      : ESD, SOC TD-DFT
   Georgi Stoychev        : AutoAux, RI-MP2 NMR, DLPNO-MP2 response
   Willem Van den Heuvel  : Paramagnetic NMR
   Boris Wezisla          : Elementary symmetry handling
   Frank Wennmohs         : Technical directorship


 We gratefully acknowledge several colleagues who have allowed us to
 interface, adapt or use parts of their codes:
   Stefan Grimme, W. Hujo, H. Kruse, P. Pracht,  : VdW corrections, initial TS optimization,
                  C. Bannwarth, S. Ehlert          DFT functionals, gCP, sTDA/sTD-DF
   Ed Valeev, F. Pavosevic, A. Kumar             : LibInt (2-el integral package), F12 methods
   Garnet Chan, S. Sharma, J. Yang, R. Olivares  : DMRG
   Ulf Ekstrom                                   : XCFun DFT Library
   Mihaly Kallay                                 : mrcc  (arbitrary order and MRCC methods)
   Jiri Pittner, Ondrej Demel                    : Mk-CCSD
   Frank Weinhold                                : gennbo (NPA and NBO analysis)
   Christopher J. Cramer and Donald G. Truhlar   : smd solvation model
   Lars Goerigk                                  : TD-DFT with DH, B97 family of functionals
   V. Asgeirsson, H. Jonsson                     : NEB implementation
   FAccTs GmbH                                   : IRC, NEB, NEB-TS, DLPNO-Multilevel, CI-OPT
                                                   MM, QMMM, 2- and 3-layer-ONIOM, Crystal-QMMM,
                                                   LR-CPCM, SF, NACMEs, symmetry and pop. for TD-DFT,
                                                   nearIR, NL-DFT gradient (VV10), updates on ESD,
                                                   ML-optimized integration grids
   S Lehtola, MJT Oliveira, MAL Marques          : LibXC Library
   Liviu Ungur et al                             : ANISO software


 Your calculation uses the libint2 library for the computation of 2-el integrals
 For citations please refer to: http://libint.valeyev.net

 Your ORCA version has been built with support for libXC version: 5.1.0
 For citations please refer to: https://tddft.org/programs/libxc/

 This ORCA versions uses:
   CBLAS   interface :  Fast vector & matrix operations
   LAPACKE interface :  Fast linear algebra routines
   SCALAPACK package :  Parallel linear algebra routines
   Shared memory     :  Shared parallel matrices
   BLAS/LAPACK       :  OpenBLAS 0.3.15  USE64BITINT DYNAMIC_ARCH NO_AFFINITY Haswell SINGLE_THREADED
        Core in use  :  Haswell
   Copyright (c) 2011-2014, The OpenBLAS Project


Your calculation utilizes the atom-pairwise dispersion correction
with the Becke-Johnson damping scheme (D3BJ)
Cite in your paper:
S.Grimme, S.Ehrlich, L.Goerigk, J Comput Chem, (2011), 32, 1456–1465 
S.Grimme, J.Antony, S.Ehrlich and H.Krieg, J.Chem.Phys., 132, (2010), 154104 
   

================================================================================

----- Orbital basis set information -----
Your calculation utilizes the basis: def2-TZVP
   F. Weigend and R. Ahlrichs, Phys. Chem. Chem. Phys. 7, 3297 (2005).

----- AuxJ basis set information -----
Your calculation utilizes the auxiliary basis: def2/J
   F. Weigend, Phys. Chem. Chem. Phys. 8, 1057 (2006).

================================================================================
                                        WARNINGS
                       Please study these warnings very carefully!
================================================================================


WARNING: Geometry Optimization
  ===> : Switching off AutoStart
         For restart on a previous wavefunction, please use MOREAD

INFO   : the flag for use of the SHARK integral package has been found!

================================================================================
                                       INPUT FILE
================================================================================
NAME = inp.inp
|  1> !OPT PBE D3BJ def2-TZVP CPCM(water)
|  2> 
|  3> *xyz -1 1
|  4> C     -6.315833   -4.191771    0.860061
|  5> C     -7.397422   -4.641526    1.486967
|  6> H     -6.147333   -4.442538   -0.178270
|  7> H     -5.591560   -3.571455    1.375534
|  8> O     -7.442128   -4.269594    2.644177
|  9> H     -8.129217   -5.273200    0.961864
| 10> *
| 11> 
| 12>                          ****END OF INPUT****
================================================================================

                       *****************************
                       * Geometry Optimization Run *
                       *****************************

Geometry optimization settings:
Update method            Update   .... BFGS
Choice of coordinates    CoordSys .... Z-matrix Internals
Initial Hessian          InHess   .... Almoef's Model

Convergence Tolerances:
Energy Change            TolE     ....  5.0000e-06 Eh
Max. Gradient            TolMAXG  ....  3.0000e-04 Eh/bohr
RMS Gradient             TolRMSG  ....  1.0000e-04 Eh/bohr
Max. Displacement        TolMAXD  ....  4.0000e-03 bohr
RMS Displacement         TolRMSD  ....  2.0000e-03 bohr
Strict Convergence                ....  False
------------------------------------------------------------------------------
                        ORCA OPTIMIZATION COORDINATE SETUP
------------------------------------------------------------------------------

The optimization will be done in new redundant internal coordinates
Making redundant internal coordinates   ...  (new redundants) done
Evaluating the initial hessian          ...  (Almloef) done
Evaluating the coordinates              ...  done
Calculating the B-matrix                .... done
Calculating the G-matrix                .... done
Diagonalizing the G-matrix              .... done
The first mode is                       ....    3
The number of degrees of freedom        ....   12

    -----------------------------------------------------------------
                    Redundant Internal Coordinates


    -----------------------------------------------------------------
         Definition                    Initial Value    Approx d2E/dq
    -----------------------------------------------------------------
      1. B(C   1,C   0)                  1.3286         0.782942   
      2. B(H   2,C   0)                  1.0814         0.371670   
      3. B(H   3,C   0)                  1.0840         0.368113   
      4. B(O   4,C   1)                  1.2163         1.059130   
      5. B(H   5,C   1)                  1.1001         0.346955   
      6. A(H   2,C   0,H   3)          119.0243         0.293305   
      7. A(C   1,C   0,H   2)          120.0941         0.369220   
      8. A(C   1,C   0,H   3)          120.8817         0.368611   
      9. A(O   4,C   1,H   5)          127.2460         0.381986   
     10. A(C   0,C   1,H   5)          120.7091         0.364890   
     11. A(C   0,C   1,O   4)          112.0449         0.496274   
     12. D(O   4,C   1,C   0,H   3)      0.1867         0.044095   
     13. D(H   5,C   1,C   0,H   2)      0.1788         0.044095   
     14. D(H   5,C   1,C   0,H   3)   -179.8286         0.044095   
     15. D(O   4,C   1,C   0,H   2)   -179.8058         0.044095   
    -----------------------------------------------------------------

Number of atoms                         .... 6
Number of degrees of freedom            .... 15

         *************************************************************
         *                GEOMETRY OPTIMIZATION CYCLE   1            *
         *************************************************************
---------------------------------
CARTESIAN COORDINATES (ANGSTROEM)
---------------------------------
  C     -6.315833   -4.191771    0.860061
  C     -7.397422   -4.641526    1.486967
  H     -6.147333   -4.442538   -0.178270
  H     -5.591560   -3.571455    1.375534
  O     -7.442128   -4.269594    2.644177
  H     -8.129217   -5.273200    0.961864

----------------------------
CARTESIAN COORDINATES (A.U.)
----------------------------
  NO LB      ZA    FRAG     MASS         X           Y           Z
   0 C     6.0000    0    12.011  -11.935195   -7.921299    1.625280
   1 C     6.0000    0    12.011  -13.979102   -8.771213    2.809960
   2 H     1.0000    0     1.008  -11.616776   -8.395180   -0.336881
   3 H     1.0000    0     1.008  -10.566517   -6.749072    2.599383
   4 O     8.0000    0    15.999  -14.063584   -8.068363    4.996770
   5 H     1.0000    0     1.008  -15.361994   -9.964904    1.817660

--------------------------------
INTERNAL COORDINATES (ANGSTROEM)
--------------------------------
 C      0   0   0     0.000000000000     0.00000000     0.00000000
 C      1   0   0     1.328580241379     0.00000000     0.00000000
 H      1   2   0     1.081391512751   120.09408935     0.00000000
 H      1   2   3     1.084009101490   120.88165370   179.99252536
 O      2   1   3     1.216333434203   112.04490700   180.19420810
 H      2   1   3     1.100122322703   120.70910992     0.17883003

---------------------------
INTERNAL COORDINATES (A.U.)
---------------------------
 C      0   0   0     0.000000000000     0.00000000     0.00000000
 C      1   0   0     2.510652803145     0.00000000     0.00000000
 H      1   2   0     2.043533802646   120.09408935     0.00000000
 H      1   2   3     2.048480328495   120.88165370   179.99252536
 O      2   1   3     2.298537078176   112.04490700   180.19420810
 H      2   1   3     2.078929903722   120.70910992     0.17883003

---------------------
BASIS SET INFORMATION
---------------------
There are 3 groups of distinct atoms

 Group   1 Type C   : 11s6p2d1f contracted to 5s3p2d1f pattern {62111/411/11/1}
 Group   2 Type H   : 5s1p contracted to 3s1p pattern {311/1}
 Group   3 Type O   : 11s6p2d1f contracted to 5s3p2d1f pattern {62111/411/11/1}

Atom   0C    basis set group =>   1
Atom   1C    basis set group =>   1
Atom   2H    basis set group =>   2
Atom   3H    basis set group =>   2
Atom   4O    basis set group =>   3
Atom   5H    basis set group =>   2
---------------------------------
AUXILIARY/J BASIS SET INFORMATION
---------------------------------
There are 3 groups of distinct atoms

 Group   1 Type C   : 12s5p4d2f1g contracted to 6s4p3d1f1g pattern {711111/2111/211/2/1}
 Group   2 Type H   : 5s2p1d contracted to 3s1p1d pattern {311/2/1}
 Group   3 Type O   : 12s5p4d2f1g contracted to 6s4p3d1f1g pattern {711111/2111/211/2/1}

Atom   0C    basis set group =>   1
Atom   1C    basis set group =>   1
Atom   2H    basis set group =>   2
Atom   3H    basis set group =>   2
Atom   4O    basis set group =>   3
Atom   5H    basis set group =>   2
------------------------------------------------------------------------------
                           ORCA GTO INTEGRAL CALCULATION
                           -- RI-GTO INTEGRALS CHOSEN --
------------------------------------------------------------------------------
------------------------------------------------------------------------------
                   ___                                                        
                  /   \      - P O W E R E D   B Y -                         
                 /     \                                                     
                 |  |  |   _    _      __       _____    __    __             
                 |  |  |  | |  | |    /  \     |  _  \  |  |  /  |          
                  \  \/   | |  | |   /    \    | | | |  |  | /  /          
                 / \  \   | |__| |  /  /\  \   | |_| |  |  |/  /          
                |  |  |   |  __  | /  /__\  \  |    /   |      \           
                |  |  |   | |  | | |   __   |  |    \   |  |\   \          
                \     /   | |  | | |  |  |  |  | |\  \  |  | \   \       
                 \___/    |_|  |_| |__|  |__|  |_| \__\ |__|  \__/        
                                                                              
                      - O R C A' S   B I G   F R I E N D -                    
                                      &                                       
                       - I N T E G R A L  F E E D E R -                       
                                                                              
 v1 FN, 2020, v2 2021                                                         
------------------------------------------------------------------------------


Reading SHARK input file inp.SHARKINP.tmp ... ok
----------------------
SHARK INTEGRAL PACKAGE
----------------------

Number of atoms                             ...      6
Number of basis functions                   ...    111
Number of shells                            ...     45
Maximum angular momentum                    ...      3
Integral batch strategy                     ... SHARK/LIBINT Hybrid
RI-J (if used) integral strategy            ... SPLIT-RIJ (Revised 2003 algorithm where possible)
Printlevel                                  ...      1
Contraction scheme used                     ... SEGMENTED contraction
Coulomb Range Separation                    ... NOT USED
Exchange Range Separation                   ... NOT USED
Finite Nucleus Model                        ... NOT USED
Auxiliary Coulomb fitting basis             ... AVAILABLE
   # of basis functions in Aux-J            ...    180
   # of shells in Aux-J                     ...     60
   Maximum angular momentum in Aux-J        ...      4
Auxiliary J/K fitting basis                 ... NOT available
Auxiliary Correlation fitting basis         ... NOT available
Auxiliary 'external' fitting basis          ... NOT available
Integral threshold                          ...     2.500000e-11
Primitive cut-off                           ...     2.500000e-12
Primitive pair pre-selection threshold      ...     2.500000e-12

Calculating pre-screening integrals         ... done (  0.0 sec) Dimension = 45
Organizing shell pair data                  ... done (  0.2 sec)
Shell pair information
Total number of shell pairs                 ...      1035
Shell pairs after pre-screening             ...      1026
Total number of primitive shell pairs       ...      3156
Primitive shell pairs kept                  ...      2696
          la=0 lb=0:    292 shell pairs
          la=1 lb=0:    288 shell pairs
          la=1 lb=1:     78 shell pairs
          la=2 lb=0:    143 shell pairs
          la=2 lb=1:     72 shell pairs
          la=2 lb=2:     21 shell pairs
          la=3 lb=0:     72 shell pairs
          la=3 lb=1:     36 shell pairs
          la=3 lb=2:     18 shell pairs
          la=3 lb=3:      6 shell pairs

Calculating one electron integrals          ... done (  0.0 sec)
Calculating RI/J V-Matrix + Cholesky decomp.... done (  0.4 sec)
Calculating Nuclear repulsion               ... done (  0.0 sec) ENN=     66.408850835617 Eh

SHARK setup successfully completed in   1.3 seconds

Maximum memory used throughout the entire GTOINT-calculation: 18.2 MB
-------------------------------------------------------------------------------
                                 ORCA SCF
-------------------------------------------------------------------------------

------------
SCF SETTINGS
------------
Hamiltonian:
 Density Functional     Method          .... DFT(GTOs)
 Exchange Functional    Exchange        .... PBE
   PBE kappa parameter   XKappa         ....  0.804000
   PBE mue parameter    XMuePBE         ....  0.219520
 Correlation Functional Correlation     .... PBE
   PBE beta parameter  CBetaPBE         ....  0.066725
 LDA part of GGA corr.  LDAOpt          .... PW91-LDA
 Gradients option       PostSCFGGA      .... off
   Density functional embedding theory  .... OFF
   NL short-range parameter             ....  6.400000
 RI-approximation to the Coulomb term is turned on
   Number of AuxJ basis functions       .... 180


General Settings:
 Integral files         IntName         .... inp
 Hartree-Fock type      HFTyp           .... RHF
 Total Charge           Charge          ....   -1
 Multiplicity           Mult            ....    1
 Number of Electrons    NEL             ....   24
 Basis Dimension        Dim             ....  111
 Nuclear Repulsion      ENuc            ....     66.4088508356 Eh

Convergence Acceleration:
 DIIS                   CNVDIIS         .... on
   Start iteration      DIISMaxIt       ....    12
   Startup error        DIISStart       ....  0.200000
   # of expansion vecs  DIISMaxEq       ....     5
   Bias factor          DIISBfac        ....   1.050
   Max. coefficient     DIISMaxC        ....  10.000
 Trust-Rad. Augm. Hess. CNVTRAH         .... auto
   Auto Start mean grad. ratio tolernc. ....  1.125000
   Auto Start start iteration           ....    20
   Auto Start num. interpolation iter.  ....    10
   Max. Number of Micro iterations      ....    16
   Max. Number of Macro iterations      .... Maxiter - #DIIS iter
   Number of Davidson start vectors     ....     2
   Converg. threshold I  (grad. norm)   ....   1.000e-05
   Converg. threshold II (energy diff.) ....   1.000e-08
   Grad. Scal. Fac. for Micro threshold ....   0.100
   Minimum threshold for Micro iter.    ....   0.010
   NR start threshold (gradient norm)   ....   0.001
   Initial trust radius                 ....   0.400
   Minimum AH scaling param. (alpha)    ....   1.000
   Maximum AH scaling param. (alpha)    .... 1000.000
   Orbital update algorithm             .... Taylor
   White noise on init. David. guess    .... on
   Maximum white noise                  ....   0.010
   Quad. conv. algorithm                .... NR
 SOSCF                  CNVSOSCF        .... on
   Start iteration      SOSCFMaxIt      ....   150
   Startup grad/error   SOSCFStart      ....  0.003300
 Level Shifting         CNVShift        .... on
   Level shift para.    LevelShift      ....    0.2500
   Turn off err/grad.   ShiftErr        ....    0.0010
 Zerner damping         CNVZerner       .... off
 Static damping         CNVDamp         .... on
   Fraction old density DampFac         ....    0.7000
   Max. Damping (<1)    DampMax         ....    0.9800
   Min. Damping (>=0)   DampMin         ....    0.0000
   Turn off err/grad.   DampErr         ....    0.1000
 Fernandez-Rico         CNVRico         .... off

SCF Procedure:
 Maximum # iterations   MaxIter         ....   125
 SCF integral mode      SCFMode         .... Direct
   Integral package                     .... SHARK and LIBINT hybrid scheme
 Reset frequency        DirectResetFreq ....    20
 Integral Threshold     Thresh          ....  2.500e-11 Eh
 Primitive CutOff       TCut            ....  2.500e-12 Eh

Convergence Tolerance:
 Convergence Check Mode ConvCheckMode   .... Total+1el-Energy
 Convergence forced     ConvForced      .... 0
 Energy Change          TolE            ....  1.000e-08 Eh
 1-El. energy change                    ....  1.000e-05 Eh
 Orbital Gradient       TolG            ....  1.000e-05
 Orbital Rotation angle TolX            ....  1.000e-05
 DIIS Error             TolErr          ....  5.000e-07


Diagonalization of the overlap matrix:
Smallest eigenvalue                        ... 1.993e-04
Time for diagonalization                   ...    0.002 sec
Threshold for overlap eigenvalues          ... 1.000e-08
Number of eigenvalues below threshold      ... 0
Time for construction of square roots      ...    0.071 sec
Total time needed                          ...    0.073 sec

Time for model grid setup =    0.256 sec

------------------------------
INITIAL GUESS: MODEL POTENTIAL
------------------------------
Loading Hartree-Fock densities                     ... done
Calculating cut-offs                               ... done
Initializing the effective Hamiltonian             ... done
Setting up the integral package (SHARK)            ... done
Starting the Coulomb interaction                   ... done (   0.1 sec)
Reading the grid                                   ... done
Mapping shells                                     ... done
Starting the XC term evaluation                    ... done (   0.1 sec)
  promolecular density results
     # of electrons  =     22.998862657
     EX              =    -19.231051707
     EC              =     -0.742642018
     EX+EC           =    -19.973693725
Transforming the Hamiltonian                       ... done (   0.0 sec)
Diagonalizing the Hamiltonian                      ... done (   0.0 sec)
Back transforming the eigenvectors                 ... done (   0.0 sec)
Now organizing SCF variables                       ... done
                      ------------------
                      INITIAL GUESS DONE (   0.4 sec)
                      ------------------
-------------------
DFT GRID GENERATION
-------------------

General Integration Accuracy     IntAcc      ... 4.388
Radial Grid Type                 RadialGrid  ... OptM3 with GC (2021)
Angular Grid (max. ang.)         AngularGrid ... 4 (Lebedev-302)
Angular grid pruning method      GridPruning ... 4 (adaptive)
Weight generation scheme         WeightScheme... Becke
Basis function cutoff            BFCut       ... 1.0000e-11
Integration weight cutoff        WCut        ... 1.0000e-14
Angular grids for H and He will be reduced by one unit
Partially contracted basis set               ... off
Rotationally invariant grid construction     ... off

Total number of grid points                  ...    28150
Total number of batches                      ...      444
Average number of points per batch           ...       63
Average number of grid points per atom       ...     4692
Time for grid setup =    0.364 sec


--------------------
CPCM SOLVATION MODEL
--------------------
CPCM parameters:
  Epsilon                                         ...      80.4000
  Refrac                                          ...       1.3300
  Rsolv                                           ...       1.3000
  Surface type                                    ... GAUSSIAN VDW
  Epsilon function type                           ...         CPCM
Radii:
 Radius for C  used is    3.8550 Bohr (=   2.0400 Ang.)
 Radius for H  used is    2.4944 Bohr (=   1.3200 Ang.)
 Radius for O  used is    3.4469 Bohr (=   1.8240 Ang.)
Calculating surface                               ...        done! (  0.0s)
GEPOL surface points                              ...          404
GEPOL Volume                                      ...     431.8786
GEPOL Surface-area                                ...     292.8911
Calculating surface distance matrix               ...        done! (  0.0s)
Performing Cholesky decomposition & store         ...        done! (  0.1s)
Overall time for CPCM initialization              ...                 0.1s
--------------
SCF ITERATIONS
--------------
ITER       Energy         Delta-E        Max-DP      RMS-DP      [F,P]     Damp
               ***  Starting incremental Fock matrix formation  ***
  0   -152.9367765506   0.000000000000 0.30682976  0.00648326  0.3446964 0.7000
  1   -153.0653588349  -0.128582284326 0.23826858  0.00488305  0.1148200 0.7000
                               ***Turning on DIIS***
  2   -153.1018662168  -0.036507381822 0.13242722  0.00465514  0.0333284 0.0000
  3   -153.1676244950  -0.065758278248 0.23475720  0.00433278  0.0821676 0.0000
  4   -153.1836589010  -0.016034405993 0.05497329  0.00118940  0.0284662 0.0000
  5   -153.1859883676  -0.002329466545 0.02049675  0.00049756  0.0049099 0.0000
                      *** Initiating the SOSCF procedure ***
                           *** Shutting down DIIS ***
                      *** Re-Reading the Fockian *** 
                      *** Removing any level shift *** 
ITER      Energy       Delta-E        Grad      Rot      Max-DP    RMS-DP
  6   -153.18610195  -0.0001135817  0.000677  0.000677  0.007467  0.000198
               *** Restarting incremental Fock matrix formation ***
  7   -153.18611358  -0.0000116269  0.000284  0.001258  0.004372  0.000137
  8   -153.18611475  -0.0000011699  0.000333  0.000977  0.004513  0.000107
  9   -153.18611459   0.0000001544  0.000266  0.000835  0.003599  0.000092
 10   -153.18611570  -0.0000011083  0.000033  0.000087  0.000180  0.000005
 11   -153.18611569   0.0000000116  0.000053  0.000067  0.000292  0.000007
 12   -153.18611573  -0.0000000404  0.000007  0.000014  0.000025  0.000001
 13   -153.18611573  -0.0000000007  0.000006  0.000007  0.000042  0.000001
                  ***Gradient check signals convergence***
              ***Rediagonalizing the Fockian in SOSCF/NRSCF***

               *****************************************************
               *                     SUCCESS                       *
               *           SCF CONVERGED AFTER  14 CYCLES          *
               *****************************************************


----------------
TOTAL SCF ENERGY
----------------

Total Energy       :         -153.18611573 Eh           -4168.40613 eV

Components:
Nuclear Repulsion  :           66.40885084 Eh            1807.07670 eV
Electronic Energy  :         -219.59496657 Eh           -5975.48283 eV
One Electron Energy:         -345.60757346 Eh           -9404.46019 eV
Two Electron Energy:          126.01260689 Eh            3428.97736 eV
CPCM Dielectric    :           -0.10676577 Eh              -2.90524 eV

Virial components:
Potential Energy   :         -306.22950854 Eh           -8332.92857 eV
Kinetic Energy     :          153.04339281 Eh            4164.52244 eV
Virial Ratio       :            2.00093257


DFT components:
N(Alpha)           :       12.000021614897 electrons
N(Beta)            :       12.000021614897 electrons
N(Total)           :       24.000043229794 electrons
E(X)               :      -19.890863665318 Eh       
E(C)               :       -0.782144217335 Eh       
E(XC)              :      -20.673007882652 Eh       
DFET-embed. en.    :        0.000000000000 Eh       
CPCM Solvation Model Properties:
Surface-charge          :            0.96666054
Charge-correction       :           -0.00629301 Eh              -0.17124 eV
Free-energy (cav+disp)  :  This term is not implemented in the current solvation scheme

---------------
SCF CONVERGENCE
---------------

  Last Energy change         ...   -3.2884e-11  Tolerance :   1.0000e-08
  Last MAX-Density change    ...    1.1102e-05  Tolerance :   1.0000e-07
  Last RMS-Density change    ...    3.9889e-07  Tolerance :   5.0000e-09
  Last Orbital Gradient      ...    1.8687e-06  Tolerance :   1.0000e-05
  Last Orbital Rotation      ...    3.3758e-06  Tolerance :   1.0000e-05

             **** THE GBW FILE WAS UPDATED (inp.gbw) ****
             **** DENSITY inp.scfp WAS UPDATED ****
             **** ENERGY FILE WAS UPDATED (inp.en.tmp) ****
             **** THE GBW FILE WAS UPDATED (inp.gbw) ****
             **** DENSITY inp.scfp WAS UPDATED ****
----------------
ORBITAL ENERGIES
----------------

  NO   OCC          E(Eh)            E(eV) 
   0   2.0000     -18.642263      -507.2818 
   1   2.0000      -9.868153      -268.5261 
   2   2.0000      -9.792402      -266.4648 
   3   2.0000      -0.882407       -24.0115 
   4   2.0000      -0.598605       -16.2889 
   5   2.0000      -0.456742       -12.4286 
   6   2.0000      -0.371719       -10.1150 
   7   2.0000      -0.323560        -8.8045 
   8   2.0000      -0.294670        -8.0184 
   9   2.0000      -0.287750        -7.8301 
  10   2.0000      -0.145723        -3.9653 
  11   2.0000      -0.121036        -3.2936 
  12   0.0000       0.047606         1.2954 
  13   0.0000       0.079557         2.1649 
  14   0.0000       0.087474         2.3803 
  15   0.0000       0.117903         3.2083 
  16   0.0000       0.132788         3.6133 
  17   0.0000       0.190276         5.1777 
  18   0.0000       0.200636         5.4596 
  19   0.0000       0.203512         5.5379 
  20   0.0000       0.288568         7.8523 
  21   0.0000       0.288921         7.8619 
  22   0.0000       0.311208         8.4684 
  23   0.0000       0.374233        10.1834 
  24   0.0000       0.409520        11.1436 
  25   0.0000       0.435453        11.8493 
  26   0.0000       0.459083        12.4923 
  27   0.0000       0.480403        13.0724 
  28   0.0000       0.501377        13.6432 
  29   0.0000       0.544863        14.8265 
  30   0.0000       0.603593        16.4246 
  31   0.0000       0.621700        16.9173 
  32   0.0000       0.660519        17.9736 
  33   0.0000       0.708230        19.2719 
  34   0.0000       0.746137        20.3034 
  35   0.0000       0.880253        23.9529 
  36   0.0000       0.883968        24.0540 
  37   0.0000       0.920173        25.0392 
  38   0.0000       0.970839        26.4179 
  39   0.0000       1.081179        29.4204 
  40   0.0000       1.107801        30.1448 
  41   0.0000       1.194809        32.5124 
  42   0.0000       1.223930        33.3048 
  43   0.0000       1.336751        36.3748 
  44   0.0000       1.382242        37.6127 
  45   0.0000       1.477253        40.1981 
  46   0.0000       1.488718        40.5101 
  47   0.0000       1.507522        41.0218 
  48   0.0000       1.563348        42.5409 
  49   0.0000       1.610876        43.8342 
  50   0.0000       1.613782        43.9132 
  51   0.0000       1.716528        46.7091 
  52   0.0000       1.782848        48.5138 
  53   0.0000       1.820398        49.5356 
  54   0.0000       1.862165        50.6721 
  55   0.0000       1.875350        51.0309 
  56   0.0000       1.973673        53.7064 
  57   0.0000       2.054316        55.9008 
  58   0.0000       2.162061        58.8327 
  59   0.0000       2.202247        59.9262 
  60   0.0000       2.274520        61.8928 
  61   0.0000       2.311335        62.8946 
  62   0.0000       2.344108        63.7864 
  63   0.0000       2.495395        67.9031 
  64   0.0000       2.496893        67.9439 
  65   0.0000       2.576806        70.1185 
  66   0.0000       2.619209        71.2723 
  67   0.0000       2.651303        72.1456 
  68   0.0000       2.743084        74.6431 
  69   0.0000       2.747487        74.7629 
  70   0.0000       2.782490        75.7154 
  71   0.0000       2.804799        76.3225 
  72   0.0000       2.934792        79.8598 
  73   0.0000       2.975519        80.9680 
  74   0.0000       3.027794        82.3905 
  75   0.0000       3.035981        82.6132 
  76   0.0000       3.060718        83.2864 
  77   0.0000       3.094955        84.2180 
  78   0.0000       3.192517        86.8728 
  79   0.0000       3.204089        87.1877 
  80   0.0000       3.280580        89.2691 
  81   0.0000       3.313380        90.1617 
  82   0.0000       3.361224        91.4635 
  83   0.0000       3.465640        94.3049 
  84   0.0000       3.551470        96.6404 
  85   0.0000       3.567012        97.0633 
  86   0.0000       3.665919        99.7547 
  87   0.0000       3.821200       103.9801 
  88   0.0000       4.005387       108.9921 
  89   0.0000       4.048624       110.1687 
  90   0.0000       4.204471       114.4095 
  91   0.0000       4.281357       116.5016 
  92   0.0000       4.401853       119.7805 
  93   0.0000       4.539885       123.5365 
  94   0.0000       4.565765       124.2408 
  95   0.0000       4.819130       131.1352 
  96   0.0000       5.142281       139.9286 
  97   0.0000       5.187931       141.1708 
  98   0.0000       5.517311       150.1337 
  99   0.0000       5.672710       154.3623 
 100   0.0000       6.014030       163.6501 
 101   0.0000       6.278936       170.8585 
 102   0.0000       6.287063       171.0797 
 103   0.0000       6.361602       173.1080 
 104   0.0000       6.375248       173.4793 
 105   0.0000       6.729544       183.1202 
 106   0.0000       6.909504       188.0172 
 107   0.0000       6.975139       189.8032 
 108   0.0000      21.967182       597.7574 
 109   0.0000      22.778726       619.8407 
 110   0.0000      43.458015      1182.5527 

                    ********************************
                    * MULLIKEN POPULATION ANALYSIS *
                    ********************************

-----------------------
MULLIKEN ATOMIC CHARGES
-----------------------
   0 C :   -0.577631
   1 C :    0.025180
   2 H :    0.038174
   3 H :    0.067522
   4 O :   -0.549669
   5 H :   -0.003575
Sum of atomic charges:   -1.0000000

--------------------------------
MULLIKEN REDUCED ORBITAL CHARGES
--------------------------------
  0 C s       :     3.216344  s :     3.216344
      pz      :     0.991952  p :     3.312890
      px      :     1.069847
      py      :     1.251092
      dz2     :     0.016544  d :     0.043306
      dxz     :     0.006065
      dyz     :     0.006226
      dx2y2   :     0.004576
      dxy     :     0.009895
      f0      :     0.000571  f :     0.005091
      f+1     :     0.001198
      f-1     :     0.000446
      f+2     :     0.000374
      f-2     :     0.000893
      f+3     :     0.001022
      f-3     :     0.000587
  1 C s       :     3.142008  s :     3.142008
      pz      :     0.825564  p :     2.683291
      px      :     0.946107
      py      :     0.911619
      dz2     :     0.040602  d :     0.134786
      dxz     :     0.030289
      dyz     :     0.039582
      dx2y2   :     0.003949
      dxy     :     0.020364
      f0      :     0.003176  f :     0.014735
      f+1     :     0.004584
      f-1     :     0.002820
      f+2     :     0.001363
      f-2     :     0.001189
      f+3     :     0.001204
      f-3     :     0.000398
  2 H s       :     0.938435  s :     0.938435
      pz      :     0.010948  p :     0.023391
      px      :     0.005164
      py      :     0.007280
  3 H s       :     0.909518  s :     0.909518
      pz      :     0.005876  p :     0.022960
      px      :     0.007999
      py      :     0.009085
  4 O s       :     3.735954  s :     3.735954
      pz      :     1.428971  p :     4.784067
      px      :     1.745358
      py      :     1.609737
      dz2     :     0.009597  d :     0.027918
      dxz     :     0.007621
      dyz     :     0.008682
      dx2y2   :     0.000998
      dxy     :     0.001020
      f0      :     0.000548  f :     0.001731
      f+1     :     0.000457
      f-1     :     0.000451
      f+2     :     0.000129
      f-2     :     0.000128
      f+3     :     0.000009
      f-3     :     0.000009
  5 H s       :     0.984170  s :     0.984170
      pz      :     0.005313  p :     0.019405
      px      :     0.007370
      py      :     0.006722


                     *******************************
                     * LOEWDIN POPULATION ANALYSIS *
                     *******************************

----------------------
LOEWDIN ATOMIC CHARGES
----------------------
   0 C :   -0.523562
   1 C :   -0.604889
   2 H :    0.081005
   3 H :    0.093039
   4 O :   -0.127995
   5 H :    0.082401

-------------------------------
LOEWDIN REDUCED ORBITAL CHARGES
-------------------------------
  0 C s       :     2.869980  s :     2.869980
      pz      :     1.041418  p :     3.368778
      px      :     1.136779
      py      :     1.190580
      dz2     :     0.086354  d :     0.254534
      dxz     :     0.065720
      dyz     :     0.026257
      dx2y2   :     0.026983
      dxy     :     0.049220
      f0      :     0.003102  f :     0.030270
      f+1     :     0.007161
      f-1     :     0.002730
      f+2     :     0.004212
      f-2     :     0.004959
      f+3     :     0.003436
      f-3     :     0.004670
  1 C s       :     2.808354  s :     2.808354
      pz      :     0.991231  p :     2.932870
      px      :     1.027088
      py      :     0.914551
      dz2     :     0.189975  d :     0.747879
      dxz     :     0.231981
      dyz     :     0.203774
      dx2y2   :     0.040503
      dxy     :     0.081646
      f0      :     0.023811  f :     0.115786
      f+1     :     0.035554
      f-1     :     0.023059
      f+2     :     0.012099
      f-2     :     0.008551
      f+3     :     0.006240
      f-3     :     0.006471
  2 H s       :     0.851365  s :     0.851365
      pz      :     0.031528  p :     0.067630
      px      :     0.015180
      py      :     0.020921
  3 H s       :     0.841522  s :     0.841522
      pz      :     0.018195  p :     0.065438
      px      :     0.022031
      py      :     0.025213
  4 O s       :     3.387792  s :     3.387792
      pz      :     1.513378  p :     4.654748
      px      :     1.611371
      py      :     1.529999
      dz2     :     0.026592  d :     0.078538
      dxz     :     0.024776
      dyz     :     0.022429
      dx2y2   :     0.002029
      dxy     :     0.002712
      f0      :     0.002102  f :     0.006917
      f+1     :     0.001916
      f-1     :     0.001917
      f+2     :     0.000449
      f-2     :     0.000497
      f+3     :     0.000017
      f-3     :     0.000019
  5 H s       :     0.861707  s :     0.861707
      pz      :     0.015634  p :     0.055892
      px      :     0.021074
      py      :     0.019184


                      *****************************
                      * MAYER POPULATION ANALYSIS *
                      *****************************

  NA   - Mulliken gross atomic population
  ZA   - Total nuclear charge
  QA   - Mulliken gross atomic charge
  VA   - Mayer's total valence
  BVA  - Mayer's bonded valence
  FA   - Mayer's free valence

  ATOM       NA         ZA         QA         VA         BVA        FA
  0 C      6.5776     6.0000    -0.5776     3.4566     3.4566     0.0000
  1 C      5.9748     6.0000     0.0252     4.3129     4.3129     0.0000
  2 H      0.9618     1.0000     0.0382     0.9875     0.9875    -0.0000
  3 H      0.9325     1.0000     0.0675     1.0174     1.0174     0.0000
  4 O      8.5497     8.0000    -0.5497     1.8828     1.8828     0.0000
  5 H      1.0036     1.0000    -0.0036     0.9562     0.9562     0.0000

  Mayer bond orders larger than 0.100000
B(  0-C ,  1-C ) :   1.6141 B(  0-C ,  2-H ) :   0.9321 B(  0-C ,  3-H ) :   0.9722 
B(  1-C ,  4-O ) :   1.7576 B(  1-C ,  5-H ) :   0.9263 

-------
TIMINGS
-------

Total SCF time: 0 days 0 hours 0 min 19 sec 

Total time                  ....      19.357 sec
Sum of individual times     ....      15.554 sec  ( 80.4%)

Fock matrix formation       ....      13.774 sec  ( 71.2%)
  Split-RI-J                ....       0.882 sec  (  6.4% of F)
  XC integration            ....       7.202 sec  ( 52.3% of F)
    Basis function eval.    ....       1.285 sec  ( 17.8% of XC)
    Density eval.           ....       0.771 sec  ( 10.7% of XC)
    XC-Functional eval.     ....       0.369 sec  (  5.1% of XC)
    XC-Potential eval.      ....       1.036 sec  ( 14.4% of XC)
Diagonalization             ....       0.015 sec  (  0.1%)
Density matrix formation    ....       0.001 sec  (  0.0%)
Population analysis         ....       0.201 sec  (  1.0%)
Initial guess               ....       0.160 sec  (  0.8%)
Orbital Transformation      ....       0.000 sec  (  0.0%)
Orbital Orthonormalization  ....       0.000 sec  (  0.0%)
DIIS solution               ....       0.440 sec  (  2.3%)
SOSCF solution              ....       0.341 sec  (  1.8%)
Grid generation             ....       0.620 sec  (  3.2%)

Maximum memory used throughout the entire SCF-calculation: 27.1 MB


-------------------------------------------------------------------------------
                          DFT DISPERSION CORRECTION                            
                                                                               
                              DFTD3 V3.1  Rev 1                                
                          USING Becke-Johnson damping                          
-------------------------------------------------------------------------------
The PBE functional is recognized
Active option DFTDOPT                   ...         4   

molecular C6(AA) [au] = 356.182669 


            DFT-D V3
 parameters
 s6 scaling factor         :     1.0000 
 a1 scaling factor         :     0.4289 
 s8 scaling factor         :     0.7875 
 a2 scaling factor         :     4.4407 
 ad hoc parameters k1-k3   :    16.0000     1.3333    -4.0000 

 Edisp/kcal,au: -1.728031189117  -0.002753792694 
 E6   /kcal   :  -1.235776326 
 E8   /kcal   :  -0.492254863 
 % E8         :  28.486457082 

-------------------------   ----------------
Dispersion correction           -0.002753793
-------------------------   ----------------


-------------------------   --------------------
FINAL SINGLE POINT ENERGY      -153.188869522191
-------------------------   --------------------

------------------------------------------------------------------------------
                         ORCA SCF GRADIENT CALCULATION
------------------------------------------------------------------------------

Gradient of the Kohn-Sham DFT energy:
Kohn-Sham wavefunction type      ... RKS
Hartree-Fock exchange scaling    ...    0.000
Number of operators              ...    1
Number of atoms                  ...    6
Basis set dimensions             ...  111
Integral neglect threshold       ... 2.5e-11
Integral primitive cutoff        ... 2.5e-12
SHARK Integral package           ... ON

Nuc. rep. gradient       (SHARK) ... done (  0.0 sec)
HCore & Overlap gradient (SHARK) ... done (  0.0 sec)
RI-J gradient            (SHARK) ... done (  0.3 sec)
Exchange-correlation gradient    ... done
Dispersion correction            ... done

------------------
CARTESIAN GRADIENT
------------------

   1   C   :   -0.039985621    0.000578954    0.073227722
   2   C   :   -0.019835326   -0.000275421    0.035105330
   3   H   :   -0.006927901    0.000512475    0.013460273
   4   H   :   -0.002697146   -0.002436565   -0.001967023
   5   O   :    0.057046081   -0.006818245   -0.122312207
   6   H   :    0.012399913    0.008438801    0.002485905

Difference to translation invariance:
           :   -0.0000000000   -0.0000000000    0.0000000000

Difference to rotation invariance:
           :   -0.0005438333    0.0005326323   -0.0002646504

Norm of the cartesian gradient     ...    0.1653059988
RMS gradient                       ...    0.0389629976
MAX gradient                       ...    0.1223122069

-------
TIMINGS
-------

Total SCF gradient time            ...        2.121 sec

One electron gradient       ....       0.035 sec  (  1.6%)
RI-J Coulomb gradient       ....       0.301 sec  ( 14.2%)
XC gradient                 ....       1.183 sec  ( 55.8%)
CPCM gradient               ....       0.106 sec  (  5.0%)
   A-Matrix (El+Nuc)        ....       0.009 sec  (  0.4%)
   Potential                ....       0.097 sec  (  4.6%)

Maximum memory used throughout the entire SCFGRAD-calculation: 40.3 MB
------------------------------------------------------------------------------
                         ORCA GEOMETRY RELAXATION STEP
------------------------------------------------------------------------------

Reading the OPT-File                    .... done
Getting information on internals        .... done
Copying old internal coords+grads       .... done
Making the new internal coordinates     .... (new redundants).... done
Validating the new internal coordinates .... (new redundants).... done
Calculating the B-matrix                .... done
Calculating the G,G- and P matrices     .... done
Transforming gradient to internals      .... done
Projecting the internal gradient        .... done
Number of atoms                         ....   6
Number of internal coordinates          ....  15
Current Energy                          ....  -153.188869522 Eh
Current gradient norm                   ....     0.165305999 Eh/bohr
Maximum allowed component of the step   ....  0.300
Current trust radius                    ....  0.300
Evaluating the initial hessian          ....  (Almloef) done
Projecting the Hessian                  .... done
Forming the augmented Hessian           .... done
Diagonalizing the augmented Hessian     .... done
Last element of RFO vector              ....  0.965513858
Lowest eigenvalues of augmented Hessian:
 -0.046490432  0.044094899  0.044094904  0.044095822  0.318552427
Length of the computed step             ....  0.269650885
The final length of the internal step   ....  0.269650885
Converting the step to cartesian space:
 Initial RMS(Int)=    0.0696235592
Transforming coordinates:
 Iter   0:  RMS(Cart)=    0.0981599168 RMS(Int)=    0.0700059540
 Iter   1:  RMS(Cart)=    0.0048802467 RMS(Int)=    0.0056536462
 Iter   2:  RMS(Cart)=    0.0005836918 RMS(Int)=    0.0005883135
 Iter   3:  RMS(Cart)=    0.0000692025 RMS(Int)=    0.0000672834
 Iter   4:  RMS(Cart)=    0.0000085086 RMS(Int)=    0.0000100591
 Iter   5:  RMS(Cart)=    0.0000010281 RMS(Int)=    0.0000008385
 Iter   6:  RMS(Cart)=    0.0000001252 RMS(Int)=    0.0000001563
 Iter   7:  RMS(Cart)=    0.0000000152 RMS(Int)=    0.0000000123
done
Storing new coordinates                 .... done

                                .--------------------.
          ----------------------|Geometry convergence|-------------------------
          Item                value                   Tolerance       Converged
          ---------------------------------------------------------------------
          RMS gradient        0.0474240780            0.0001000000      NO
          MAX gradient        0.1205737372            0.0003000000      NO
          RMS step            0.0696235592            0.0020000000      NO
          MAX step            0.1788841886            0.0040000000      NO
          ........................................................
          Max(Bonds)      0.0577      Max(Angles)   10.25
          Max(Dihed)        0.15      Max(Improp)    0.00
          ---------------------------------------------------------------------

The optimization has not yet converged - more geometry cycles are needed


    ---------------------------------------------------------------------------
                         Redundant Internal Coordinates
                            (Angstroem and degrees)

        Definition                    Value    dE/dq     Step     New-Value
    ----------------------------------------------------------------------------
     1. B(C   1,C   0)                1.3286 -0.080816  0.0516    1.3801   
     2. B(H   2,C   0)                1.0814 -0.014144  0.0179    1.0993   
     3. B(H   3,C   0)                1.0840 -0.004109  0.0052    1.0893   
     4. B(O   4,C   1)                1.2163 -0.120574  0.0577    1.2740   
     5. B(H   5,C   1)                1.1001 -0.014258  0.0192    1.1193   
     6. A(H   2,C   0,H   3)          119.02  0.003706   -0.58    118.44   
     7. A(C   1,C   0,H   2)          120.09 -0.007366    1.05    121.14   
     8. A(C   1,C   0,H   3)          120.88  0.003660   -0.47    120.41   
     9. A(O   4,C   1,H   5)          127.25  0.050399   -5.77    121.48   
    10. A(C   0,C   1,H   5)          120.71  0.039432   -4.48    116.23   
    11. A(C   0,C   1,O   4)          112.04 -0.089832   10.25    122.29   
    12. D(O   4,C   1,C   0,H   3)      0.19  0.000172   -0.11      0.08   
    13. D(H   5,C   1,C   0,H   2)      0.18  0.000062   -0.04      0.14   
    14. D(H   5,C   1,C   0,H   3)   -179.83 -0.000007    0.00   -179.83   
    15. D(O   4,C   1,C   0,H   2)   -179.81  0.000241   -0.15   -179.96   
    ----------------------------------------------------------------------------

         *************************************************************
         *                GEOMETRY OPTIMIZATION CYCLE   2            *
         *************************************************************
---------------------------------
CARTESIAN COORDINATES (ANGSTROEM)
---------------------------------
  C     -6.281466   -4.181829    0.826494
  C     -7.386406   -4.619822    1.527962
  H     -6.133792   -4.452648   -0.228632
  H     -5.532686   -3.556770    1.311368
  O     -7.579751   -4.318641    2.750701
  H     -8.109392   -5.260375    0.962441

----------------------------
CARTESIAN COORDINATES (A.U.)
----------------------------
  NO LB      ZA    FRAG     MASS         X           Y           Z
   0 C     6.0000    0    12.011  -11.870250   -7.902512    1.561847
   1 C     6.0000    0    12.011  -13.958285   -8.730199    2.887429
   2 H     1.0000    0     1.008  -11.591188   -8.414285   -0.432052
   3 H     1.0000    0     1.008  -10.455260   -6.721320    2.478126
   4 O     8.0000    0    15.999  -14.323654   -8.161048    5.198072
   5 H     1.0000    0     1.008  -15.324530   -9.940668    1.818749

--------------------------------
INTERNAL COORDINATES (ANGSTROEM)
--------------------------------
 C      0   0   0     0.000000000000     0.00000000     0.00000000
 C      1   0   0     1.380140738805     0.00000000     0.00000000
 H      1   2   0     1.099290936210   121.14491501     0.00000000
 H      1   2   3     1.089253724609   120.41207824   180.03579501
 O      2   1   3     1.274042979043   122.29418261   180.04256458
 H      2   1   3     1.119298934320   116.22832798     0.13918286

---------------------------
INTERNAL COORDINATES (A.U.)
---------------------------
 C      0   0   0     0.000000000000     0.00000000     0.00000000
 C      1   0   0     2.608088022608     0.00000000     0.00000000
 H      1   2   0     2.077358810939   121.14491501     0.00000000
 H      1   2   3     2.058391229864   120.41207824   180.03579501
 O      2   1   3     2.407592313237   122.29418261   180.04256458
 H      2   1   3     2.115168447855   116.22832798     0.13918286

------------------------------------------------------------------------------
                   ___                                                        
                  /   \      - P O W E R E D   B Y -                         
                 /     \                                                     
                 |  |  |   _    _      __       _____    __    __             
                 |  |  |  | |  | |    /  \     |  _  \  |  |  /  |          
                  \  \/   | |  | |   /    \    | | | |  |  | /  /          
                 / \  \   | |__| |  /  /\  \   | |_| |  |  |/  /          
                |  |  |   |  __  | /  /__\  \  |    /   |      \           
                |  |  |   | |  | | |   __   |  |    \   |  |\   \          
                \     /   | |  | | |  |  |  |  | |\  \  |  | \   \       
                 \___/    |_|  |_| |__|  |__|  |_| \__\ |__|  \__/        
                                                                              
                      - O R C A' S   B I G   F R I E N D -                    
                                      &                                       
                       - I N T E G R A L  F E E D E R -                       
                                                                              
 v1 FN, 2020, v2 2021                                                         
------------------------------------------------------------------------------


Reading SHARK input file inp.SHARKINP.tmp ... ok
----------------------
SHARK INTEGRAL PACKAGE
----------------------

Number of atoms                             ...      6
Number of basis functions                   ...    111
Number of shells                            ...     45
Maximum angular momentum                    ...      3
Integral batch strategy                     ... SHARK/LIBINT Hybrid
RI-J (if used) integral strategy            ... SPLIT-RIJ (Revised 2003 algorithm where possible)
Printlevel                                  ...      1
Contraction scheme used                     ... SEGMENTED contraction
Coulomb Range Separation                    ... NOT USED
Exchange Range Separation                   ... NOT USED
Finite Nucleus Model                        ... NOT USED
Auxiliary Coulomb fitting basis             ... AVAILABLE
   # of basis functions in Aux-J            ...    180
   # of shells in Aux-J                     ...     60
   Maximum angular momentum in Aux-J        ...      4
Auxiliary J/K fitting basis                 ... NOT available
Auxiliary Correlation fitting basis         ... NOT available
Auxiliary 'external' fitting basis          ... NOT available
Integral threshold                          ...     2.500000e-11
Primitive cut-off                           ...     2.500000e-12
Primitive pair pre-selection threshold      ...     2.500000e-12

Calculating pre-screening integrals         ... done (  0.0 sec) Dimension = 45
Organizing shell pair data                  ... done (  0.0 sec)
Shell pair information
Total number of shell pairs                 ...      1035
Shell pairs after pre-screening             ...      1023
Total number of primitive shell pairs       ...      3156
Primitive shell pairs kept                  ...      2669
          la=0 lb=0:    291 shell pairs
          la=1 lb=0:    287 shell pairs
          la=1 lb=1:     78 shell pairs
          la=2 lb=0:    142 shell pairs
          la=2 lb=1:     72 shell pairs
          la=2 lb=2:     21 shell pairs
          la=3 lb=0:     72 shell pairs
          la=3 lb=1:     36 shell pairs
          la=3 lb=2:     18 shell pairs
          la=3 lb=3:      6 shell pairs

Calculating one electron integrals          ... done (  0.0 sec)
Calculating RI/J V-Matrix + Cholesky decomp.... done (  0.0 sec)
Calculating Nuclear repulsion               ... done (  0.0 sec) ENN=     63.332183095665 Eh

SHARK setup successfully completed in   0.5 seconds

Maximum memory used throughout the entire GTOINT-calculation: 18.1 MB

Diagonalization of the overlap matrix:
Smallest eigenvalue                        ... 2.730e-04
Time for diagonalization                   ...    0.002 sec
Threshold for overlap eigenvalues          ... 1.000e-08
Number of eigenvalues below threshold      ... 0
Time for construction of square roots      ...    0.119 sec
Total time needed                          ...    0.121 sec

-------------------
DFT GRID GENERATION
-------------------

General Integration Accuracy     IntAcc      ... 4.388
Radial Grid Type                 RadialGrid  ... OptM3 with GC (2021)
Angular Grid (max. ang.)         AngularGrid ... 4 (Lebedev-302)
Angular grid pruning method      GridPruning ... 4 (adaptive)
Weight generation scheme         WeightScheme... Becke
Basis function cutoff            BFCut       ... 1.0000e-11
Integration weight cutoff        WCut        ... 1.0000e-14
Angular grids for H and He will be reduced by one unit
Partially contracted basis set               ... off
Rotationally invariant grid construction     ... off

Total number of grid points                  ...    28168
Total number of batches                      ...      443
Average number of points per batch           ...       63
Average number of grid points per atom       ...     4695
Time for grid setup =    0.413 sec


--------------------
CPCM SOLVATION MODEL
--------------------
CPCM parameters:
  Epsilon                                         ...      80.4000
  Refrac                                          ...       1.3300
  Rsolv                                           ...       1.3000
  Surface type                                    ... GAUSSIAN VDW
  Epsilon function type                           ...         CPCM
Radii:
 Radius for C  used is    3.8550 Bohr (=   2.0400 Ang.)
 Radius for H  used is    2.4944 Bohr (=   1.3200 Ang.)
 Radius for O  used is    3.4469 Bohr (=   1.8240 Ang.)
Calculating surface                               ...        done! (  0.0s)
GEPOL surface points                              ...          413
GEPOL Volume                                      ...     442.6201
GEPOL Surface-area                                ...     299.9088
Calculating surface distance matrix               ...        done! (  0.0s)
Performing Cholesky decomposition & store         ...        done! (  0.1s)
Overall time for CPCM initialization              ...                 0.1s
--------------
SCF ITERATIONS
--------------
ITER       Energy         Delta-E        Max-DP      RMS-DP      [F,P]     Damp
               ***  Starting incremental Fock matrix formation  ***
  0   -153.2008977161   0.000000000000 0.00775095  0.00046625  0.0406761 0.7000
  1   -153.2044686763  -0.003570960197 0.00932217  0.00048060  0.0288200 0.7000
                               ***Turning on DIIS***
  2   -153.2071129041  -0.002644227722 0.02976211  0.00137417  0.0202009 0.0000
                      *** Initiating the SOSCF procedure ***
                           *** Shutting down DIIS ***
                      *** Re-Reading the Fockian *** 
                      *** Removing any level shift *** 
ITER      Energy       Delta-E        Grad      Rot      Max-DP    RMS-DP
  3   -153.21326823  -0.0061553279  0.000968  0.000968  0.003881  0.000172
               *** Restarting incremental Fock matrix formation ***
  4   -153.21329144  -0.0000232086  0.000603  0.001904  0.003570  0.000153
  5   -153.21327792   0.0000135190  0.001666  0.001792  0.002147  0.000060
  6   -153.21329962  -0.0000216953  0.000336  0.001637  0.003683  0.000084
  7   -153.21329495   0.0000046672  0.000740  0.001246  0.002213  0.000051
  8   -153.21330089  -0.0000059360  0.000062  0.000191  0.000509  0.000012
  9   -153.21330075   0.0000001379  0.000109  0.000104  0.000340  0.000008
 10   -153.21330095  -0.0000002064  0.000005  0.000008  0.000021  0.000001
 11   -153.21330095  -0.0000000004  0.000003  0.000003  0.000008  0.000000
                 **** Energy Check signals convergence ****
              ***Rediagonalizing the Fockian in SOSCF/NRSCF***

               *****************************************************
               *                     SUCCESS                       *
               *           SCF CONVERGED AFTER  12 CYCLES          *
               *****************************************************

Total Energy       :         -153.21330096 Eh           -4169.14587 eV
  Last Energy change         ...   -4.8573e-10  Tolerance :   1.0000e-08
  Last MAX-Density change    ...    3.6950e-06  Tolerance :   1.0000e-07
             **** THE GBW FILE WAS UPDATED (inp.gbw) ****
             **** DENSITY inp.scfp WAS UPDATED ****
             **** ENERGY FILE WAS UPDATED (inp.en.tmp) ****
             **** THE GBW FILE WAS UPDATED (inp.gbw) ****
             **** DENSITY inp.scfp WAS UPDATED ****
Total SCF time: 0 days 0 hours 0 min 14 sec 

Maximum memory used throughout the entire SCF-calculation: 27.0 MB


-------------------------------------------------------------------------------
                          DFT DISPERSION CORRECTION                            
                                                                               
                              DFTD3 V3.1  Rev 1                                
                          USING Becke-Johnson damping                          
-------------------------------------------------------------------------------
-------------------------   ----------------
Dispersion correction           -0.002717917
-------------------------   ----------------


-------------------------   --------------------
FINAL SINGLE POINT ENERGY      -153.216018872182
-------------------------   --------------------

------------------------------------------------------------------------------
                         ORCA SCF GRADIENT CALCULATION
------------------------------------------------------------------------------

Gradient of the Kohn-Sham DFT energy:
Kohn-Sham wavefunction type      ... RKS
Hartree-Fock exchange scaling    ...    0.000
Number of operators              ...    1
Number of atoms                  ...    6
Basis set dimensions             ...  111
Integral neglect threshold       ... 2.5e-11
Integral primitive cutoff        ... 2.5e-12
SHARK Integral package           ... ON

Nuc. rep. gradient       (SHARK) ... done (  0.0 sec)
HCore & Overlap gradient (SHARK) ... done (  0.0 sec)
RI-J gradient            (SHARK) ... done (  0.3 sec)
Exchange-correlation gradient    ... done
Dispersion correction            ... done

------------------
CARTESIAN GRADIENT
------------------

   1   C   :    0.002038501    0.007832411    0.019677122
   2   C   :   -0.022092978   -0.012116209    0.003788313
   3   H   :   -0.000036647   -0.000919592   -0.002819842
   4   H   :   -0.001904710   -0.001664202   -0.001321479
   5   O   :    0.018905207    0.005596037   -0.017854189
   6   H   :    0.003090626    0.001271555   -0.001469925

Difference to translation invariance:
           :    0.0000000000   -0.0000000000    0.0000000000

Difference to rotation invariance:
           :   -0.0005642440    0.0002651982   -0.0003021734

Norm of the cartesian gradient     ...    0.0428918538
RMS gradient                       ...    0.0101097069
MAX gradient                       ...    0.0220929778

-------
TIMINGS
-------

Total SCF gradient time            ...        2.119 sec

One electron gradient       ....       0.035 sec  (  1.6%)
RI-J Coulomb gradient       ....       0.305 sec  ( 14.4%)
XC gradient                 ....       1.142 sec  ( 53.9%)
CPCM gradient               ....       0.106 sec  (  5.0%)
   A-Matrix (El+Nuc)        ....       0.009 sec  (  0.4%)
   Potential                ....       0.096 sec  (  4.5%)

Maximum memory used throughout the entire SCFGRAD-calculation: 40.2 MB
------------------------------------------------------------------------------
                         ORCA GEOMETRY RELAXATION STEP
------------------------------------------------------------------------------

Reading the OPT-File                    .... done
Getting information on internals        .... done
Copying old internal coords+grads       .... done
Making the new internal coordinates     .... (new redundants).... done
Validating the new internal coordinates .... (new redundants).... done
Calculating the B-matrix                .... done
Calculating the G,G- and P matrices     .... done
Transforming gradient to internals      .... done
Projecting the internal gradient        .... done
Number of atoms                         ....   6
Number of internal coordinates          ....  15
Current Energy                          ....  -153.216018872 Eh
Current gradient norm                   ....     0.042891854 Eh/bohr
Maximum allowed component of the step   ....  0.300
Current trust radius                    ....  0.300
Updating the Hessian (BFGS)             .... done
Forming the augmented Hessian           .... done
Diagonalizing the augmented Hessian     .... done
Last element of RFO vector              ....  0.995085187
Lowest eigenvalues of augmented Hessian:
 -0.003865601  0.044094900  0.044095278  0.044096127  0.318607140
Length of the computed step             ....  0.099511661
The final length of the internal step   ....  0.099511661
Converting the step to cartesian space:
 Initial RMS(Int)=    0.0256938004
Transforming coordinates:
 Iter   0:  RMS(Cart)=    0.0350484578 RMS(Int)=    0.0257505633
 Iter   1:  RMS(Cart)=    0.0008818357 RMS(Int)=    1.6222899939
 Iter   2:  RMS(Cart)=    0.0000463182 RMS(Int)=    0.0000378254
 Iter   3:  RMS(Cart)=    0.0000023462 RMS(Int)=    0.0000028375
 Iter   4:  RMS(Cart)=    0.0000001291 RMS(Int)=    0.0000001109
 Iter   5:  RMS(Cart)=    0.0000000064 RMS(Int)=    0.0000000075
done
Storing new coordinates                 .... done

                                .--------------------.
          ----------------------|Geometry convergence|-------------------------
          Item                value                   Tolerance       Converged
          ---------------------------------------------------------------------
          Energy change      -0.0271493500            0.0000050000      NO
          RMS gradient        0.0103823824            0.0001000000      NO
          MAX gradient        0.0281299317            0.0003000000      NO
          RMS step            0.0256938004            0.0020000000      NO
          MAX step            0.0765421768            0.0040000000      NO
          ........................................................
          Max(Bonds)      0.0123      Max(Angles)    4.39
          Max(Dihed)        0.20      Max(Improp)    0.00
          ---------------------------------------------------------------------

The optimization has not yet converged - more geometry cycles are needed


    ---------------------------------------------------------------------------
                         Redundant Internal Coordinates
                            (Angstroem and degrees)

        Definition                    Value    dE/dq     Step     New-Value
    ----------------------------------------------------------------------------
     1. B(C   1,C   0)                1.3801 -0.006152  0.0054    1.3855   
     2. B(H   2,C   0)                1.0993  0.002912 -0.0056    1.0937   
     3. B(H   3,C   0)                1.0893 -0.002836  0.0051    1.0943   
     4. B(O   4,C   1)                1.2740 -0.018697  0.0123    1.2863   
     5. B(H   5,C   1)                1.1193 -0.001965  0.0034    1.1227   
     6. A(H   2,C   0,H   3)          118.44  0.000275   -0.05    118.39   
     7. A(C   1,C   0,H   2)          121.14 -0.000618    0.11    121.25   
     8. A(C   1,C   0,H   3)          120.41  0.000343   -0.06    120.35   
     9. A(O   4,C   1,H   5)          121.48  0.017348   -2.77    118.70   
    10. A(C   0,C   1,H   5)          116.23  0.010782   -1.61    114.62   
    11. A(C   0,C   1,O   4)          122.29 -0.028130    4.39    126.68   
    12. D(O   4,C   1,C   0,H   3)      0.08 -0.000010    0.04      0.12   
    13. D(H   5,C   1,C   0,H   2)      0.14  0.000138   -0.20     -0.06   
    14. D(H   5,C   1,C   0,H   3)   -179.83  0.000073   -0.11   -179.94   
    15. D(O   4,C   1,C   0,H   2)   -179.96  0.000055   -0.04   -180.00   
    ----------------------------------------------------------------------------

         *************************************************************
         *                GEOMETRY OPTIMIZATION CYCLE   3            *
         *************************************************************
---------------------------------
CARTESIAN COORDINATES (ANGSTROEM)
---------------------------------
  C     -6.273138   -4.179939    0.816125
  C     -7.373229   -4.607869    1.541641
  H     -6.141481   -4.459837   -0.232962
  H     -5.510978   -3.551137    1.286538
  O     -7.631480   -4.343053    2.773630
  H     -8.093187   -5.248249    0.965361

----------------------------
CARTESIAN COORDINATES (A.U.)
----------------------------
  NO LB      ZA    FRAG     MASS         X           Y           Z
   0 C     6.0000    0    12.011  -11.854512   -7.898940    1.542254
   1 C     6.0000    0    12.011  -13.933383   -8.707611    2.913279
   2 H     1.0000    0     1.008  -11.605717   -8.427870   -0.440235
   3 H     1.0000    0     1.008  -10.414240   -6.710676    2.431204
   4 O     8.0000    0    15.999  -14.421407   -8.207181    5.241401
   5 H     1.0000    0     1.008  -15.293908   -9.917753    1.824268

--------------------------------
INTERNAL COORDINATES (ANGSTROEM)
--------------------------------
 C      0   0   0     0.000000000000     0.00000000     0.00000000
 C      1   0   0     1.385531310209     0.00000000     0.00000000
 H      1   2   0     1.093737225782   121.25154541     0.00000000
 H      1   2   3     1.094334057681   120.35492974   180.12404227
 O      2   1   3     1.286319238171   126.67976573   179.99799697
 H      2   1   3     1.122731088857   114.61620087   359.93759457

---------------------------
INTERNAL COORDINATES (A.U.)
---------------------------
 C      0   0   0     0.000000000000     0.00000000     0.00000000
 C      1   0   0     2.618274726268     0.00000000     0.00000000
 H      1   2   0     2.066863819202   121.25154541     0.00000000
 H      1   2   3     2.067991668040   120.35492974   180.12404227
 O      2   1   3     2.430791080936   126.67976573   179.99799697
 H      2   1   3     2.121654279978   114.61620087   359.93759457

------------------------------------------------------------------------------
                   ___                                                        
                  /   \      - P O W E R E D   B Y -                         
                 /     \                                                     
                 |  |  |   _    _      __       _____    __    __             
                 |  |  |  | |  | |    /  \     |  _  \  |  |  /  |          
                  \  \/   | |  | |   /    \    | | | |  |  | /  /          
                 / \  \   | |__| |  /  /\  \   | |_| |  |  |/  /          
                |  |  |   |  __  | /  /__\  \  |    /   |      \           
                |  |  |   | |  | | |   __   |  |    \   |  |\   \          
                \     /   | |  | | |  |  |  |  | |\  \  |  | \   \       
                 \___/    |_|  |_| |__|  |__|  |_| \__\ |__|  \__/        
                                                                              
                      - O R C A' S   B I G   F R I E N D -                    
                                      &                                       
                       - I N T E G R A L  F E E D E R -                       
                                                                              
 v1 FN, 2020, v2 2021                                                         
------------------------------------------------------------------------------


Reading SHARK input file inp.SHARKINP.tmp ... ok
----------------------
SHARK INTEGRAL PACKAGE
----------------------

Number of atoms                             ...      6
Number of basis functions                   ...    111
Number of shells                            ...     45
Maximum angular momentum                    ...      3
Integral batch strategy                     ... SHARK/LIBINT Hybrid
RI-J (if used) integral strategy            ... SPLIT-RIJ (Revised 2003 algorithm where possible)
Printlevel                                  ...      1
Contraction scheme used                     ... SEGMENTED contraction
Coulomb Range Separation                    ... NOT USED
Exchange Range Separation                   ... NOT USED
Finite Nucleus Model                        ... NOT USED
Auxiliary Coulomb fitting basis             ... AVAILABLE
   # of basis functions in Aux-J            ...    180
   # of shells in Aux-J                     ...     60
   Maximum angular momentum in Aux-J        ...      4
Auxiliary J/K fitting basis                 ... NOT available
Auxiliary Correlation fitting basis         ... NOT available
Auxiliary 'external' fitting basis          ... NOT available
Integral threshold                          ...     2.500000e-11
Primitive cut-off                           ...     2.500000e-12
Primitive pair pre-selection threshold      ...     2.500000e-12

Calculating pre-screening integrals         ... done (  0.0 sec) Dimension = 45
Organizing shell pair data                  ... done (  0.2 sec)
Shell pair information
Total number of shell pairs                 ...      1035
Shell pairs after pre-screening             ...      1022
Total number of primitive shell pairs       ...      3156
Primitive shell pairs kept                  ...      2659
          la=0 lb=0:    291 shell pairs
          la=1 lb=0:    286 shell pairs
          la=1 lb=1:     78 shell pairs
          la=2 lb=0:    142 shell pairs
          la=2 lb=1:     72 shell pairs
          la=2 lb=2:     21 shell pairs
          la=3 lb=0:     72 shell pairs
          la=3 lb=1:     36 shell pairs
          la=3 lb=2:     18 shell pairs
          la=3 lb=3:      6 shell pairs

Calculating one electron integrals          ... done (  0.0 sec)
Calculating RI/J V-Matrix + Cholesky decomp.... done (  0.2 sec)
Calculating Nuclear repulsion               ... done (  0.0 sec) ENN=     62.739124399040 Eh

SHARK setup successfully completed in   0.8 seconds

Maximum memory used throughout the entire GTOINT-calculation: 18.1 MB

Diagonalization of the overlap matrix:
Smallest eigenvalue                        ... 2.771e-04
Time for diagonalization                   ...    0.002 sec
Threshold for overlap eigenvalues          ... 1.000e-08
Number of eigenvalues below threshold      ... 0
Time for construction of square roots      ...    0.156 sec
Total time needed                          ...    0.158 sec

-------------------
DFT GRID GENERATION
-------------------

General Integration Accuracy     IntAcc      ... 4.388
Radial Grid Type                 RadialGrid  ... OptM3 with GC (2021)
Angular Grid (max. ang.)         AngularGrid ... 4 (Lebedev-302)
Angular grid pruning method      GridPruning ... 4 (adaptive)
Weight generation scheme         WeightScheme... Becke
Basis function cutoff            BFCut       ... 1.0000e-11
Integration weight cutoff        WCut        ... 1.0000e-14
Angular grids for H and He will be reduced by one unit
Partially contracted basis set               ... off
Rotationally invariant grid construction     ... off

Total number of grid points                  ...    28164
Total number of batches                      ...      443
Average number of points per batch           ...       63
Average number of grid points per atom       ...     4694
Time for grid setup =    0.412 sec


--------------------
CPCM SOLVATION MODEL
--------------------
CPCM parameters:
  Epsilon                                         ...      80.4000
  Refrac                                          ...       1.3300
  Rsolv                                           ...       1.3000
  Surface type                                    ... GAUSSIAN VDW
  Epsilon function type                           ...         CPCM
Radii:
 Radius for C  used is    3.8550 Bohr (=   2.0400 Ang.)
 Radius for H  used is    2.4944 Bohr (=   1.3200 Ang.)
 Radius for O  used is    3.4469 Bohr (=   1.8240 Ang.)
Calculating surface                               ...        done! (  0.0s)
GEPOL surface points                              ...          409
GEPOL Volume                                      ...     443.7145
[...]
GEPOL surface points                              ...          411
GEPOL Volume                                      ...     443.4918
GEPOL Surface-area                                ...     302.0082
Calculating surface distance matrix               ...        done! (  0.0s)
Performing Cholesky decomposition & store         ...        done! (  0.1s)
Overall time for CPCM initialization              ...                 0.1s
--------------
SCF ITERATIONS
--------------
ITER       Energy         Delta-E        Max-DP      RMS-DP      [F,P]     Damp
               ***  Starting incremental Fock matrix formation  ***
                      *** Initiating the SOSCF procedure ***
                      *** Re-Reading the Fockian *** 
                      *** Removing any level shift *** 
ITER      Energy       Delta-E        Grad      Rot      Max-DP    RMS-DP
  0   -153.21621957 -153.2162195710  0.000056  0.000056  0.000327  0.000010
               *** Restarting incremental Fock matrix formation ***
  1   -153.21621969  -0.0000001143  0.000013  0.000060  0.000145  0.000005
  2   -153.21621968   0.0000000041  0.000033  0.000065  0.000146  0.000003
  3   -153.21621969  -0.0000000115  0.000014  0.000033  0.000175  0.000004
  4   -153.21621969   0.0000000002  0.000012  0.000011  0.000057  0.000001
                  ***Gradient check signals convergence***
              ***Rediagonalizing the Fockian in SOSCF/NRSCF***

               *****************************************************
               *                     SUCCESS                       *
               *           SCF CONVERGED AFTER   5 CYCLES          *
               *****************************************************


----------------
TOTAL SCF ENERGY
----------------

Total Energy       :         -153.21621970 Eh           -4169.22530 eV

Components:
Nuclear Repulsion  :           62.66408586 Eh            1705.17647 eV
Electronic Energy  :         -215.88030556 Eh           -5874.40176 eV
One Electron Energy:         -338.14387160 Eh           -9201.36253 eV
Two Electron Energy:          122.26356604 Eh            3326.96077 eV
CPCM Dielectric    :           -0.10705515 Eh              -2.91312 eV

Virial components:
Potential Energy   :         -305.74867768 Eh           -8319.84449 eV
Kinetic Energy     :          152.53245799 Eh            4150.61920 eV
Virial Ratio       :            2.00448273


DFT components:
N(Alpha)           :       12.000019997640 electrons
N(Beta)            :       12.000019997640 electrons
N(Total)           :       24.000039995279 electrons
E(X)               :      -19.788865941633 Eh       
E(C)               :       -0.775105723623 Eh       
E(XC)              :      -20.563971665257 Eh       
DFET-embed. en.    :        0.000000000000 Eh       
CPCM Solvation Model Properties:
Surface-charge          :            0.96769755
Charge-correction       :           -0.00580779 Eh              -0.15804 eV
Free-energy (cav+disp)  :  This term is not implemented in the current solvation scheme

---------------
SCF CONVERGENCE
---------------

  Last Energy change         ...   -3.3330e-09  Tolerance :   1.0000e-08
  Last MAX-Density change    ...    2.0667e-05  Tolerance :   1.0000e-07
  Last RMS-Density change    ...    5.5350e-07  Tolerance :   5.0000e-09
  Last Orbital Gradient      ...    1.7239e-06  Tolerance :   1.0000e-05
  Last Orbital Rotation      ...    3.8669e-06  Tolerance :   1.0000e-05

             **** THE GBW FILE WAS UPDATED (inp.gbw) ****
             **** DENSITY inp.scfp WAS UPDATED ****
             **** ENERGY FILE WAS UPDATED (inp.en.tmp) ****
             **** THE GBW FILE WAS UPDATED (inp.gbw) ****
             **** DENSITY inp.scfp WAS UPDATED ****
----------------
ORBITAL ENERGIES
----------------

  NO   OCC          E(Eh)            E(eV) 
   0   2.0000     -18.658221      -507.7160 
   1   2.0000      -9.888434      -269.0780 
   2   2.0000      -9.816488      -267.1202 
   3   2.0000      -0.850614       -23.1464 
   4   2.0000      -0.607984       -16.5441 
   5   2.0000      -0.450020       -12.2457 
   6   2.0000      -0.368096       -10.0164 
   7   2.0000      -0.327612        -8.9148 
   8   2.0000      -0.286666        -7.8006 
   9   2.0000      -0.278093        -7.5673 
  10   2.0000      -0.156411        -4.2562 
  11   2.0000      -0.137355        -3.7376 
  12   0.0000       0.037658         1.0247 
  13   0.0000       0.070490         1.9181 
  14   0.0000       0.085540         2.3277 
  15   0.0000       0.116930         3.1818 
  16   0.0000       0.128224         3.4892 
  17   0.0000       0.189064         5.1447 
  18   0.0000       0.204847         5.5742 
  19   0.0000       0.211256         5.7486 
  20   0.0000       0.282901         7.6981 
  21   0.0000       0.298092         8.1115 
  22   0.0000       0.302367         8.2278 
  23   0.0000       0.351704         9.5704 
  24   0.0000       0.385811        10.4985 
  25   0.0000       0.420697        11.4477 
  26   0.0000       0.445168        12.1136 
  27   0.0000       0.483055        13.1446 
  28   0.0000       0.485866        13.2211 
  29   0.0000       0.506972        13.7954 
  30   0.0000       0.589577        16.0432 
  31   0.0000       0.600657        16.3447 
  32   0.0000       0.613863        16.7041 
  33   0.0000       0.703668        19.1478 
  34   0.0000       0.753892        20.5144 
  35   0.0000       0.841430        22.8965 
  36   0.0000       0.856323        23.3017 
  37   0.0000       0.896048        24.3827 
  38   0.0000       0.974863        26.5274 
  39   0.0000       1.079210        29.3668 
  40   0.0000       1.099871        29.9290 
  41   0.0000       1.117996        30.4222 
  42   0.0000       1.242885        33.8206 
  43   0.0000       1.354229        36.8504 
  44   0.0000       1.377100        37.4728 
  45   0.0000       1.442165        39.2433 
  46   0.0000       1.484920        40.4067 
  47   0.0000       1.542192        41.9652 
  48   0.0000       1.590663        43.2841 
  49   0.0000       1.599650        43.5287 
  50   0.0000       1.649156        44.8758 
  51   0.0000       1.730799        47.0974 
  52   0.0000       1.743186        47.4345 
  53   0.0000       1.763216        47.9795 
  54   0.0000       1.783405        48.5289 
  55   0.0000       1.890836        51.4523 
  56   0.0000       1.909390        51.9571 
  57   0.0000       2.042388        55.5762 
  58   0.0000       2.130418        57.9716 
  59   0.0000       2.145399        58.3793 
  60   0.0000       2.251589        61.2688 
  61   0.0000       2.304194        62.7003 
  62   0.0000       2.362410        64.2844 
  63   0.0000       2.437566        66.3295 
  64   0.0000       2.486963        67.6737 
  65   0.0000       2.502396        68.0937 
  66   0.0000       2.555639        69.5425 
  67   0.0000       2.623866        71.3990 
  68   0.0000       2.680707        72.9457 
  69   0.0000       2.769419        75.3597 
  70   0.0000       2.772361        75.4398 
  71   0.0000       2.775899        75.5361 
  72   0.0000       2.931388        79.7671 
  73   0.0000       2.942655        80.0737 
  74   0.0000       3.016142        82.0734 
  75   0.0000       3.032575        82.5206 
  76   0.0000       3.046666        82.9040 
  77   0.0000       3.073000        83.6206 
  78   0.0000       3.135270        85.3150 
  79   0.0000       3.146176        85.6118 
  80   0.0000       3.260770        88.7301 
  81   0.0000       3.301196        89.8301 
  82   0.0000       3.318890        90.3116 
  83   0.0000       3.349015        91.1313 
  84   0.0000       3.358080        91.3780 
  85   0.0000       3.516940        95.7008 
  86   0.0000       3.710754       100.9747 
  87   0.0000       3.769186       102.5648 
  88   0.0000       3.899995       106.1243 
  89   0.0000       4.047149       110.1285 
  90   0.0000       4.134671       112.5101 
  91   0.0000       4.170054       113.4729 
  92   0.0000       4.266852       116.1070 
  93   0.0000       4.530273       123.2750 
  94   0.0000       4.571955       124.4092 
  95   0.0000       4.668531       127.0372 
  96   0.0000       5.126815       139.5077 
  97   0.0000       5.136719       139.7772 
  98   0.0000       5.416321       147.3856 
  99   0.0000       5.485152       149.2586 
 100   0.0000       5.888570       160.2361 
 101   0.0000       6.088995       165.6900 
 102   0.0000       6.195103       168.5773 
 103   0.0000       6.265531       170.4938 
 104   0.0000       6.351233       172.8258 
 105   0.0000       6.706023       182.4802 
 106   0.0000       6.816763       185.4936 
 107   0.0000       6.909584       188.0193 
 108   0.0000      21.901535       595.9711 
 109   0.0000      22.525719       612.9560 
 110   0.0000      43.383260      1180.5185 

                    ********************************
                    * MULLIKEN POPULATION ANALYSIS *
                    ********************************

-----------------------
MULLIKEN ATOMIC CHARGES
-----------------------
   0 C :   -0.544525
   1 C :    0.025574
   2 H :    0.096006
   3 H :    0.069345
   4 O :   -0.628208
   5 H :   -0.018191
Sum of atomic charges:   -1.0000000

--------------------------------
MULLIKEN REDUCED ORBITAL CHARGES
--------------------------------
  0 C s       :     3.224823  s :     3.224823
      pz      :     1.001631  p :     3.282425
      px      :     1.045650
      py      :     1.235145
      dz2     :     0.011829  d :     0.033015
      dxz     :     0.003791
      dyz     :     0.004114
      dx2y2   :     0.004070
      dxy     :     0.009211
      f0      :     0.000581  f :     0.004261
      f+1     :     0.000699
      f-1     :     0.000420
      f+2     :     0.000304
      f-2     :     0.000835
      f+3     :     0.000829
      f-3     :     0.000593
  1 C s       :     3.171692  s :     3.171692
      pz      :     0.780897  p :     2.675768
      px      :     0.960154
      py      :     0.934716
      dz2     :     0.031296  d :     0.114351
      dxz     :     0.025795
      dyz     :     0.036700
      dx2y2   :     0.004645
      dxy     :     0.015915
      f0      :     0.002867  f :     0.012616
      f+1     :     0.003739
      f-1     :     0.002397
      f+2     :     0.001274
      f-2     :     0.001148
      f+3     :     0.000886
      f-3     :     0.000305
  2 H s       :     0.881144  s :     0.881144
      pz      :     0.011131  p :     0.022851
      px      :     0.004736
      py      :     0.006984
  3 H s       :     0.907851  s :     0.907851
      pz      :     0.005104  p :     0.022804
      px      :     0.008712
      py      :     0.008989
  4 O s       :     3.788932  s :     3.788932
      pz      :     1.405100  p :     4.812693
      px      :     1.745680
      py      :     1.661914
      dz2     :     0.010044  d :     0.025133
      dxz     :     0.006776
      dyz     :     0.006911
      dx2y2   :     0.000584
      dxy     :     0.000817
      f0      :     0.000509  f :     0.001450
      f+1     :     0.000383
      f-1     :     0.000361
      f+2     :     0.000080
      f-2     :     0.000102
      f+3     :     0.000008
      f-3     :     0.000007
  5 H s       :     0.998997  s :     0.998997
      pz      :     0.005783  p :     0.019194
      px      :     0.006853
      py      :     0.006558


                     *******************************
                     * LOEWDIN POPULATION ANALYSIS *
                     *******************************

----------------------
LOEWDIN ATOMIC CHARGES
----------------------
   0 C :   -0.495786
   1 C :   -0.538590
   2 H :    0.100161
   3 H :    0.091390
   4 O :   -0.237063
   5 H :    0.079888

-------------------------------
LOEWDIN REDUCED ORBITAL CHARGES
-------------------------------
  0 C s       :     2.890322  s :     2.890322
      pz      :     1.059305  p :     3.370573
      px      :     1.126410
      py      :     1.184857
      dz2     :     0.067021  d :     0.210989
      dxz     :     0.050096
      dyz     :     0.021632
      dx2y2   :     0.024512
      dxy     :     0.047728
      f0      :     0.002684  f :     0.023902
      f+1     :     0.005021
      f-1     :     0.002180
      f+2     :     0.003501
      f-2     :     0.004206
      f+3     :     0.002408
      f-3     :     0.003903
  1 C s       :     2.837366  s :     2.837366
      pz      :     0.960991  p :     2.922808
      px      :     1.032994
      py      :     0.928823
      dz2     :     0.174210  d :     0.694727
      dxz     :     0.221592
      dyz     :     0.181016
      dx2y2   :     0.047493
      dxy     :     0.070416
      f0      :     0.019739  f :     0.083689
      f+1     :     0.024432
      f-1     :     0.017223
      f+2     :     0.008241
      f-2     :     0.005510
      f+3     :     0.004383
      f-3     :     0.004161
  2 H s       :     0.833883  s :     0.833883
      pz      :     0.031923  p :     0.065955
      px      :     0.013907
      py      :     0.020125
  3 H s       :     0.843531  s :     0.843531
      pz      :     0.016190  p :     0.065079
      px      :     0.024061
      py      :     0.024828
  4 O s       :     3.454916  s :     3.454916
      pz      :     1.491626  p :     4.716406
      px      :     1.645033
      py      :     1.579747
      dz2     :     0.024000  d :     0.060963
      dxz     :     0.017434
      dyz     :     0.016329
      dx2y2   :     0.001629
      dxy     :     0.001570
      f0      :     0.001655  f :     0.004779
      f+1     :     0.001308
      f-1     :     0.001201
      f+2     :     0.000312
      f-2     :     0.000278
      f+3     :     0.000011
      f-3     :     0.000014
  5 H s       :     0.867082  s :     0.867082
      pz      :     0.016136  p :     0.053030
      px      :     0.018823
      py      :     0.018071


                      *****************************
                      * MAYER POPULATION ANALYSIS *
                      *****************************

  NA   - Mulliken gross atomic population
  ZA   - Total nuclear charge
  QA   - Mulliken gross atomic charge
  VA   - Mayer's total valence
  BVA  - Mayer's bonded valence
  FA   - Mayer's free valence

  ATOM       NA         ZA         QA         VA         BVA        FA
  0 C      6.5445     6.0000    -0.5445     3.4783     3.4783     0.0000
  1 C      5.9744     6.0000     0.0256     4.2543     4.2543    -0.0000
  2 H      0.9040     1.0000     0.0960     0.9762     0.9762     0.0000
  3 H      0.9307     1.0000     0.0693     1.0063     1.0063    -0.0000
  4 O      8.6282     8.0000    -0.6282     1.8393     1.8393    -0.0000
  5 H      1.0182     1.0000    -0.0182     0.9487     0.9487     0.0000

  Mayer bond orders larger than 0.100000
B(  0-C ,  1-C ) :   1.5919 B(  0-C ,  2-H ) :   0.9452 B(  0-C ,  3-H ) :   0.9508 
B(  1-C ,  4-O ) :   1.7102 B(  1-C ,  5-H ) :   0.9340 

-------
TIMINGS
-------

Total SCF time: 0 days 0 hours 0 min 6 sec 

Total time                  ....       6.826 sec
Sum of individual times     ....       5.515 sec  ( 80.8%)

Fock matrix formation       ....       4.592 sec  ( 67.3%)
  Split-RI-J                ....       0.337 sec  (  7.3% of F)
  XC integration            ....       2.148 sec  ( 46.8% of F)
    Basis function eval.    ....       0.507 sec  ( 23.6% of XC)
    Density eval.           ....       0.288 sec  ( 13.4% of XC)
    XC-Functional eval.     ....       0.148 sec  (  6.9% of XC)
    XC-Potential eval.      ....       0.354 sec  ( 16.5% of XC)
Diagonalization             ....       0.002 sec  (  0.0%)
Density matrix formation    ....       0.001 sec  (  0.0%)
Population analysis         ....       0.441 sec  (  6.5%)
Initial guess               ....       0.003 sec  (  0.0%)
Orbital Transformation      ....       0.000 sec  (  0.0%)
Orbital Orthonormalization  ....       0.002 sec  (  0.0%)
DIIS solution               ....       0.000 sec  (  0.0%)
SOSCF solution              ....       0.092 sec  (  1.3%)
Grid generation             ....       0.383 sec  (  5.6%)

Maximum memory used throughout the entire SCF-calculation: 27.0 MB


-------------------------------------------------------------------------------
                          DFT DISPERSION CORRECTION                            
                                                                               
                              DFTD3 V3.1  Rev 1                                
                          USING Becke-Johnson damping                          
-------------------------------------------------------------------------------
The PBE functional is recognized
Active option DFTDOPT                   ...         4   

molecular C6(AA) [au] = 357.606781 


            DFT-D V3
 parameters
 s6 scaling factor         :     1.0000 
 a1 scaling factor         :     0.4289 
 s8 scaling factor         :     0.7875 
 a2 scaling factor         :     4.4407 
 ad hoc parameters k1-k3   :    16.0000     1.3333    -4.0000 

 Edisp/kcal,au: -1.696512768672  -0.002703564899 
 E6   /kcal   :  -1.211941133 
 E8   /kcal   :  -0.484571636 
 % E8         :  28.562805122 

-------------------------   ----------------
Dispersion correction           -0.002703565
-------------------------   ----------------


-------------------------   --------------------
FINAL SINGLE POINT ENERGY      -153.218923260701
-------------------------   --------------------

                                *** OPTIMIZATION RUN DONE ***

                            ***************************************
                            *     ORCA property calculations      *
                            ***************************************

                                    ---------------------
                                    Active property flags
                                    ---------------------
   (+) Dipole Moment


------------------------------------------------------------------------------
                       ORCA ELECTRIC PROPERTIES CALCULATION
------------------------------------------------------------------------------

Dipole Moment Calculation                       ... on
Quadrupole Moment Calculation                   ... off
Polarizability Calculation                      ... off
GBWName                                         ... inp.gbw
Electron density                                ... inp.scfp
The origin for moment calculation is the CENTER OF MASS  = (-13.443558, -8.276533  3.289820)

-------------
DIPOLE MOMENT
-------------
                                X             Y             Z
Electronic contribution:     -1.34520      -0.06769       2.21283
Nuclear contribution   :      1.50520      -0.10817      -3.00643
                        -----------------------------------------
Total Dipole Moment    :      0.16000      -0.17585      -0.79360
                        -----------------------------------------
Magnitude (a.u.)       :      0.82845
Magnitude (Debye)      :      2.10575



--------------------
Rotational spectrum 
--------------------
 
Rotational constants in cm-1:     2.459330     0.359121     0.313362 
Rotational constants in MHz : 73728.846824 10766.165877  9394.366018 

 Dipole components along the rotational axes: 
x,y,z [a.u.] :    -0.721380    -0.407353    -0.001543 
x,y,z [Debye]:    -1.833601    -1.035410    -0.003921 

 

Timings for individual modules:

Sum of individual times         ...      129.665 sec (=   2.161 min)
GTO integral calculation        ...        8.427 sec (=   0.140 min)   6.5 %
SCF iterations                  ...      102.290 sec (=   1.705 min)  78.9 %
SCF Gradient evaluation         ...       17.438 sec (=   0.291 min)  13.4 %
Geometry relaxation             ...        1.510 sec (=   0.025 min)   1.2 %
                             ****ORCA TERMINATED NORMALLY****
TOTAL RUN TIME: 0 days 0 hours 2 minutes 17 seconds 886 msec
