 Entering Gaussian System
 *********************************************
 Gaussian 98:
 frequency output generated by the xtb code
 *********************************************
                         Standard orientation:
 --------------------------------------------------------------------
  Center     Atomic     Atomic              Coordinates (Angstroms)
  Number     Number      Type              X           Y           Z
 --------------------------------------------------------------------
    1          7             0       -6.595385   -2.951878    3.297820
    2          6             0       -5.559821   -2.686223    2.543413
    3          1             0       -5.691862   -2.593315    1.480836
    4          8             0       -7.743064   -3.095304    2.773071
    5          1             0       -4.593186   -2.567597    2.998048
    6          8             0       -6.452835   -3.065087    4.554785
 --------------------------------------------------------------------
     1 basis functions        1 primitive gaussians
     1 alpha electrons        1 beta electrons
 
 Harmonic frequencies (cm**-1), IR intensities (km*mol⁻¹),
 Raman scattering activities (A**4/amu), Raman depolarization ratios,
 reduced masses (AMU), force constants (mDyne/A) and normal coordinates:
                      1                      2                      3
                        a                      a                      a 
 Frequencies --   473.9055               505.4347               618.5082
 Red. masses --     4.1676                 9.8633                 1.6629
 Frc consts  --     0.0000                 0.0000                 0.0000
 IR Inten    --    73.7016                 2.6207                 0.0007
 Raman Activ --     0.0000                 0.0000                 0.0000
 Depolar     --     0.0000                 0.0000                 0.0000
 Atom AN      X      Y      Z        X      Y      Z        X      Y      Z
   1   7    -0.03   0.17   0.02     0.19   0.00   0.26     0.00   0.00   0.00
   2   6     0.09  -0.49  -0.05    -0.23  -0.01  -0.31    -0.00  -0.00  -0.00
   3   1    -0.10   0.59   0.06    -0.41  -0.07  -0.05     0.12  -0.68  -0.07
   4   8     0.00  -0.01  -0.00     0.40   0.09  -0.18    -0.02   0.14   0.02
   5   1    -0.10   0.59   0.06     0.08   0.06  -0.41    -0.12   0.68   0.07
   6   8     0.00  -0.01  -0.00    -0.29  -0.09   0.32     0.03  -0.14  -0.02
                      4                      5                      6
                        a                      a                      a 
 Frequencies --   631.0072               702.4591              1048.7850
 Red. masses --    14.8404                13.2819                13.4533
 Frc consts  --     0.0000                 0.0000                 0.0000
 IR Inten    --    12.7182                58.8775                46.6840
 Raman Activ --     0.0000                 0.0000                 0.0000
 Depolar     --     0.0000                 0.0000                 0.0000
 Atom AN      X      Y      Z        X      Y      Z        X      Y      Z
   1   7    -0.25  -0.06   0.18    -0.15   0.84   0.09    -0.06  -0.02   0.05
   2   6    -0.30  -0.08   0.22     0.03  -0.16  -0.02    -0.39  -0.10   0.29
   3   1    -0.09  -0.02   0.06     0.03  -0.19  -0.02    -0.20  -0.05   0.10
   4   8    -0.02   0.06  -0.60     0.05  -0.28  -0.03     0.52   0.07   0.21
   5   1    -0.09  -0.02   0.07     0.03  -0.19  -0.02    -0.15  -0.04   0.16
   6   8     0.56   0.08   0.21     0.05  -0.28  -0.03    -0.03   0.06  -0.56
                      7                      8                      9
                        a                      a                      a 
 Frequencies --  1060.0767              1358.9490              1411.0880
 Red. masses --     6.4132                 3.3214                14.0445
 Frc consts  --     0.0000                 0.0000                 0.0000
 IR Inten    --    25.5344                99.6618               434.5666
 Raman Activ --     0.0000                 0.0000                 0.0000
 Depolar     --     0.0000                 0.0000                 0.0000
 Atom AN      X      Y      Z        X      Y      Z        X      Y      Z
   1   7     0.01   0.00   0.02     0.26   0.07  -0.19     0.48   0.01   0.66
   2   6     0.30   0.01   0.42     0.15   0.04  -0.11    -0.08  -0.00  -0.11
   3   1    -0.50  -0.11   0.16    -0.63  -0.12   0.06     0.13   0.03  -0.03
   4   8    -0.28  -0.04  -0.04    -0.13  -0.02  -0.03    -0.33  -0.04  -0.17
   5   1     0.31   0.10  -0.42    -0.25  -0.11   0.58    -0.07  -0.02   0.12
   6   8     0.05   0.04  -0.28    -0.01  -0.02   0.14    -0.06   0.03  -0.37
                     10                     11                     12
                        a                      a                      a 
 Frequencies --  1605.9221              3097.6217              3136.2735
 Red. masses --    12.7681                 1.4159                 2.1285
 Frc consts  --     0.0000                 0.0000                 0.0000
 IR Inten    --   403.3513                30.8084               126.3557
 Raman Activ --     0.0000                 0.0000                 0.0000
 Depolar     --     0.0000                 0.0000                 0.0000
 Atom AN      X      Y      Z        X      Y      Z        X      Y      Z
   1   7     0.59   0.15  -0.43     0.01   0.00  -0.00    -0.01  -0.00  -0.02
   2   6    -0.46  -0.12   0.34    -0.15  -0.04   0.11    -0.19  -0.00  -0.26
   3   1     0.14   0.02   0.07    -0.10   0.06  -0.68     0.06  -0.06   0.66
   4   8    -0.16  -0.02  -0.03    -0.00  -0.00   0.00     0.00   0.00   0.00
   5   1    -0.02   0.01  -0.16     0.62   0.07   0.31     0.61   0.08   0.27
   6   8    -0.02  -0.02   0.16    -0.00  -0.00   0.00     0.00   0.00   0.00
