      -----------------------------------------------------------      
     |                   =====================                   |     
     |                           x T B                           |     
     |                   =====================                   |     
     |                         S. Grimme                         |     
     |          Mulliken Center for Theoretical Chemistry        |     
     |                    University of Bonn                     |     
      -----------------------------------------------------------      

   * xtb version 6.7.1 (edcfbbe) compiled by 'albert@albert-system' on 2024-07-22

   xtb is free software: you can redistribute it and/or modify it under
   the terms of the GNU Lesser General Public License as published by
   the Free Software Foundation, either version 3 of the License, or
   (at your option) any later version.
   
   xtb is distributed in the hope that it will be useful,
   but WITHOUT ANY WARRANTY; without even the implied warranty of
   MERCHANTABILITY or FITNESS FOR A PARTICULAR PURPOSE.  See the
   GNU Lesser General Public License for more details.
   
   Cite this work as:
   * C. Bannwarth, E. Caldeweyher, S. Ehlert, A. Hansen, P. Pracht,
     J. Seibert, S. Spicher, S. Grimme, WIREs Comput. Mol. Sci., 2020, 11,
     e01493. DOI: 10.1002/wcms.1493
   
   for GFN2-xTB:
   * C. Bannwarth, S. Ehlert and S. Grimme., J. Chem. Theory Comput., 2019,
     15, 1652-1671. DOI: 10.1021/acs.jctc.8b01176
   for GFN1-xTB:
   * S. Grimme, C. Bannwarth, P. Shushkov, J. Chem. Theory Comput., 2017,
     13, 1989-2009. DOI: 10.1021/acs.jctc.7b00118
   for GFN0-xTB:
   * P. Pracht, E. Caldeweyher, S. Ehlert, S. Grimme, ChemRxiv, 2019, preprint.
     DOI: 10.26434/chemrxiv.8326202.v1
   for GFN-FF:
   * S. Spicher and S. Grimme, Angew. Chem. Int. Ed., 2020, 59, 15665-15673.
     DOI: 10.1002/anie.202004239
   
   for ALPB and GBSA implicit solvation:
   * S. Ehlert, M. Stahn, S. Spicher, S. Grimme, J. Chem. Theory Comput.,
     2021, 17, 4250-4261. DOI: 10.1021/acs.jctc.1c00471
   
   for ddCOSMO and CPCM-X implicit solvation:
   * M. Stahn, S. Ehlert, S. Grimme, J. Phys. Chem. A,
     2023, XX, XXXX-XXXX. DOI: 10.1021/acs.jpca.3c04382
   
   for DFT-D4:
   * E. Caldeweyher, C. Bannwarth and S. Grimme, J. Chem. Phys., 2017,
     147, 034112. DOI: 10.1063/1.4993215
   * E. Caldeweyher, S. Ehlert, A. Hansen, H. Neugebauer, S. Spicher,
     C. Bannwarth and S. Grimme, J. Chem. Phys., 2019, 150, 154122.
     DOI: 10.1063/1.5090222
   * E. Caldeweyher, J.-M. Mewes, S. Ehlert and S. Grimme, Phys. Chem. Chem. Phys.
     2020, 22, 8499-8512. DOI: 10.1039/D0CP00502A
   
   for sTDA-xTB:
   * S. Grimme and C. Bannwarth, J. Chem. Phys., 2016, 145, 054103.
     DOI: 10.1063/1.4959605
   
   in the mass-spec context:
   * V. Asgeirsson, C. Bauer and S. Grimme, Chem. Sci., 2017, 8, 4879.
     DOI: 10.1039/c7sc00601b
   * J. Koopman and S. Grimme, ACS Omega 2019, 4, 12, 15120-15133.
     DOI: 10.1021/acsomega.9b02011
   
   for metadynamics refer to:
   * S. Grimme, J. Chem. Theory Comput., 2019, 155, 2847-2862
     DOI: 10.1021/acs.jctc.9b00143
   
   for SPH calculations refer to:
   * S. Spicher and S. Grimme, J. Chem. Theory Comput., 2021, 17, 1701-1714
     DOI: 10.1021/acs.jctc.0c01306
   
   for ONIOM refer to:
   * C. Plett, A. Katbashev, S. Ehlert, S. Grimme, M. Bursch,
     Phys. Chem. Chem. Phys., 2023, 25, 17860-17868. DOI: 10.1039/D3CP02178E
   
   for DIPRO refer to:
   * J. Kohn, N. Gildemeister, S. Grimme, D. Fazzi, A. Hansen,
     J. Chem. Phys., 2023, just accepted.
   
   for PTB refer to:
   * S. Grimme, M. Mueller, A. Hansen, J. Chem. Phys., 2023, 158, 124111.
     DOI: 10.1063/5.0137838
   
   with help from (in alphabetical order)
   P. Atkinson, C. Bannwarth, F. Bohle, G. Brandenburg, E. Caldeweyher
   M. Checinski, S. Dohm, S. Ehlert, S. Ehrlich, I. Gerasimov, C. Hölzer
   A. Katbashev, J. Kohn, J. Koopman, C. Lavigne, S. Lehtola, F. März, M. Müller,
   F. Musil, H. Neugebauer, J. Pisarek, C. Plett, P. Pracht, F. Pultar,
   J. Seibert, P. Shushkov, S. Spicher, M. Stahn, M. Steiner, T. Strunk,
   J. Stückrath, T. Rose, and J. Unsleber
   
 * started run on 2025/10/18 at 05:21:55.992     
   ID    Z sym.   atoms
    1    7 N      1
    2    6 C      2
    3    1 H      3, 5
    4    8 O      4, 6

           -------------------------------------------------
          |                Calculation Setup                |
           -------------------------------------------------

          program call               : xtb xyz.xyz --charge -1 --ohess
          hostname                   : m003
          coordinate file            : xyz.xyz
          omp threads                :                     2


           -------------------------------------------------
          |                 G F N 2 - x T B                 |
           -------------------------------------------------

        Reference                      10.1021/acs.jctc.8b01176
      * Hamiltonian:
        H0-scaling (s, p, d)           1.850000    2.230000    2.230000
        zeta-weighting                 0.500000
      * Dispersion:
        s8                             2.700000
        a1                             0.520000
        a2                             5.000000
        s9                             5.000000
      * Repulsion:
        kExp                           1.500000    1.000000
        rExp                           1.000000
      * Coulomb:
        alpha                          2.000000
        third order                    shell-resolved
        anisotropic                    true
        a3                             3.000000
        a5                             4.000000
        cn-shift                       1.200000
        cn-exp                         4.000000
        max-rad                        5.000000

q/qsh data taken from xtbrestart
CAMM data taken from xtbrestart

          ...................................................
          :                      SETUP                      :
          :.................................................:
          :  # basis functions                  18          :
          :  # atomic orbitals                  18          :
          :  # shells                           10          :
          :  # electrons                        24          :
          :  max. iterations                   250          :
          :  Hamiltonian                  GFN2-xTB          :
          :  restarted?                       true          :
          :  GBSA solvation                  false          :
          :  PC potential                    false          :
          :  electronic temp.          300.0000000     K    :
          :  accuracy                    1.0000000          :
          :  -> integral cutoff          0.2500000E+02      :
          :  -> integral neglect         0.1000000E-07      :
          :  -> SCF convergence          0.1000000E-05 Eh   :
          :  -> wf. convergence          0.1000000E-03 e    :
          :  Broyden damping             0.4000000          :
          :  net charge                         -1          :
          :  unpaired electrons                  0          :
          ...................................................

 iter      E             dE          RMSdq      gap      omega  full diag
   1    -14.3815077 -0.143815E+02  0.161E+00    3.59       0.0  T
   2    -14.3813206  0.187043E-03  0.156E+00    3.16       1.0  T
   3    -14.3924223 -0.111017E-01  0.333E-01    3.32       1.0  T
   4    -14.3924447 -0.223820E-04  0.132E-01    3.28       1.0  T
   5    -14.3924814 -0.367593E-04  0.556E-02    3.28       1.0  T
   6    -14.3924871 -0.564478E-05  0.600E-03    3.29       6.8  T
   7    -14.3924870  0.412916E-07  0.459E-03    3.29       8.9  T
   8    -14.3924871 -0.577610E-07  0.289E-04    3.29     141.0  T
   9    -14.3924871 -0.608047E-11  0.176E-04    3.29     232.2  T

   *** convergence criteria satisfied after 9 iterations ***

         #    Occupation            Energy/Eh            Energy/eV
      -------------------------------------------------------------
         1        2.0000           -0.4929641             -13.4142
       ...           ...                  ...                  ...
         6        2.0000           -0.3325120              -9.0481
         7        2.0000           -0.3182244              -8.6593
         8        2.0000           -0.2720368              -7.4025
         9        2.0000           -0.2053369              -5.5875
        10        2.0000           -0.1869155              -5.0862
        11        2.0000           -0.1729917              -4.7073
        12        2.0000           -0.1301666              -3.5420 (HOMO)
        13                         -0.0093634              -0.2548 (LUMO)
        14                          0.2720385               7.4025
        15                          0.3336617               9.0794
        16                          0.4800185              13.0620
        17                          0.4865447              13.2396
        18                          0.7054468              19.1962
      -------------------------------------------------------------
                  HL-Gap            0.1208032 Eh            3.2872 eV
             Fermi-level           -0.0697650 Eh           -1.8984 eV

 SCC (total)                   0 d,  0 h,  0 min,  0.025 sec
 SCC setup                      ...        0 min,  0.000 sec (  0.502%)
 Dispersion                     ...        0 min,  0.000 sec (  0.160%)
 classical contributions        ...        0 min,  0.000 sec (  0.084%)
 integral evaluation            ...        0 min,  0.000 sec (  1.249%)
 iterations                     ...        0 min,  0.024 sec ( 95.493%)
 molecular gradient             ...        0 min,  0.001 sec (  2.099%)
 printout                       ...        0 min,  0.000 sec (  0.320%)

         :::::::::::::::::::::::::::::::::::::::::::::::::::::
         ::                     SUMMARY                     ::
         :::::::::::::::::::::::::::::::::::::::::::::::::::::
         :: total energy             -14.311429961502 Eh    ::
         :: gradient norm              0.159219137971 Eh/a0 ::
         :: HOMO-LUMO gap              3.287221197811 eV    ::
         ::.................................................::
         :: SCC energy               -14.392486989222 Eh    ::
         :: -> isotropic ES            0.198106273242 Eh    ::
         :: -> anisotropic ES          0.003411893944 Eh    ::
         :: -> anisotropic XC         -0.003500466303 Eh    ::
         :: -> dispersion             -0.002745427466 Eh    ::
         :: repulsion energy           0.081057027720 Eh    ::
         :: add. restraining           0.000000000000 Eh    ::
         :: total charge              -1.000000000000 e     ::
         :::::::::::::::::::::::::::::::::::::::::::::::::::::

      ----------------------------------------------------------- 
     |                   =====================                   |
     |                        A N C O P T                        |
     |                   =====================                   |
     |               Approximate Normal Coordinate               |
     |                Rational Function Optimizer                |
      ----------------------------------------------------------- 
      ----------------------------------------------------------- 
     |                   =====================                   |
     |                        A N C O P T                        |
     |                   =====================                   |
     |               Approximate Normal Coordinate               |
     |                Rational Function Optimizer                |
      ----------------------------------------------------------- 

          ...................................................
          :                      SETUP                      :
          :.................................................:
          :   optimization level            normal          :
          :   max. optcycles                   200          :
          :   ANC micro-cycles                  20          :
          :   degrees of freedom                12          :
          :.................................................:
          :   RF solver                   davidson          :
          :   write xtbopt.log                true          :
          :   linear?                        false          :
          :   energy convergence         0.5000000E-05 Eh   :
          :   grad. convergence          0.1000000E-02 Eh/α :
          :   maxmium RF displ.          1.0000000          :
          :   Hlow (freq-cutoff)         0.1000000E-01      :
          :   Hmax (freq-cutoff)         5.0000000          :
          :   S6 in model hess.         20.0000000          :
          ...................................................

generating ANC from exact Hessian ...
Using Lindh-Hessian (1995)
 Shifting diagonal of input Hessian by   0.000000000000000E+000
 Lowest  eigenvalues of input Hessian
    0.000000    0.000000    0.000000    0.000000    0.000000    0.000000
    0.026149    0.041097    0.072305    0.090760    0.138844    0.237304
    0.353687    0.620943    1.045424    1.363833    2.022703    2.514872
 Highest eigenvalues
    0.353687    0.620943    1.045424    1.363833    2.022703    2.514872
 

........................................................................
.............................. CYCLE    1 ..............................
........................................................................

 iter      E             dE          RMSdq      gap      omega  full diag
   1    -14.3924871 -0.143925E+02  0.141E-05    3.29       0.0  T
   2    -14.3924871 -0.888178E-14  0.906E-06    3.29    4505.4  T
   3    -14.3924871 -0.127898E-12  0.646E-06    3.29    6319.1  T
     SCC iter.                  ...        0 min,  0.000 sec
     gradient                   ...        0 min,  0.000 sec
 * total energy  :   -14.3114300 Eh     change       -0.6981971E-10 Eh
   gradient norm :     0.1592228 Eh/α   predicted     0.0000000E+00 (-100.00%)
   displ. norm   :     0.1188331 α      lambda       -0.1397183E-01
   maximum displ.:     0.0767913 α      in ANC's #11, #2, #7, ...

........................................................................
.............................. CYCLE    2 ..............................
........................................................................

 iter      E             dE          RMSdq      gap      omega  full diag
   1    -14.4029211 -0.144029E+02  0.949E-01    3.56       0.0  T
   2    -14.4038203 -0.899245E-03  0.858E-01    3.75       1.0  T
   3    -14.4070463 -0.322593E-02  0.147E-01    3.65       1.0  T
   4    -14.4070522 -0.595336E-05  0.409E-02    3.66       1.0  T
   5    -14.4070522  0.834894E-08  0.198E-02    3.66       2.1  T
   6    -14.4070530 -0.749962E-06  0.837E-03    3.66       4.9  T
   7    -14.4070531 -0.127192E-06  0.171E-03    3.66      23.8  T
   8    -14.4070531 -0.577567E-08  0.169E-04    3.66     241.4  T
   9    -14.4070531 -0.643752E-11  0.160E-05    3.66    2547.3  T
     SCC iter.                  ...        0 min,  0.001 sec
     gradient                   ...        0 min,  0.000 sec
 * total energy  :   -14.3217688 Eh     change       -0.1033888E-01 Eh
   gradient norm :     0.0813851 Eh/α   predicted    -0.7084567E-02 ( -31.48%)
   displ. norm   :     0.2800515 α      lambda       -0.1308101E-01
   maximum displ.:     0.1689204 α      in ANC's #2, #4, #11, ...

........................................................................
.............................. CYCLE    3 ..............................
........................................................................

 iter      E             dE          RMSdq      gap      omega  full diag
   1    -14.4100464 -0.144100E+02  0.135E+00    3.98       0.0  T
   2    -14.4132552 -0.320873E-02  0.964E-01    4.06       1.0  T
   3    -14.4170651 -0.380988E-02  0.251E-01    4.01       1.0  T
   4    -14.4170800 -0.149826E-04  0.547E-02    4.01       1.0  T
   5    -14.4170814 -0.139897E-05  0.211E-02    4.01       1.9  T
   6    -14.4170818 -0.402760E-06  0.848E-03    4.01       4.8  T
   7    -14.4170819 -0.857364E-07  0.179E-03    4.01      22.8  T
   8    -14.4170819 -0.467924E-08  0.272E-04    4.01     149.9  T
   9    -14.4170819 -0.405400E-10  0.278E-05    4.01    1468.2  T
     SCC iter.                  ...        0 min,  0.001 sec
     gradient                   ...        0 min,  0.000 sec
 * total energy  :   -14.3185606 Eh     change        0.3208254E-02 Eh
   gradient norm :     0.0913821 Eh/α   predicted    -0.7053471E-02 (-319.85%)
   displ. norm   :     0.2487742 α      lambda       -0.1471224E-01
   maximum displ.:     0.2259939 α      in ANC's #2, #4, #5, ...

........................................................................
.............................. CYCLE    4 ..............................
........................................................................

 iter      E             dE          RMSdq      gap      omega  full diag
   1    -14.4151789 -0.144152E+02  0.620E-01    4.09       0.0  T
   2    -14.4157075 -0.528566E-03  0.435E-01    4.01       1.0  T
   3    -14.4164146 -0.707069E-03  0.153E-01    4.04       1.0  T
   4    -14.4164242 -0.965286E-05  0.321E-02    4.03       1.3  T
   5    -14.4164254 -0.114746E-05  0.564E-03    4.03       7.2  T
   6    -14.4164254 -0.175100E-07  0.237E-03    4.03      17.2  T
   7    -14.4164254 -0.981689E-09  0.788E-04    4.03      51.8  T
   8    -14.4164254 -0.118954E-08  0.150E-04    4.03     271.6  T
     SCC iter.                  ...        0 min,  0.001 sec
     gradient                   ...        0 min,  0.000 sec
 * total energy  :   -14.3254224 Eh     change       -0.6861797E-02 Eh
   gradient norm :     0.0171194 Eh/α   predicted    -0.7811382E-02 (  13.84%)
   displ. norm   :     0.0542071 α      lambda       -0.6242024E-03
   maximum displ.:     0.0467034 α      in ANC's #2, #11, #5, ...

........................................................................
.............................. CYCLE    5 ..............................
........................................................................

 iter      E             dE          RMSdq      gap      omega  full diag
   1    -14.4142996 -0.144143E+02  0.228E-01    3.94       0.0  T
   2    -14.4143794 -0.797817E-04  0.177E-01    3.91       1.0  T
   3    -14.4145174 -0.138023E-03  0.423E-02    3.92       1.0  T
   4    -14.4145178 -0.390452E-06  0.795E-03    3.92       5.1  T
   5    -14.4145178 -0.226221E-07  0.334E-03    3.92      12.2  T
   6    -14.4145178 -0.100600E-07  0.640E-04    3.92      63.8  T
   7    -14.4145178 -0.970068E-10  0.938E-05    3.92     435.0  T
     SCC iter.                  ...        0 min,  0.001 sec
     gradient                   ...        0 min,  0.000 sec
 * total energy  :   -14.3255014 Eh     change       -0.7902167E-04 Eh
   gradient norm :     0.0149259 Eh/α   predicted    -0.3130181E-03 ( 296.12%)
   displ. norm   :     0.0256584 α      lambda       -0.2273420E-03
   maximum displ.:     0.0210853 α      in ANC's #2, #11, #7, ...

........................................................................
.............................. CYCLE    6 ..............................
........................................................................

 iter      E             dE          RMSdq      gap      omega  full diag
   1    -14.4158411 -0.144158E+02  0.992E-02    3.97       0.0  T
   2    -14.4158565 -0.154441E-04  0.749E-02    3.99       1.0  T
   3    -14.4158790 -0.224102E-04  0.227E-02    3.98       1.8  T
   4    -14.4158791 -0.104653E-06  0.477E-03    3.98       8.5  T
   5    -14.4158791 -0.611817E-08  0.159E-03    3.98      25.6  T
   6    -14.4158791 -0.277765E-08  0.255E-04    3.98     160.0  T
   7    -14.4158791 -0.734701E-11  0.460E-05    3.98     887.4  T
     SCC iter.                  ...        0 min,  0.001 sec
     gradient                   ...        0 min,  0.000 sec
 * total energy  :   -14.3256247 Eh     change       -0.1232571E-03 Eh
   gradient norm :     0.0016800 Eh/α   predicted    -0.1137458E-03 (  -7.72%)
   displ. norm   :     0.0088082 α      lambda       -0.6406350E-05
   maximum displ.:     0.0049348 α      in ANC's #2, #5, #8, ...

........................................................................
.............................. CYCLE    7 ..............................
........................................................................

 iter      E             dE          RMSdq      gap      omega  full diag
   1    -14.4162461 -0.144162E+02  0.181E-02    3.99       0.0  T
   2    -14.4162463 -0.251769E-06  0.101E-02    3.99       4.1  T
   3    -14.4162463 -0.313888E-07  0.677E-03    3.99       6.0  T
   4    -14.4162464 -0.715067E-07  0.173E-03    3.99      23.6  T
   5    -14.4162464 -0.400098E-08  0.411E-04    3.99      99.4  T
   6    -14.4162464 -0.376623E-10  0.882E-05    3.99     463.1  T
     SCC iter.                  ...        0 min,  0.001 sec
     gradient                   ...        0 min,  0.000 sec
 * total energy  :   -14.3256294 Eh     change       -0.4734237E-05 Eh
   gradient norm :     0.0008261 Eh/α   predicted    -0.3204163E-05 ( -32.32%)
   displ. norm   :     0.0013437 α      lambda       -0.5487361E-06
   maximum displ.:     0.0008379 α      in ANC's #4, #11, #8, ...

   *** GEOMETRY OPTIMIZATION CONVERGED AFTER 7 ITERATIONS ***

------------------------------------------------------------------------
 total energy gain   :        -0.0141994 Eh       -8.9103 kcal/mol
 total RMSD          :         0.1012416 a0        0.0536 Å
 total power (kW/mol):        -5.3258005 (step)-2527.9882 (real)
------------------------------------------------------------------------

 ANCopt (total)                0 d,  0 h,  0 min,  0.015 sec
 optimizer setup                ...        0 min,  0.000 sec (  0.583%)
 model hessian                  ...        0 min,  0.001 sec (  4.356%)
 ANC generation                 ...        0 min,  0.000 sec (  0.522%)
 coordinate transformation      ...        0 min,  0.000 sec (  0.323%)
 single point calculation       ...        0 min,  0.011 sec ( 73.112%)
 optimization log               ...        0 min,  0.002 sec ( 16.834%)
 hessian update                 ...        0 min,  0.000 sec (  0.368%)
 rational function              ...        0 min,  0.000 sec (  1.924%)

================
 final structure:
================
6
 xtb: 6.7.1 (edcfbbe)
N           -6.59538034200512       -2.95191763001116        3.29779150450421
C           -5.55981575465866       -2.68625674141635        2.54338906645712
H           -5.69185342669167       -2.59334756334640        1.48081139676904
O           -7.74305688315162       -3.09534901276900        2.77303794180119
H           -4.59318239505476       -2.56762576715991        2.99802673543566
O           -6.45283419843817       -3.06512828529717        4.55475635503277
 
 Bond Distances (Angstroems)
 ---------------------------
N1-C2=1.3085         N1-O4=1.2701         N1-O6=1.2701         C2-N1=1.3085         C2-H3=1.0748         C2-H5=1.0748         
H3-C2=1.0748         O4-N1=1.2701         H5-C2=1.0748         O6-N1=1.2701         
 C  H  Rav=1.0748 sigma=0.0000  Rmin=1.0748  Rmax=1.0748     2
 N  C  Rav=1.3085 sigma=0.0000  Rmin=1.3085  Rmax=1.3085     1
 O  N  Rav=1.2701 sigma=0.0000  Rmin=1.2701  Rmax=1.2701     2
 
 selected bond angles (degree)
 --------------------
O4-N1-C2=119.99                O6-N1-C2=119.99                O6-N1-O4=120.02                H3-C2-N1=119.36                
H5-C2-N1=119.36                H5-C2-H3=121.28                
 
 selected dihedral angles (degree)
 ---------------------------------
H3-C2-N1-O4=359.89            H3-C2-N1-O6=179.95            H5-C2-N1-O4=180.05            H5-C2-N1-O6=  0.11            
           -------------------------------------------------
          |                Final Singlepoint                |
           -------------------------------------------------

          ...................................................
          :                      SETUP                      :
          :.................................................:
          :  # basis functions                  18          :
          :  # atomic orbitals                  18          :
          :  # shells                           10          :
          :  # electrons                        24          :
          :  max. iterations                   250          :
          :  Hamiltonian                  GFN2-xTB          :
          :  restarted?                      false          :
          :  GBSA solvation                  false          :
          :  PC potential                    false          :
          :  electronic temp.          300.0000000     K    :
          :  accuracy                    1.0000000          :
          :  -> integral cutoff          0.2500000E+02      :
          :  -> integral neglect         0.1000000E-07      :
          :  -> SCF convergence          0.1000000E-05 Eh   :
          :  -> wf. convergence          0.1000000E-03 e    :
          :  Broyden damping             0.4000000          :
          :  net charge                         -1          :
          :  unpaired electrons                  0          :
          ...................................................

 iter      E             dE          RMSdq      gap      omega  full diag
   1    -14.4162464 -0.144162E+02  0.107E-05    3.99       0.0  T
   2    -14.4162464 -0.888178E-14  0.598E-06    3.99    6827.2  T
   3    -14.4162464  0.124345E-13  0.376E-06    3.99   10862.5  T

   *** convergence criteria satisfied after 3 iterations ***

         #    Occupation            Energy/Eh            Energy/eV
      -------------------------------------------------------------
         1        2.0000           -0.4829412             -13.1415
       ...           ...                  ...                  ...
         6        2.0000           -0.3318673              -9.0306
         7        2.0000           -0.3291949              -8.9579
         8        2.0000           -0.2756367              -7.5005
         9        2.0000           -0.1917182              -5.2169
        10        2.0000           -0.1778119              -4.8385
        11        2.0000           -0.1715327              -4.6676
        12        2.0000           -0.1506178              -4.0985 (HOMO)
        13                         -0.0039265              -0.1068 (LUMO)
        14                          0.2738457               7.4517
        15                          0.3626393               9.8679
        16                          0.3817920              10.3891
        17                          0.6408357              17.4380
        18                          0.6409679              17.4416
      -------------------------------------------------------------
                  HL-Gap            0.1466913 Eh            3.9917 eV
             Fermi-level           -0.0772722 Eh           -2.1027 eV

 SCC (total)                   0 d,  0 h,  0 min,  0.001 sec
 SCC setup                      ...        0 min,  0.000 sec (  6.119%)
 Dispersion                     ...        0 min,  0.000 sec (  1.647%)
 classical contributions        ...        0 min,  0.000 sec (  0.711%)
 integral evaluation            ...        0 min,  0.000 sec ( 19.386%)
 iterations                     ...        0 min,  0.000 sec ( 27.788%)
 molecular gradient             ...        0 min,  0.000 sec ( 37.594%)
 printout                       ...        0 min,  0.000 sec (  4.697%)

         :::::::::::::::::::::::::::::::::::::::::::::::::::::
         ::                     SUMMARY                     ::
         :::::::::::::::::::::::::::::::::::::::::::::::::::::
         :: total energy             -14.325629393355 Eh    ::
         :: gradient norm              0.000827794264 Eh/a0 ::
         :: HOMO-LUMO gap              3.991674372599 eV    ::
         ::.................................................::
         :: SCC energy               -14.416246318843 Eh    ::
         :: -> isotropic ES            0.206372503809 Eh    ::
         :: -> anisotropic ES          0.003979545637 Eh    ::
         :: -> anisotropic XC         -0.004837216315 Eh    ::
         :: -> dispersion             -0.002732580627 Eh    ::
         :: repulsion energy           0.090616925489 Eh    ::
         :: add. restraining           0.000000000000 Eh    ::
         :: total charge              -1.000000000000 e     ::
         :::::::::::::::::::::::::::::::::::::::::::::::::::::

           ------------------------------------------------- 
          |                Numerical Hessian                |
           ------------------------------------------------- 
step length          :   0.00500
SCC accuracy         :   0.30000
Hessian scale factor :   1.00000
frozen atoms in %    :   0.00000    0
RMS gradient         :   0.00083
estimated CPU  time      0.00 min
estimated wall time      0.00 min

writing file <hessian>.

 projected vibrational frequencies (cm⁻¹)
eigval :       -0.00    -0.00    -0.00     0.00     0.00     0.00
eigval :      473.91   505.43   618.51   631.01   702.46  1048.78
eigval :     1060.08  1358.95  1411.09  1605.92  3097.62  3136.27
           -------------------------------------------------
          |                Property Printout                |
           -------------------------------------------------

    * Orbital Energies and Occupations

         #    Occupation            Energy/Eh            Energy/eV
      -------------------------------------------------------------
         1        2.0000           -0.4829412             -13.1415
         2        2.0000           -0.4671756             -12.7125
         3        2.0000           -0.4332596             -11.7896
         4        2.0000           -0.3643802              -9.9153
         5        2.0000           -0.3563416              -9.6965
         6        2.0000           -0.3318673              -9.0306
         7        2.0000           -0.3291950              -8.9579
         8        2.0000           -0.2756367              -7.5005
         9        2.0000           -0.1917182              -5.2169
        10        2.0000           -0.1778119              -4.8385
        11        2.0000           -0.1715327              -4.6676
        12        2.0000           -0.1506179              -4.0985 (HOMO)
        13                         -0.0039265              -0.1068 (LUMO)
        14                          0.2738457               7.4517
        15                          0.3626392               9.8679
        16                          0.3817920              10.3891
        17                          0.6408357              17.4380
        18                          0.6409679              17.4416
      -------------------------------------------------------------
                  HL-Gap            0.1466913 Eh            3.9917 eV
             Fermi-level           -0.0772722 Eh           -2.1027 eV

     #   Z          covCN         q      C6AA      α(0)
     1   7 N        2.755     0.440    14.727     5.700
     2   6 C        2.783    -0.172    32.454     9.331
     3   1 H        0.926    -0.017     3.376     2.873
     4   8 O        0.933    -0.617    26.482     6.902
     5   1 H        0.926    -0.017     3.376     2.873
     6   8 O        0.933    -0.617    26.482     6.902

 Mol. C6AA /au·bohr⁶  :        548.400988
 Mol. C8AA /au·bohr⁸  :      11513.700325
 Mol. α(0) /au        :         34.580296


Wiberg/Mayer (AO) data.
largest (>0.10) Wiberg bond orders for each atom

 ---------------------------------------------------------------------------
     #   Z sym  total        # sym  WBO       # sym  WBO       # sym  WBO
 ---------------------------------------------------------------------------
     1   7 N    3.884 --     2 C    1.455     6 O    1.213     4 O    1.213
     2   6 C    3.855 --     1 N    1.455     3 H    0.980     5 H    0.980
                             6 O    0.221     4 O    0.221
     3   1 H    1.000 --     2 C    0.980
     4   8 O    1.608 --     1 N    1.213     2 C    0.221     6 O    0.156
     5   1 H    1.000 --     2 C    0.980
     6   8 O    1.608 --     1 N    1.213     2 C    0.221     4 O    0.156
 ---------------------------------------------------------------------------

Topologies differ in total number of bonds
Writing topology from bond orders to xtbtopo.mol

molecular dipole:
                 x           y           z       tot (Debye)
 q only:       13.204       5.767      -6.771
   full:       13.401       5.816      -6.915      41.081
molecular quadrupole (traceless):
                xx          xy          yy          xz          yz          zz
 q only:     -135.910    -114.848      80.590     131.851      58.896      55.319
  q+dip:     -139.751    -117.488      84.108     135.585      60.573      55.643
   full:     -139.868    -117.552      84.193     135.815      60.621      55.675

           -------------------------------------------------
          |                Geometry Summary                 |
           -------------------------------------------------

      molecular mass/u    :       60.0321304
   center of mass at/Å    :       -6.6072918      -2.9546523       3.3064898
  moments of inertia/u·Å² :        0.4023917E+02   0.4048821E+02   0.8072738E+02
rotational constants/cm⁻¹ :        0.4189359E+00   0.4163590E+00   0.2088218E+00

 * 3 selected distances

     #   Z          #   Z                                           value/Å
     1   7 N        2   6 C                                       1.3084697 (max)
     2   6 C        3   1 H                                       1.0747733 (min)
     2   6 C        5   1 H                                       1.0747786

 * 2 distinct bonds (by element types)

   Z      Z             #   av. dist./Å        max./Å        min./Å
   1 H    6 C           2     1.0747759     1.0747786     1.0747733
   6 C    7 N           1     1.3084697     1.3084697     1.3084697

           -------------------------------------------------
          |               Frequency Printout                |
           -------------------------------------------------
 projected vibrational frequencies (cm⁻¹)
eigval :       -0.00    -0.00    -0.00     0.00     0.00     0.00
eigval :      473.91   505.43   618.51   631.01   702.46  1048.78
eigval :     1060.08  1358.95  1411.09  1605.92  3097.62  3136.27
 reduced masses (amu)
   1: 14.97   2: 12.92   3: 15.07   4: 13.76   5: 11.03   6: 14.99   7:  4.17   8:  9.86
   9:  1.66  10: 14.84  11: 13.28  12: 13.45  13:  6.41  14:  3.32  15: 14.04  16: 12.77
  17:  1.42  18:  2.13
 IR intensities (km·mol⁻¹)
   1: 11.51   2:  7.84   3: 14.75   4: 11.70   5:  2.58   6: 13.86   7: 73.70   8:  2.62
   9:  0.00  10: 12.72  11: 58.88  12: 46.68  13: 25.53  14: 99.66  15:434.57  16:403.35
  17: 30.81  18:126.36
 Raman intensities (Ä⁴*amu⁻¹)
   1:  0.00   2:  0.00   3:  0.00   4:  0.00   5:  0.00   6:  0.00   7:  0.00   8:  0.00
   9:  0.00  10:  0.00  11:  0.00  12:  0.00  13:  0.00  14:  0.00  15:  0.00  16:  0.00
  17:  0.00  18:  0.00
 output can be read by thermo (or use thermo option).
 writing <g98.out> molden fake output.
 recommended (thermochemical) frequency scaling factor: 1.0
           -------------------------------------------------
          |             Thermodynamic Functions             |
           -------------------------------------------------

Molecule has the following symmetry elements: (C2) 2*(sigma) 
It seems to be the C2v point group
c2v symmetry found (for desy threshold:  0.10E+00) used in thermo

          ...................................................
          :                      SETUP                      :
          :.................................................:
          :  # frequencies                          12      :
          :  # imaginary freq.                       0      :
          :  linear?                             false      :
          :  only rotor calc.                    false      :
          :  symmetry                              c2v      :
          :  rotational number                       2      :
          :  scaling factor                  1.0000000      :
          :  rotor cutoff                   50.0000000 cm⁻¹ :
          :  imag. cutoff                  -20.0000000 cm⁻¹ :
          :.................................................:

    mode    ω/cm⁻¹     T·S(HO)/kcal·mol⁻¹    T·S(FR)/kcal·mol⁻¹   T·S(vib)
   ------------------------------------------------------------------------
   ------------------------------------------------------------------------

   temp. (K)  partition function   enthalpy   heat capacity  entropy
                                   cal/mol     cal/K/mol   cal/K/mol   J/K/mol
 298.15  VIB   1.42                  595.123      6.248      2.689
         ROT  0.139E+05              888.752      2.981     21.932
         INT  0.196E+05             1483.875      9.229     24.621
         TR   0.450E+27             1481.254      4.968     38.180
         TOT                        2965.1289    14.1971    62.8005   262.7574

       T/K    H(0)-H(T)+PV         H(T)/Eh          T*S/Eh         G(T)/Eh
   ------------------------------------------------------------------------
    298.15    0.472523E-02    0.403786E-01    0.298386E-01    0.105401E-01
   ------------------------------------------------------------------------

         :::::::::::::::::::::::::::::::::::::::::::::::::::::
         ::                  THERMODYNAMIC                  ::
         :::::::::::::::::::::::::::::::::::::::::::::::::::::
         :: total free energy         -14.315089320955 Eh   ::
         ::.................................................::
         :: total energy              -14.325629393355 Eh   ::
         :: zero point energy           0.035653392984 Eh   ::
         :: G(RRHO) w/o ZPVE           -0.025113320584 Eh   ::
         :: G(RRHO) contrib.            0.010540072400 Eh   ::
         :::::::::::::::::::::::::::::::::::::::::::::::::::::

optimized geometry written to: xtbopt.xyz


           -------------------------------------------------
          | TOTAL ENERGY              -14.325629393355 Eh   |
          | TOTAL ENTHALPY            -14.285250766763 Eh   |
          | TOTAL FREE ENERGY         -14.315089320955 Eh   |
          | GRADIENT NORM               0.000827879461 Eh/α |
          | HOMO-LUMO GAP               3.991674601128 eV   |
           -------------------------------------------------

------------------------------------------------------------------------
 * finished run on 2025/10/18 at 05:21:56.168     
------------------------------------------------------------------------
 total:
 * wall-time:     0 d,  0 h,  0 min,  0.176 sec
 *  cpu-time:     0 d,  0 h,  0 min,  0.230 sec
 * ratio c/w:     1.308 speedup
 SCF:
 * wall-time:     0 d,  0 h,  0 min,  0.025 sec
 *  cpu-time:     0 d,  0 h,  0 min,  0.030 sec
 * ratio c/w:     1.194 speedup
 ANC optimizer:
 * wall-time:     0 d,  0 h,  0 min,  0.023 sec
 *  cpu-time:     0 d,  0 h,  0 min,  0.037 sec
 * ratio c/w:     1.644 speedup
 analytical hessian:
 * wall-time:     0 d,  0 h,  0 min,  0.088 sec
 *  cpu-time:     0 d,  0 h,  0 min,  0.121 sec
 * ratio c/w:     1.383 speedup

