 Entering Gaussian System
 *********************************************
 Gaussian 98:
 frequency output generated by the xtb code
 *********************************************
                         Standard orientation:
 --------------------------------------------------------------------
  Center     Atomic     Atomic              Coordinates (Angstroms)
  Number     Number      Type              X           Y           Z
 --------------------------------------------------------------------
    1          6             0       -4.492127   -3.728454   -3.190009
    2          6             0       -3.485434   -2.696577   -2.708928
    3          6             0       -4.036067   -1.740264   -1.565685
    4          8             0       -3.166309   -0.917192   -1.073792
    5          8             0       -5.315468   -3.192484   -4.212332
    6          6             0       -6.362406   -4.040583   -4.560685
    7          1             0       -5.992390   -5.007951   -4.940587
    8          1             0       -7.023527   -4.244304   -3.704487
    9          1             0       -6.934851   -3.544334   -5.345011
   10          1             0       -3.989011   -4.634143   -3.588887
   11          1             0       -5.122971   -4.050366   -2.342810
   12          1             0       -2.607294   -3.209731   -2.308662
   13          1             0       -3.166888   -2.081484   -3.551190
   14          1             0       -4.963527   -1.248601   -2.031755
   15          1             0       -4.490485   -2.480666   -0.792592
 --------------------------------------------------------------------
     1 basis functions        1 primitive gaussians
     1 alpha electrons        1 beta electrons
 
 Harmonic frequencies (cm**-1), IR intensities (km*mol⁻¹),
 Raman scattering activities (A**4/amu), Raman depolarization ratios,
 reduced masses (AMU), force constants (mDyne/A) and normal coordinates:
                      1                      2                      3
                        a                      a                      a 
 Frequencies --    58.2274                77.1317                96.0880
 Red. masses --     8.9129                 9.1900                10.4692
 Frc consts  --     0.0000                 0.0000                 0.0000
 IR Inten    --     3.9699                 3.3423                 5.8627
 Raman Activ --     0.0000                 0.0000                 0.0000
 Depolar     --     0.0000                 0.0000                 0.0000
 Atom AN      X      Y      Z        X      Y      Z        X      Y      Z
   1   6    -0.29   0.17   0.16     0.08  -0.02  -0.03    -0.06  -0.10   0.08
   2   6    -0.21   0.22  -0.07     0.04   0.04  -0.06     0.04  -0.21   0.13
   3   6     0.16  -0.02   0.30     0.01  -0.21   0.14     0.09  -0.29   0.21
   4   8     0.31   0.02   0.06    -0.23   0.11  -0.05    -0.14   0.34  -0.45
   5   8    -0.05  -0.13  -0.22     0.36  -0.19  -0.35    -0.05   0.16   0.23
   6   6     0.09  -0.25  -0.25    -0.21   0.24   0.27     0.09   0.14  -0.20
   7   1     0.07  -0.10   0.04    -0.23  -0.07   0.25     0.07   0.10  -0.17
   8   1    -0.04  -0.01  -0.11    -0.09   0.35   0.12     0.02  -0.09  -0.09
   9   1     0.08  -0.14  -0.16     0.02   0.02  -0.01     0.02   0.11  -0.01
  10   1    -0.10  -0.01   0.17     0.02  -0.05   0.08    -0.04  -0.02  -0.02
  11   1    -0.14   0.17   0.05    -0.03   0.07  -0.02    -0.01  -0.05   0.02
  12   1     0.01   0.08  -0.15     0.06   0.04  -0.08     0.02  -0.08   0.00
  13   1    -0.19   0.11  -0.03    -0.06   0.06  -0.01    -0.01  -0.04   0.05
  14   1    -0.03  -0.02   0.22    -0.09  -0.16   0.12    -0.11  -0.25   0.16
  15   1     0.17  -0.05   0.11     0.14  -0.13   0.06     0.25  -0.11   0.16
                      4                      5                      6
                        a                      a                      a 
 Frequencies --   227.7148               268.6772               283.8461
 Red. masses --     3.9628                 8.8079                 8.6801
 Frc consts  --     0.0000                 0.0000                 0.0000
 IR Inten    --     3.6602                 5.5095                 2.3935
 Raman Activ --     0.0000                 0.0000                 0.0000
 Depolar     --     0.0000                 0.0000                 0.0000
 Atom AN      X      Y      Z        X      Y      Z        X      Y      Z
   1   6     0.02   0.06  -0.07    -0.13   0.03   0.37    -0.20   0.34  -0.08
   2   6     0.11  -0.06  -0.04     0.18   0.05  -0.39     0.28  -0.20   0.05
   3   6     0.03  -0.09  -0.07     0.08  -0.12  -0.29     0.16  -0.12  -0.03
   4   8    -0.08  -0.03  -0.01    -0.26  -0.10   0.13    -0.16   0.10   0.13
   5   8    -0.22   0.24   0.21     0.09   0.01   0.27    -0.11   0.20  -0.33
   6   6     0.09  -0.07   0.02     0.09   0.11  -0.04     0.05  -0.22   0.18
   7   1     0.13  -0.16   0.47     0.03   0.06  -0.08     0.08  -0.02   0.02
   8   1    -0.27   0.30  -0.14     0.01  -0.03  -0.04     0.16  -0.13   0.15
   9   1     0.31  -0.28  -0.37     0.05   0.10   0.02    -0.16  -0.14   0.13
  10   1    -0.01   0.04  -0.11    -0.16  -0.11   0.22    -0.17   0.00   0.06
  11   1     0.06  -0.04  -0.00    -0.05   0.21   0.17    -0.12   0.23  -0.01
  12   1     0.01  -0.05   0.00     0.13   0.08  -0.21    -0.04  -0.22   0.08
  13   1     0.07  -0.02  -0.00    -0.12  -0.00  -0.19     0.25  -0.09   0.06
  14   1     0.01  -0.04  -0.04     0.02  -0.05  -0.11     0.04  -0.09  -0.06
  15   1     0.01  -0.04  -0.03     0.01  -0.10  -0.15     0.05  -0.05  -0.02
                      7                      8                      9
                        a                      a                      a 
 Frequencies --   364.5262               535.4591               742.4361
 Red. masses --    12.1179                 9.7542                 3.4990
 Frc consts  --     0.0000                 0.0000                 0.0000
 IR Inten    --     5.5678                 1.7010                 4.2238
 Raman Activ --     0.0000                 0.0000                 0.0000
 Depolar     --     0.0000                 0.0000                 0.0000
 Atom AN      X      Y      Z        X      Y      Z        X      Y      Z
   1   6    -0.08   0.11   0.05     0.21   0.37   0.16    -0.04  -0.02  -0.06
   2   6    -0.25   0.08   0.05     0.27   0.28   0.22    -0.17   0.12  -0.31
   3   6    -0.29  -0.14  -0.05    -0.14  -0.16  -0.05    -0.05   0.14  -0.06
   4   8     0.07  -0.39  -0.41     0.00  -0.27  -0.26     0.02  -0.03   0.08
   5   8     0.21   0.30  -0.00    -0.12  -0.20   0.04     0.07  -0.09   0.12
   6   6     0.33   0.03   0.28    -0.22  -0.05  -0.16     0.08   0.05   0.04
   7   1     0.15   0.02   0.11    -0.11  -0.01  -0.10     0.01   0.01  -0.00
   8   1     0.17  -0.01   0.14    -0.12  -0.01  -0.10     0.00   0.01  -0.00
   9   1    -0.01  -0.08   0.10     0.02   0.08  -0.05     0.05   0.04   0.01
  10   1    -0.05   0.01   0.04     0.07   0.08   0.13    -0.01  -0.02   0.01
  11   1    -0.07   0.06  -0.01     0.10   0.18   0.10     0.04   0.02   0.04
  12   1    -0.04   0.08   0.02    -0.01   0.04   0.19    -0.32  -0.09   0.36
  13   1    -0.11   0.06   0.03     0.24   0.11   0.15     0.40  -0.27  -0.13
  14   1    -0.09   0.00   0.04    -0.06  -0.05   0.01    -0.18   0.01   0.34
  15   1    -0.08  -0.02   0.02    -0.03  -0.06  -0.00     0.28  -0.22  -0.07
                     10                     11                     12
                        a                      a                      a 
 Frequencies --   807.5509               919.9334               996.5663
 Red. masses --     9.0473                 8.2796                 6.4734
 Frc consts  --     0.0000                 0.0000                 0.0000
 IR Inten    --    82.7367                16.4719                37.9626
 Raman Activ --     0.0000                 0.0000                 0.0000
 Depolar     --     0.0000                 0.0000                 0.0000
 Atom AN      X      Y      Z        X      Y      Z        X      Y      Z
   1   6    -0.14   0.13   0.14     0.15  -0.34   0.31     0.08  -0.34  -0.34
   2   6    -0.32   0.19   0.29     0.17   0.06   0.17    -0.16   0.23   0.18
   3   6     0.40  -0.26  -0.44    -0.04   0.10  -0.15     0.18  -0.17  -0.21
   4   8    -0.07   0.04   0.09     0.02  -0.05   0.03     0.02   0.10   0.08
   5   8     0.06  -0.05  -0.02    -0.08   0.34  -0.26    -0.06   0.01   0.09
   6   6     0.02  -0.00   0.01    -0.20  -0.06  -0.13     0.02   0.05   0.03
   7   1    -0.02  -0.01  -0.01     0.06  -0.00   0.06     0.07   0.03   0.02
   8   1     0.01   0.02   0.01     0.06  -0.02   0.04    -0.01  -0.04  -0.01
   9   1     0.01   0.02   0.01    -0.21  -0.22  -0.04     0.01  -0.03  -0.02
  10   1     0.26   0.25  -0.07    -0.00  -0.07   0.02    -0.26  -0.34   0.16
  11   1    -0.03  -0.26  -0.08    -0.05  -0.08   0.00    -0.05   0.33   0.03
  12   1    -0.10  -0.02   0.04     0.15   0.31   0.19    -0.05   0.13   0.16
  13   1    -0.07  -0.05   0.00    -0.08  -0.17  -0.14     0.06   0.27   0.24
  14   1     0.05  -0.08  -0.07    -0.11  -0.02   0.16     0.04   0.00  -0.02
  15   1     0.09  -0.10  -0.10     0.16  -0.13  -0.04     0.00   0.01  -0.02
                     13                     14                     15
                        a                      a                      a 
 Frequencies --  1065.0541              1092.5168              1113.2738
 Red. masses --     9.0263                 7.2995                12.3342
 Frc consts  --     0.0000                 0.0000                 0.0000
 IR Inten    --    35.2598                14.8039               109.4870
 Raman Activ --     0.0000                 0.0000                 0.0000
 Depolar     --     0.0000                 0.0000                 0.0000
 Atom AN      X      Y      Z        X      Y      Z        X      Y      Z
   1   6     0.31   0.05   0.14     0.34   0.28  -0.15     0.35  -0.04   0.27
   2   6    -0.35  -0.08  -0.20    -0.23  -0.39   0.17    -0.21  -0.07  -0.09
   3   6     0.09  -0.13   0.11     0.01   0.17  -0.19     0.08  -0.10   0.09
   4   8    -0.03   0.06  -0.01    -0.01  -0.04   0.07    -0.03   0.03  -0.02
   5   8     0.28   0.27   0.09     0.01   0.08   0.02    -0.49  -0.15  -0.36
   6   6    -0.35  -0.15  -0.20    -0.06  -0.16   0.12     0.30   0.31   0.14
   7   1     0.04  -0.01   0.05    -0.06   0.00  -0.10     0.10   0.07   0.01
   8   1     0.04  -0.02   0.04    -0.19  -0.08  -0.12     0.00  -0.02  -0.03
   9   1    -0.22  -0.21  -0.06     0.20   0.19   0.01     0.04  -0.00  -0.01
  10   1     0.10  -0.01   0.12    -0.02  -0.05   0.10     0.06  -0.00   0.07
  11   1     0.17   0.13   0.14    -0.04   0.26  -0.05     0.15   0.09   0.13
  12   1    -0.20  -0.22  -0.05     0.08   0.10  -0.04    -0.09  -0.04   0.03
  13   1     0.07  -0.00   0.03    -0.29  -0.16  -0.10     0.01  -0.08  -0.04
  14   1     0.11   0.05  -0.10    -0.11  -0.03   0.15     0.08   0.04  -0.07
  15   1    -0.12   0.08   0.02     0.16  -0.07   0.01    -0.09   0.05   0.01
                     16                     17                     18
                        a                      a                      a 
 Frequencies --  1141.8570              1164.1610              1203.5827
 Red. masses --     3.9940                 5.3777                 5.7344
 Frc consts  --     0.0000                 0.0000                 0.0000
 IR Inten    --     6.5658                72.0132                 4.3486
 Raman Activ --     0.0000                 0.0000                 0.0000
 Depolar     --     0.0000                 0.0000                 0.0000
 Atom AN      X      Y      Z        X      Y      Z        X      Y      Z
   1   6    -0.08  -0.01  -0.01    -0.00   0.06  -0.01     0.05   0.19  -0.27
   2   6     0.06   0.07  -0.01     0.00  -0.17   0.10     0.02   0.01   0.10
   3   6    -0.01  -0.02   0.05    -0.05   0.33  -0.25     0.04  -0.09   0.13
   4   8    -0.00  -0.00  -0.02    -0.01  -0.13   0.06    -0.02   0.02  -0.05
   5   8     0.19  -0.09  -0.10    -0.03  -0.22   0.05    -0.06  -0.26   0.26
   6   6    -0.28   0.17   0.27     0.00   0.26  -0.12     0.01   0.23  -0.19
   7   1     0.51   0.28   0.00     0.18   0.06   0.13     0.11   0.01   0.16
   8   1    -0.29  -0.44  -0.23     0.16  -0.01   0.09     0.21   0.04   0.13
   9   1     0.10  -0.11  -0.15    -0.22  -0.24  -0.06    -0.24  -0.22  -0.04
  10   1     0.07   0.02   0.03     0.04   0.03   0.01     0.13  -0.02   0.20
  11   1    -0.08  -0.06  -0.08     0.16   0.01   0.12    -0.20   0.12  -0.18
  12   1     0.00  -0.01  -0.01     0.01  -0.24  -0.25     0.07   0.17   0.08
  13   1     0.03  -0.04  -0.04    -0.05   0.26   0.23    -0.11  -0.34  -0.28
  14   1     0.01   0.00  -0.03    -0.20  -0.13   0.13     0.07   0.06  -0.04
  15   1    -0.03   0.00  -0.01     0.25  -0.04   0.07    -0.10  -0.02  -0.05
                     19                     20                     21
                        a                      a                      a 
 Frequencies --  1229.7127              1238.8165              1276.3262
 Red. masses --     8.8443                 7.1056                 3.8921
 Frc consts  --     0.0000                 0.0000                 0.0000
 IR Inten    --   231.6106               205.9884                22.1318
 Raman Activ --     0.0000                 0.0000                 0.0000
 Depolar     --     0.0000                 0.0000                 0.0000
 Atom AN      X      Y      Z        X      Y      Z        X      Y      Z
   1   6    -0.08   0.21   0.03    -0.11   0.10  -0.04     0.03  -0.06  -0.07
   2   6    -0.03  -0.22  -0.09    -0.04  -0.03   0.07    -0.02   0.35   0.28
   3   6    -0.33  -0.35  -0.17     0.43   0.19   0.16    -0.15  -0.03  -0.02
   4   8     0.31   0.31   0.18    -0.32  -0.22  -0.17     0.12   0.01   0.05
   5   8     0.08  -0.13  -0.00     0.11  -0.09  -0.02     0.04  -0.01  -0.03
   6   6    -0.04   0.07  -0.04    -0.04   0.02  -0.02    -0.01  -0.02   0.01
   7   1     0.07   0.02   0.04     0.04   0.01   0.01     0.00  -0.00  -0.01
   8   1     0.04  -0.02   0.02     0.02  -0.02   0.01     0.00  -0.00  -0.00
   9   1    -0.05  -0.06  -0.02    -0.02  -0.02  -0.01     0.02   0.02   0.00
  10   1    -0.19   0.05  -0.24    -0.31  -0.01  -0.33    -0.28  -0.10  -0.19
  11   1     0.26  -0.03   0.19     0.33  -0.00   0.24     0.23   0.08   0.18
  12   1     0.06   0.29   0.24     0.05   0.21   0.16    -0.04  -0.28  -0.29
  13   1    -0.09   0.04   0.03    -0.09  -0.05  -0.04    -0.02  -0.39  -0.30
  14   1     0.01  -0.02   0.01     0.08   0.20   0.10    -0.08  -0.26  -0.19
  15   1    -0.01   0.04  -0.04    -0.09  -0.02   0.03     0.05   0.06   0.07
                     22                     23                     24
                        a                      a                      a 
 Frequencies --  1297.4209              1351.8588              1381.8404
 Red. masses --     2.2160                 3.7550                 2.6719
 Frc consts  --     0.0000                 0.0000                 0.0000
 IR Inten    --     9.9734                40.2541               164.0999
 Raman Activ --     0.0000                 0.0000                 0.0000
 Depolar     --     0.0000                 0.0000                 0.0000
 Atom AN      X      Y      Z        X      Y      Z        X      Y      Z
   1   6    -0.04   0.01  -0.02    -0.33  -0.18  -0.24     0.03   0.00   0.03
   2   6    -0.06  -0.02  -0.18     0.08  -0.05   0.07     0.11   0.06  -0.02
   3   6     0.11   0.11   0.02    -0.02  -0.03  -0.01     0.03  -0.23  -0.25
   4   8    -0.05  -0.16   0.07     0.01   0.02  -0.00    -0.09  -0.01   0.05
   5   8     0.00   0.01   0.02    -0.02   0.12  -0.07    -0.01  -0.02   0.01
   6   6    -0.01  -0.00  -0.00     0.02  -0.05   0.05     0.00   0.01  -0.00
   7   1     0.00   0.00   0.00     0.02   0.03  -0.04     0.00  -0.00   0.01
   8   1     0.00   0.00   0.00    -0.01   0.05   0.00     0.01  -0.00   0.00
   9   1     0.00   0.00   0.00     0.07   0.06   0.01    -0.00  -0.00  -0.00
  10   1     0.08   0.03   0.04     0.49   0.13   0.34    -0.03   0.00  -0.04
  11   1    -0.02   0.00  -0.02     0.41   0.18   0.37    -0.08   0.00  -0.06
  12   1    -0.01   0.25   0.26     0.09   0.07  -0.02     0.01  -0.10  -0.11
  13   1     0.04  -0.00  -0.02    -0.02  -0.10  -0.06     0.04  -0.08  -0.08
  14   1    -0.12  -0.46  -0.37    -0.01   0.05   0.08    -0.08   0.32   0.48
  15   1     0.19   0.42   0.43    -0.06   0.02   0.02    -0.08   0.52   0.44
                     25                     26                     27
                        a                      a                      a 
 Frequencies --  1408.4312              1469.8870              1476.9479
 Red. masses --     2.4714                 1.9947                 1.5623
 Frc consts  --     0.0000                 0.0000                 0.0000
 IR Inten    --     4.7087                 1.3531                 0.8990
 Raman Activ --     0.0000                 0.0000                 0.0000
 Depolar     --     0.0000                 0.0000                 0.0000
 Atom AN      X      Y      Z        X      Y      Z        X      Y      Z
   1   6    -0.04  -0.00  -0.04    -0.01   0.00   0.04     0.00   0.01  -0.00
   2   6    -0.00  -0.01   0.01    -0.28  -0.08   0.05    -0.00  -0.00  -0.00
   3   6    -0.00  -0.00  -0.00    -0.01   0.00   0.01    -0.00  -0.00  -0.00
   4   8     0.00   0.00   0.00    -0.00   0.00   0.00    -0.00  -0.00  -0.00
   5   8     0.09   0.04   0.05     0.01  -0.02   0.01    -0.02   0.02   0.02
   6   6     0.27   0.15   0.13    -0.01   0.01  -0.02    -0.13   0.09   0.16
   7   1    -0.48  -0.12  -0.18     0.01  -0.01   0.03    -0.27   0.05  -0.39
   8   1    -0.36  -0.20  -0.32     0.02  -0.02   0.01     0.36  -0.12   0.25
   9   1    -0.35  -0.44  -0.01     0.01   0.02   0.00     0.41  -0.31  -0.50
  10   1     0.02   0.03  -0.02     0.00   0.05  -0.08    -0.01  -0.01   0.03
  11   1     0.01   0.05   0.02    -0.04   0.05  -0.01     0.01  -0.03  -0.00
  12   1     0.02   0.02  -0.01     0.39   0.36  -0.41     0.00   0.01  -0.00
  13   1     0.01  -0.02  -0.01     0.64  -0.15   0.14     0.01  -0.00   0.00
  14   1    -0.00  -0.00   0.00     0.02   0.02  -0.01     0.01   0.01  -0.00
  15   1    -0.00   0.00   0.00     0.03  -0.01  -0.00     0.01   0.00   0.00
                     28                     29                     30
                        a                      a                      a 
 Frequencies --  1494.6857              1506.1956              1510.1649
 Red. masses --     1.8084                 1.5918                 1.7558
 Frc consts  --     0.0000                 0.0000                 0.0000
 IR Inten    --     9.4793                 2.3571               122.3195
 Raman Activ --     0.0000                 0.0000                 0.0000
 Depolar     --     0.0000                 0.0000                 0.0000
 Atom AN      X      Y      Z        X      Y      Z        X      Y      Z
   1   6    -0.01  -0.23   0.09    -0.01   0.05  -0.03     0.01   0.02   0.01
   2   6     0.03  -0.00  -0.02     0.00   0.00  -0.00    -0.01  -0.03  -0.04
   3   6     0.01   0.01   0.01     0.01  -0.00  -0.00     0.20   0.06  -0.02
   4   8     0.02   0.01   0.00     0.00   0.00   0.00     0.10   0.07   0.03
   5   8     0.03  -0.03   0.04     0.00   0.08  -0.04    -0.00  -0.00   0.00
   6   6    -0.04   0.06  -0.05    -0.03   0.15  -0.12     0.00  -0.01   0.01
   7   1    -0.07  -0.09   0.16    -0.27  -0.30   0.49     0.01   0.02  -0.03
   8   1     0.10  -0.20   0.03     0.15  -0.61  -0.02    -0.01   0.04   0.00
   9   1     0.08   0.06  -0.03     0.14   0.20   0.01    -0.01  -0.02  -0.00
  10   1     0.21   0.35  -0.48    -0.04  -0.11   0.19    -0.03  -0.03   0.03
  11   1    -0.23   0.59   0.04     0.11  -0.20   0.01    -0.00  -0.06  -0.02
  12   1    -0.05  -0.05   0.05    -0.00  -0.00  -0.00     0.02   0.03  -0.01
  13   1    -0.07   0.03  -0.01    -0.00  -0.00  -0.00     0.04  -0.00   0.01
  14   1    -0.04  -0.04   0.01    -0.02  -0.01   0.01    -0.45  -0.43   0.26
  15   1    -0.07  -0.03  -0.02    -0.02   0.01  -0.00    -0.66   0.03  -0.17
                     31                     32                     33
                        a                      a                      a 
 Frequencies --  2032.4785              2306.2770              2721.0226
 Red. masses --     1.6699                 1.3554                 1.8201
 Frc consts  --     0.0000                 0.0000                 0.0000
 IR Inten    --   626.7218               434.5690               173.9774
 Raman Activ --     0.0000                 0.0000                 0.0000
 Depolar     --     0.0000                 0.0000                 0.0000
 Atom AN      X      Y      Z        X      Y      Z        X      Y      Z
   1   6    -0.00   0.00   0.00    -0.00  -0.00  -0.00    -0.15   0.16   0.15
   2   6    -0.00   0.02  -0.04    -0.02   0.02   0.02     0.00   0.00   0.01
   3   6    -0.07   0.13  -0.18    -0.10   0.08   0.01     0.00  -0.00  -0.00
   4   8     0.03   0.04   0.01    -0.07  -0.06  -0.04     0.00   0.00   0.00
   5   8     0.00  -0.00   0.00     0.00  -0.00  -0.00    -0.02   0.01  -0.01
   6   6     0.00   0.00   0.00     0.00  -0.00   0.00     0.01  -0.01  -0.00
   7   1    -0.00   0.00   0.00    -0.00   0.00   0.00    -0.02   0.02   0.01
   8   1    -0.00  -0.00  -0.00    -0.00  -0.00   0.00     0.01   0.00  -0.00
   9   1    -0.00   0.00   0.00     0.00   0.00  -0.00    -0.00   0.00  -0.00
  10   1    -0.01  -0.00   0.01     0.00   0.00  -0.00     0.44  -0.74  -0.33
  11   1    -0.00  -0.01  -0.02    -0.00   0.00   0.01     0.13   0.12  -0.19
  12   1    -0.01   0.01   0.01    -0.01   0.01   0.00    -0.03   0.01  -0.02
  13   1     0.02  -0.01  -0.02    -0.00   0.00   0.00    -0.00  -0.00   0.00
  14   1     0.43  -0.18   0.09     0.63  -0.43   0.40     0.00  -0.00  -0.00
  15   1    -0.31  -0.49   0.61     0.07   0.33  -0.34     0.00  -0.00  -0.00
                     34                     35                     36
                        a                      a                      a 
 Frequencies --  2816.2945              2820.8596              2867.2688
 Red. masses --     1.6374                 1.7445                 1.4767
 Frc consts  --     0.0000                 0.0000                 0.0000
 IR Inten    --    87.9263               101.9507                93.2951
 Raman Activ --     0.0000                 0.0000                 0.0000
 Depolar     --     0.0000                 0.0000                 0.0000
 Atom AN      X      Y      Z        X      Y      Z        X      Y      Z
   1   6    -0.09  -0.08   0.12     0.07   0.07  -0.09     0.00   0.01  -0.01
   2   6    -0.01  -0.00  -0.00     0.01   0.00   0.00     0.00  -0.00   0.00
   3   6    -0.00   0.00   0.00    -0.00  -0.00  -0.00     0.00  -0.00  -0.00
   4   8    -0.00  -0.00  -0.00     0.00   0.00   0.00     0.00   0.00   0.00
   5   8     0.01  -0.00   0.02    -0.00   0.02  -0.01     0.02   0.02  -0.00
   6   6    -0.09   0.11   0.08    -0.12   0.13   0.14     0.07   0.12  -0.15
   7   1     0.19  -0.48  -0.18     0.23  -0.59  -0.21     0.17  -0.36  -0.19
   8   1     0.11   0.06  -0.16     0.21   0.10  -0.30    -0.52  -0.13   0.68
   9   1    -0.01   0.01   0.03    -0.02   0.02   0.03     0.03  -0.00   0.00
  10   1    -0.12   0.14   0.10     0.11  -0.13  -0.08     0.02  -0.03  -0.01
  11   1     0.43   0.19  -0.58    -0.32  -0.14   0.43    -0.03  -0.02   0.05
  12   1     0.01  -0.00   0.00    -0.01   0.01  -0.01    -0.01   0.00  -0.00
  13   1    -0.01  -0.01   0.01     0.01   0.01  -0.01     0.00   0.00  -0.01
  14   1     0.01  -0.00   0.00     0.00  -0.00  -0.00     0.00   0.00   0.00
  15   1     0.00   0.00  -0.01    -0.00  -0.00   0.01    -0.00  -0.00   0.00
                     37                     38                     39
                        a                      a                      a 
 Frequencies --  2952.5666              2989.6929              2995.1751
 Red. masses --     1.8176                 1.6526                 1.6728
 Frc consts  --     0.0000                 0.0000                 0.0000
 IR Inten    --   103.7171                62.9962                53.2449
 Raman Activ --     0.0000                 0.0000                 0.0000
 Depolar     --     0.0000                 0.0000                 0.0000
 Atom AN      X      Y      Z        X      Y      Z        X      Y      Z
   1   6    -0.01   0.01  -0.00    -0.01  -0.00   0.01    -0.00  -0.00   0.00
   2   6    -0.19   0.14  -0.13    -0.10  -0.13   0.17    -0.01  -0.01   0.02
   3   6    -0.01   0.01  -0.00    -0.00  -0.00   0.01    -0.00  -0.00   0.00
   4   8     0.00   0.00   0.00     0.00   0.00  -0.00     0.00   0.00   0.00
   5   8     0.00  -0.00   0.00    -0.00  -0.00  -0.00     0.01   0.00   0.01
   6   6     0.00   0.00  -0.00    -0.01   0.01  -0.02     0.13  -0.11   0.18
   7   1     0.00  -0.01  -0.00    -0.00   0.01  -0.00     0.02  -0.04   0.02
   8   1    -0.00  -0.00   0.01     0.00   0.00  -0.01     0.00  -0.03   0.04
   9   1    -0.00   0.00  -0.00     0.05  -0.05   0.07    -0.50   0.45  -0.69
  10   1     0.02  -0.03  -0.01     0.00  -0.00   0.00    -0.01   0.01   0.00
  11   1    -0.01  -0.00   0.01     0.01   0.00  -0.01     0.01   0.00  -0.01
  12   1     0.76  -0.44   0.37     0.11  -0.09   0.09     0.01  -0.01   0.01
  13   1    -0.08  -0.07   0.11     0.26   0.56  -0.73     0.03   0.06  -0.08
  14   1     0.00  -0.00   0.01    -0.00   0.00  -0.00    -0.00   0.00  -0.00
  15   1     0.00  -0.00   0.00    -0.00   0.01  -0.00     0.00   0.00  -0.00
