      -----------------------------------------------------------      
     |                   =====================                   |     
     |                           x T B                           |     
     |                   =====================                   |     
     |                         S. Grimme                         |     
     |          Mulliken Center for Theoretical Chemistry        |     
     |                    University of Bonn                     |     
      -----------------------------------------------------------      

   * xtb version 6.7.1 (edcfbbe) compiled by 'albert@albert-system' on 2024-07-22

   xtb is free software: you can redistribute it and/or modify it under
   the terms of the GNU Lesser General Public License as published by
   the Free Software Foundation, either version 3 of the License, or
   (at your option) any later version.
   
   xtb is distributed in the hope that it will be useful,
   but WITHOUT ANY WARRANTY; without even the implied warranty of
   MERCHANTABILITY or FITNESS FOR A PARTICULAR PURPOSE.  See the
   GNU Lesser General Public License for more details.
   
   Cite this work as:
   * C. Bannwarth, E. Caldeweyher, S. Ehlert, A. Hansen, P. Pracht,
     J. Seibert, S. Spicher, S. Grimme, WIREs Comput. Mol. Sci., 2020, 11,
     e01493. DOI: 10.1002/wcms.1493
   
   for GFN2-xTB:
   * C. Bannwarth, S. Ehlert and S. Grimme., J. Chem. Theory Comput., 2019,
     15, 1652-1671. DOI: 10.1021/acs.jctc.8b01176
   for GFN1-xTB:
   * S. Grimme, C. Bannwarth, P. Shushkov, J. Chem. Theory Comput., 2017,
     13, 1989-2009. DOI: 10.1021/acs.jctc.7b00118
   for GFN0-xTB:
   * P. Pracht, E. Caldeweyher, S. Ehlert, S. Grimme, ChemRxiv, 2019, preprint.
     DOI: 10.26434/chemrxiv.8326202.v1
   for GFN-FF:
   * S. Spicher and S. Grimme, Angew. Chem. Int. Ed., 2020, 59, 15665-15673.
     DOI: 10.1002/anie.202004239
   
   for ALPB and GBSA implicit solvation:
   * S. Ehlert, M. Stahn, S. Spicher, S. Grimme, J. Chem. Theory Comput.,
     2021, 17, 4250-4261. DOI: 10.1021/acs.jctc.1c00471
   
   for ddCOSMO and CPCM-X implicit solvation:
   * M. Stahn, S. Ehlert, S. Grimme, J. Phys. Chem. A,
     2023, XX, XXXX-XXXX. DOI: 10.1021/acs.jpca.3c04382
   
   for DFT-D4:
   * E. Caldeweyher, C. Bannwarth and S. Grimme, J. Chem. Phys., 2017,
     147, 034112. DOI: 10.1063/1.4993215
   * E. Caldeweyher, S. Ehlert, A. Hansen, H. Neugebauer, S. Spicher,
     C. Bannwarth and S. Grimme, J. Chem. Phys., 2019, 150, 154122.
     DOI: 10.1063/1.5090222
   * E. Caldeweyher, J.-M. Mewes, S. Ehlert and S. Grimme, Phys. Chem. Chem. Phys.
     2020, 22, 8499-8512. DOI: 10.1039/D0CP00502A
   
   for sTDA-xTB:
   * S. Grimme and C. Bannwarth, J. Chem. Phys., 2016, 145, 054103.
     DOI: 10.1063/1.4959605
   
   in the mass-spec context:
   * V. Asgeirsson, C. Bauer and S. Grimme, Chem. Sci., 2017, 8, 4879.
     DOI: 10.1039/c7sc00601b
   * J. Koopman and S. Grimme, ACS Omega 2019, 4, 12, 15120-15133.
     DOI: 10.1021/acsomega.9b02011
   
   for metadynamics refer to:
   * S. Grimme, J. Chem. Theory Comput., 2019, 155, 2847-2862
     DOI: 10.1021/acs.jctc.9b00143
   
   for SPH calculations refer to:
   * S. Spicher and S. Grimme, J. Chem. Theory Comput., 2021, 17, 1701-1714
     DOI: 10.1021/acs.jctc.0c01306
   
   for ONIOM refer to:
   * C. Plett, A. Katbashev, S. Ehlert, S. Grimme, M. Bursch,
     Phys. Chem. Chem. Phys., 2023, 25, 17860-17868. DOI: 10.1039/D3CP02178E
   
   for DIPRO refer to:
   * J. Kohn, N. Gildemeister, S. Grimme, D. Fazzi, A. Hansen,
     J. Chem. Phys., 2023, just accepted.
   
   for PTB refer to:
   * S. Grimme, M. Mueller, A. Hansen, J. Chem. Phys., 2023, 158, 124111.
     DOI: 10.1063/5.0137838
   
   with help from (in alphabetical order)
   P. Atkinson, C. Bannwarth, F. Bohle, G. Brandenburg, E. Caldeweyher
   M. Checinski, S. Dohm, S. Ehlert, S. Ehrlich, I. Gerasimov, C. Hölzer
   A. Katbashev, J. Kohn, J. Koopman, C. Lavigne, S. Lehtola, F. März, M. Müller,
   F. Musil, H. Neugebauer, J. Pisarek, C. Plett, P. Pracht, F. Pultar,
   J. Seibert, P. Shushkov, S. Spicher, M. Stahn, M. Steiner, T. Strunk,
   J. Stückrath, T. Rose, and J. Unsleber
   
 * started run on 2025/10/18 at 01:19:10.317     
   ID    Z sym.   atoms
    1    6 C      1-3, 6
    2    8 O      4, 5
    3    1 H      7-15

           -------------------------------------------------
          |                Calculation Setup                |
           -------------------------------------------------

          program call               : xtb xyz.xyz --charge -1 --ohess
          hostname                   : m003
          coordinate file            : xyz.xyz
          omp threads                :                     2


           -------------------------------------------------
          |                 G F N 2 - x T B                 |
           -------------------------------------------------

        Reference                      10.1021/acs.jctc.8b01176
      * Hamiltonian:
        H0-scaling (s, p, d)           1.850000    2.230000    2.230000
        zeta-weighting                 0.500000
      * Dispersion:
        s8                             2.700000
        a1                             0.520000
        a2                             5.000000
        s9                             5.000000
      * Repulsion:
        kExp                           1.500000    1.000000
        rExp                           1.000000
      * Coulomb:
        alpha                          2.000000
        third order                    shell-resolved
        anisotropic                    true
        a3                             3.000000
        a5                             4.000000
        cn-shift                       1.200000
        cn-exp                         4.000000
        max-rad                        5.000000


          ...................................................
          :                      SETUP                      :
          :.................................................:
          :  # basis functions                  33          :
          :  # atomic orbitals                  33          :
          :  # shells                           21          :
          :  # electrons                        38          :
          :  max. iterations                   250          :
          :  Hamiltonian                  GFN2-xTB          :
          :  restarted?                      false          :
          :  GBSA solvation                  false          :
          :  PC potential                    false          :
          :  electronic temp.          300.0000000     K    :
          :  accuracy                    1.0000000          :
          :  -> integral cutoff          0.2500000E+02      :
          :  -> integral neglect         0.1000000E-07      :
          :  -> SCF convergence          0.1000000E-05 Eh   :
          :  -> wf. convergence          0.1000000E-03 e    :
          :  Broyden damping             0.4000000          :
          :  net charge                         -1          :
          :  unpaired electrons                  0          :
          ...................................................

 iter      E             dE          RMSdq      gap      omega  full diag
   1    -21.4762047 -0.214762E+02  0.472E+00   11.11       0.0  T
   2    -21.6076851 -0.131480E+00  0.219E+00    7.71       1.0  T
   3    -21.6114517 -0.376666E-02  0.118E+00    6.68       1.0  T
   4    -21.6119988 -0.547043E-03  0.294E-01    5.94       1.0  T
   5    -21.6121458 -0.147053E-03  0.110E-01    6.12       1.0  T
   6    -21.6121692 -0.233179E-04  0.382E-02    6.19       1.0  T
   7    -21.6121706 -0.143769E-05  0.102E-02    6.19       2.5  T
   8    -21.6121708 -0.226124E-06  0.306E-03    6.19       8.4  T
   9    -21.6121708 -0.128010E-07  0.132E-03    6.19      19.6  T
  10    -21.6121708 -0.182382E-08  0.346E-04    6.19      74.7  T
  11    -21.6121708 -0.258034E-09  0.969E-05    6.19     266.3  T

   *** convergence criteria satisfied after 11 iterations ***

         #    Occupation            Energy/Eh            Energy/eV
      -------------------------------------------------------------
         1        2.0000           -0.5675707             -15.4444
       ...           ...                  ...                  ...
        13        2.0000           -0.2985304              -8.1234
        14        2.0000           -0.2796394              -7.6094
        15        2.0000           -0.2593710              -7.0578
        16        2.0000           -0.2465587              -6.7092
        17        2.0000           -0.2104662              -5.7271
        18        2.0000           -0.0822373              -2.2378
        19        2.0000           -0.0816049              -2.2206 (HOMO)
        20                          0.1459097               3.9704 (LUMO)
        21                          0.2252940               6.1306
        22                          0.2350027               6.3947
        23                          0.2792070               7.5976
        24                          0.2885913               7.8530
       ...                                ...                  ...
        33                          0.5775823              15.7168
      -------------------------------------------------------------
                  HL-Gap            0.2275146 Eh            6.1910 eV
             Fermi-level            0.0321524 Eh            0.8749 eV

 SCC (total)                   0 d,  0 h,  0 min,  0.032 sec
 SCC setup                      ...        0 min,  0.000 sec (  0.775%)
 Dispersion                     ...        0 min,  0.000 sec (  0.464%)
 classical contributions        ...        0 min,  0.000 sec (  0.137%)
 integral evaluation            ...        0 min,  0.001 sec (  3.467%)
 iterations                     ...        0 min,  0.028 sec ( 88.415%)
 molecular gradient             ...        0 min,  0.002 sec (  6.189%)
 printout                       ...        0 min,  0.000 sec (  0.430%)

         :::::::::::::::::::::::::::::::::::::::::::::::::::::
         ::                     SUMMARY                     ::
         :::::::::::::::::::::::::::::::::::::::::::::::::::::
         :: total energy             -21.416609829604 Eh    ::
         :: gradient norm              0.064221093038 Eh/a0 ::
         :: HOMO-LUMO gap              6.190988301528 eV    ::
         ::.................................................::
         :: SCC energy               -21.612163591145 Eh    ::
         :: -> isotropic ES            0.217865138384 Eh    ::
         :: -> anisotropic ES          0.010083390890 Eh    ::
         :: -> anisotropic XC         -0.001935436084 Eh    ::
         :: -> dispersion             -0.008845628240 Eh    ::
         :: repulsion energy           0.195553761541 Eh    ::
         :: add. restraining           0.000000000000 Eh    ::
         :: total charge              -1.000000000000 e     ::
         :::::::::::::::::::::::::::::::::::::::::::::::::::::

      ----------------------------------------------------------- 
     |                   =====================                   |
     |                        A N C O P T                        |
     |                   =====================                   |
     |               Approximate Normal Coordinate               |
     |                Rational Function Optimizer                |
      ----------------------------------------------------------- 
      ----------------------------------------------------------- 
     |                   =====================                   |
     |                        A N C O P T                        |
     |                   =====================                   |
     |               Approximate Normal Coordinate               |
     |                Rational Function Optimizer                |
      ----------------------------------------------------------- 

          ...................................................
          :                      SETUP                      :
          :.................................................:
          :   optimization level            normal          :
          :   max. optcycles                   200          :
          :   ANC micro-cycles                  20          :
          :   degrees of freedom                39          :
          :.................................................:
          :   RF solver                   davidson          :
          :   write xtbopt.log                true          :
          :   linear?                        false          :
          :   energy convergence         0.5000000E-05 Eh   :
          :   grad. convergence          0.1000000E-02 Eh/α :
          :   maxmium RF displ.          1.0000000          :
          :   Hlow (freq-cutoff)         0.1000000E-01      :
          :   Hmax (freq-cutoff)         5.0000000          :
          :   S6 in model hess.         20.0000000          :
          ...................................................

generating ANC from exact Hessian ...
Using Lindh-Hessian (1995)
 Shifting diagonal of input Hessian by   7.400920401596990E-003
 Lowest  eigenvalues of input Hessian
    0.000000    0.000000    0.000000    0.000000    0.000000    0.000000
    0.010000    0.011455    0.013078    0.019682    0.021830    0.024098
    0.033766    0.046568    0.058897    0.062724    0.065529    0.069031
 Highest eigenvalues
    1.124515    1.156586    1.210309    1.264619    1.500674    1.708219
 

........................................................................
.............................. CYCLE    1 ..............................
........................................................................

 iter      E             dE          RMSdq      gap      omega  full diag
   1    -21.6121708 -0.216122E+02  0.269E-05    6.19       0.0  T
   2    -21.6121708 -0.310507E-11  0.153E-05    6.19    1686.0  T
   3    -21.6121708 -0.184741E-12  0.851E-06    6.19    3035.6  T
     SCC iter.                  ...        0 min,  0.001 sec
     gradient                   ...        0 min,  0.002 sec
 * total energy  :   -21.4166098 Eh     change       -0.1406519E-10 Eh
   gradient norm :     0.0642218 Eh/α   predicted     0.0000000E+00 (-100.00%)
   displ. norm   :     0.2767186 α      lambda       -0.1037123E-01
   maximum displ.:     0.1201227 α      in ANC's #11, #15, #13, ...

........................................................................
.............................. CYCLE    2 ..............................
........................................................................

 iter      E             dE          RMSdq      gap      omega  full diag
   1    -21.6127174 -0.216127E+02  0.364E-01    6.51       0.0  T
   2    -21.6129072 -0.189822E-03  0.207E-01    6.57       1.0  T
   3    -21.6129135 -0.634991E-05  0.751E-02    6.59       1.0  T
   4    -21.6129248 -0.112964E-04  0.150E-02    6.59       1.7  T
   5    -21.6129253 -0.466616E-06  0.421E-03    6.58       6.1  T
   6    -21.6129253 -0.180799E-07  0.191E-03    6.58      13.5  T
   7    -21.6129253 -0.303793E-08  0.244E-04    6.58     106.0  T
   8    -21.6129253 -0.109520E-09  0.139E-04    6.58     186.3  T
     SCC iter.                  ...        0 min,  0.002 sec
     gradient                   ...        0 min,  0.001 sec
 * total energy  :   -21.4226507 Eh     change       -0.6040871E-02 Eh
   gradient norm :     0.0312459 Eh/α   predicted    -0.5582697E-02 (  -7.58%)
   displ. norm   :     0.1083300 α      lambda       -0.1557328E-02
   maximum displ.:     0.0383161 α      in ANC's #19, #24, #1, ...

........................................................................
.............................. CYCLE    3 ..............................
........................................................................

 iter      E             dE          RMSdq      gap      omega  full diag
   1    -21.6119901 -0.216120E+02  0.142E-01    6.75       0.0  T
   2    -21.6120562 -0.660861E-04  0.711E-02    6.81       1.0  T
   3    -21.6120616 -0.541910E-05  0.361E-02    6.83       1.0  T
   4    -21.6120630 -0.135850E-05  0.102E-02    6.83       2.5  T
   5    -21.6120631 -0.163438E-06  0.118E-03    6.83      21.9  T
   6    -21.6120631 -0.763528E-09  0.603E-04    6.83      42.8  T
   7    -21.6120631 -0.111768E-09  0.443E-05    6.83     582.4  T
     SCC iter.                  ...        0 min,  0.002 sec
     gradient                   ...        0 min,  0.001 sec
 * total energy  :   -21.4236048 Eh     change       -0.9541137E-03 Eh
   gradient norm :     0.0156138 Eh/α   predicted    -0.7878021E-03 ( -17.43%)
   displ. norm   :     0.0740433 α      lambda       -0.3402737E-03
   maximum displ.:     0.0454402 α      in ANC's #4, #2, #3, ...

........................................................................
.............................. CYCLE    4 ..............................
........................................................................

 iter      E             dE          RMSdq      gap      omega  full diag
   1    -21.6116708 -0.216117E+02  0.773E-02    6.92       0.0  T
   2    -21.6117019 -0.310816E-04  0.340E-02    6.97       1.0  T
   3    -21.6117046 -0.275142E-05  0.188E-02    6.98       1.4  T
   4    -21.6117050 -0.362461E-06  0.763E-03    6.98       3.4  T
   5    -21.6117050 -0.379428E-07  0.604E-04    6.98      42.8  T
   6    -21.6117050 -0.618503E-09  0.296E-04    6.98      87.2  T
     SCC iter.                  ...        0 min,  0.002 sec
     gradient                   ...        0 min,  0.001 sec
 * total energy  :   -21.4238432 Eh     change       -0.2383525E-03 Eh
   gradient norm :     0.0071469 Eh/α   predicted    -0.1710691E-03 ( -28.23%)
   displ. norm   :     0.0935840 α      lambda       -0.1790460E-03
   maximum displ.:     0.0631834 α      in ANC's #4, #2, #3, ...

........................................................................
.............................. CYCLE    5 ..............................
........................................................................

 iter      E             dE          RMSdq      gap      omega  full diag
   1    -21.6113844 -0.216114E+02  0.749E-02    7.02       0.0  T
   2    -21.6114039 -0.195824E-04  0.370E-02    7.07       1.0  T
   3    -21.6114055 -0.156193E-05  0.186E-02    7.08       1.4  T
   4    -21.6114058 -0.343758E-06  0.623E-03    7.08       4.1  T
   5    -21.6114059 -0.546645E-07  0.585E-04    7.08      44.1  T
   6    -21.6114059 -0.604544E-09  0.290E-04    7.08      88.9  T
     SCC iter.                  ...        0 min,  0.002 sec
     gradient                   ...        0 min,  0.001 sec
 * total energy  :   -21.4239546 Eh     change       -0.1114146E-03 Eh
   gradient norm :     0.0031203 Eh/α   predicted    -0.9030711E-04 ( -18.95%)
   displ. norm   :     0.0667135 α      lambda       -0.4754879E-04
   maximum displ.:     0.0409677 α      in ANC's #4, #2, #3, ...

........................................................................
.............................. CYCLE    6 ..............................
........................................................................

 iter      E             dE          RMSdq      gap      omega  full diag
   1    -21.6113961 -0.216114E+02  0.372E-02    7.07       0.0  T
   2    -21.6113975 -0.135979E-05  0.215E-02    7.09       1.2  T
   3    -21.6113975 -0.502120E-07  0.630E-03    7.09       4.1  T
   4    -21.6113976 -0.869748E-07  0.167E-03    7.09      15.4  T
   5    -21.6113976 -0.910505E-08  0.312E-04    7.09      82.7  T
   6    -21.6113976 -0.111847E-09  0.148E-04    7.09     174.5  T
     SCC iter.                  ...        0 min,  0.002 sec
     gradient                   ...        0 min,  0.001 sec
 * total energy  :   -21.4239902 Eh     change       -0.3558349E-04 Eh
   gradient norm :     0.0029192 Eh/α   predicted    -0.2388006E-04 ( -32.89%)
   displ. norm   :     0.1027922 α      lambda       -0.5066054E-04
   maximum displ.:     0.0696277 α      in ANC's #2, #4, #3, ...

........................................................................
.............................. CYCLE    7 ..............................
........................................................................

 iter      E             dE          RMSdq      gap      omega  full diag
   1    -21.6114801 -0.216115E+02  0.507E-02    7.07       0.0  T
   2    -21.6114808 -0.624860E-06  0.307E-02    7.08       1.0  T
   3    -21.6114808 -0.703273E-07  0.337E-03    7.08       7.7  T
   4    -21.6114809 -0.318512E-07  0.116E-03    7.08      22.3  T
   5    -21.6114809 -0.345625E-08  0.359E-04    7.08      71.9  T
   6    -21.6114809 -0.148567E-09  0.131E-04    7.08     197.6  T
     SCC iter.                  ...        0 min,  0.002 sec
     gradient                   ...        0 min,  0.001 sec
 * total energy  :   -21.4240267 Eh     change       -0.3648702E-04 Eh
   gradient norm :     0.0025924 Eh/α   predicted    -0.2559968E-04 ( -29.84%)
   displ. norm   :     0.0924230 α      lambda       -0.3503342E-04
   maximum displ.:     0.0697968 α      in ANC's #2, #3, #4, ...

........................................................................
.............................. CYCLE    8 ..............................
........................................................................

 iter      E             dE          RMSdq      gap      omega  full diag
   1    -21.6116515 -0.216117E+02  0.456E-02    7.06       0.0  T
   2    -21.6116519 -0.378670E-06  0.278E-02    7.06       1.0  T
   3    -21.6116519 -0.425152E-07  0.294E-03    7.06       8.8  T
   4    -21.6116519 -0.386939E-07  0.109E-03    7.06      23.8  T
   5    -21.6116519 -0.323428E-08  0.299E-04    7.06      86.4  T
   6    -21.6116519 -0.711253E-10  0.923E-05    7.06     279.9  T
     SCC iter.                  ...        0 min,  0.002 sec
     gradient                   ...        0 min,  0.001 sec
 * total energy  :   -21.4240547 Eh     change       -0.2800028E-04 Eh
   gradient norm :     0.0022768 Eh/α   predicted    -0.1766587E-04 ( -36.91%)
   displ. norm   :     0.0923507 α      lambda       -0.3344543E-04
   maximum displ.:     0.0747348 α      in ANC's #2, #3, #4, ...

........................................................................
.............................. CYCLE    9 ..............................
........................................................................

 iter      E             dE          RMSdq      gap      omega  full diag
   1    -21.6118946 -0.216119E+02  0.459E-02    7.04       0.0  T
   2    -21.6118951 -0.471811E-06  0.280E-02    7.04       1.0  T
   3    -21.6118951 -0.290367E-07  0.358E-03    7.04       7.2  T
   4    -21.6118952 -0.648324E-07  0.126E-03    7.04      20.5  T
   5    -21.6118952 -0.426557E-08  0.294E-04    7.04      87.8  T
   6    -21.6118952 -0.574829E-10  0.645E-05    7.04     400.1  T
     SCC iter.                  ...        0 min,  0.002 sec
     gradient                   ...        0 min,  0.001 sec
 * total energy  :   -21.4240820 Eh     change       -0.2730379E-04 Eh
   gradient norm :     0.0019317 Eh/α   predicted    -0.1686666E-04 ( -38.23%)
   displ. norm   :     0.1364318 α      lambda       -0.2763097E-04
   maximum displ.:     0.1141118 α      in ANC's #2, #3, #5, ...

........................................................................
.............................. CYCLE   10 ..............................
........................................................................

 iter      E             dE          RMSdq      gap      omega  full diag
   1    -21.6119822 -0.216120E+02  0.632E-02    7.04       0.0  T
   2    -21.6119828 -0.587380E-06  0.387E-02    7.04       1.0  T
   3    -21.6119829 -0.859028E-07  0.387E-03    7.04       6.7  T
   4    -21.6119830 -0.710150E-07  0.162E-03    7.04      16.0  T
   5    -21.6119830 -0.509131E-08  0.357E-04    7.04      72.2  T
   6    -21.6119830 -0.114252E-09  0.116E-04    7.04     222.8  T
     SCC iter.                  ...        0 min,  0.002 sec
     gradient                   ...        0 min,  0.001 sec
 * total energy  :   -21.4241127 Eh     change       -0.3074089E-04 Eh
   gradient norm :     0.0015505 Eh/α   predicted    -0.1392933E-04 ( -54.69%)
   displ. norm   :     0.0855061 α      lambda       -0.1350436E-04
   maximum displ.:     0.0741950 α      in ANC's #2, #3, #1, ...

........................................................................
.............................. CYCLE   11 ..............................
........................................................................

 iter      E             dE          RMSdq      gap      omega  full diag
   1    -21.6120095 -0.216120E+02  0.333E-02    7.05       0.0  T
   2    -21.6120096 -0.134514E-06  0.203E-02    7.05       1.3  T
   3    -21.6120097 -0.400249E-07  0.175E-03    7.06      14.7  T
   4    -21.6120097 -0.535141E-08  0.801E-04    7.06      32.3  T
   5    -21.6120097 -0.857817E-09  0.171E-04    7.06     150.6  T
     SCC iter.                  ...        0 min,  0.001 sec
     gradient                   ...        0 min,  0.001 sec
 * total energy  :   -21.4241294 Eh     change       -0.1674084E-04 Eh
   gradient norm :     0.0008454 Eh/α   predicted    -0.6773500E-05 ( -59.54%)
   displ. norm   :     0.0655847 α      lambda       -0.8587219E-05
   maximum displ.:     0.0587079 α      in ANC's #2, #1, #3, ...

........................................................................
.............................. CYCLE   12 ..............................
........................................................................

 iter      E             dE          RMSdq      gap      omega  full diag
   1    -21.6120217 -0.216120E+02  0.217E-02    7.07       0.0  T
   2    -21.6120218 -0.987080E-07  0.131E-02    7.07       2.0  T
   3    -21.6120218 -0.111880E-07  0.161E-03    7.07      16.0  T
   4    -21.6120219 -0.112813E-07  0.675E-04    7.07      38.3  T
   5    -21.6120219 -0.628209E-09  0.165E-04    7.07     156.5  T
     SCC iter.                  ...        0 min,  0.001 sec
     gradient                   ...        0 min,  0.001 sec
 * total energy  :   -21.4241405 Eh     change       -0.1105495E-04 Eh
   gradient norm :     0.0006140 Eh/α   predicted    -0.4300569E-05 ( -61.10%)
   displ. norm   :     0.0558119 α      lambda       -0.6267957E-05
   maximum displ.:     0.0497163 α      in ANC's #2, #1, #3, ...

........................................................................
.............................. CYCLE   13 ..............................
........................................................................

 iter      E             dE          RMSdq      gap      omega  full diag
   1    -21.6120556 -0.216121E+02  0.162E-02    7.07       0.0  T
   2    -21.6120556 -0.478245E-07  0.977E-03    7.07       2.6  T
   3    -21.6120556 -0.487135E-08  0.109E-03    7.08      23.6  T
   4    -21.6120556 -0.543553E-08  0.463E-04    7.08      55.8  T
   5    -21.6120556 -0.274323E-09  0.126E-04    7.08     204.2  T
     SCC iter.                  ...        0 min,  0.001 sec
     gradient                   ...        0 min,  0.001 sec
 * total energy  :   -21.4241488 Eh     change       -0.8296854E-05 Eh
   gradient norm :     0.0007206 Eh/α   predicted    -0.3138209E-05 ( -62.18%)
   displ. norm   :     0.0530936 α      lambda       -0.5258923E-05
   maximum displ.:     0.0470946 α      in ANC's #2, #1, #3, ...

........................................................................
.............................. CYCLE   14 ..............................
........................................................................

 iter      E             dE          RMSdq      gap      omega  full diag
   1    -21.6120183 -0.216120E+02  0.149E-02    7.07       0.0  T
   2    -21.6120184 -0.475807E-07  0.894E-03    7.08       2.9  T
   3    -21.6120184 -0.380104E-08  0.101E-03    7.08      25.5  T
   4    -21.6120184 -0.413483E-08  0.395E-04    7.08      65.3  T
   5    -21.6120184 -0.281378E-09  0.133E-04    7.08     193.9  T
     SCC iter.                  ...        0 min,  0.001 sec
     gradient                   ...        0 min,  0.001 sec
 * total energy  :   -21.4241556 Eh     change       -0.6814027E-05 Eh
   gradient norm :     0.0005384 Eh/α   predicted    -0.2632488E-05 ( -61.37%)
   displ. norm   :     0.0596709 α      lambda       -0.4762440E-05
   maximum displ.:     0.0519629 α      in ANC's #2, #1, #3, ...

........................................................................
.............................. CYCLE   15 ..............................
........................................................................

 iter      E             dE          RMSdq      gap      omega  full diag
   1    -21.6120882 -0.216121E+02  0.171E-02    7.07       0.0  T
   2    -21.6120882 -0.315965E-07  0.103E-02    7.07       2.5  T
   3    -21.6120882 -0.623035E-08  0.727E-04    7.07      35.5  T
   4    -21.6120882 -0.910006E-09  0.273E-04    7.07      94.6  T
     SCC iter.                  ...        0 min,  0.001 sec
     gradient                   ...        0 min,  0.001 sec
 * total energy  :   -21.4241614 Eh     change       -0.5759953E-05 Eh
   gradient norm :     0.0003012 Eh/α   predicted    -0.2384101E-05 ( -58.61%)
   displ. norm   :     0.0529219 α      lambda       -0.3018529E-05
   maximum displ.:     0.0457320 α      in ANC's #2, #1, #4, ...

........................................................................
.............................. CYCLE   16 ..............................
........................................................................

 iter      E             dE          RMSdq      gap      omega  full diag
   1    -21.6120124 -0.216120E+02  0.161E-02    7.06       0.0  T
   2    -21.6120125 -0.391618E-07  0.967E-03    7.07       2.7  T
   3    -21.6120125 -0.623086E-08  0.799E-04    7.07      32.3  T
   4    -21.6120125 -0.136874E-08  0.310E-04    7.07      83.3  T
     SCC iter.                  ...        0 min,  0.001 sec
     gradient                   ...        0 min,  0.001 sec
 * total energy  :   -21.4241651 Eh     change       -0.3732318E-05 Eh
   gradient norm :     0.0003191 Eh/α   predicted    -0.1512335E-05 ( -59.48%)
   displ. norm   :     0.0542098 α      lambda       -0.2448332E-05
   maximum displ.:     0.0471984 α      in ANC's #2, #1, #4, ...

   *** GEOMETRY OPTIMIZATION CONVERGED AFTER 16 ITERATIONS ***

------------------------------------------------------------------------
 total energy gain   :        -0.0075553 Eh       -4.7410 kcal/mol
 total RMSD          :         0.2742419 a0        0.1451 Å
 total power (kW/mol):        -1.2397718 (step) -306.0736 (real)
------------------------------------------------------------------------

 ANCopt (total)                0 d,  0 h,  0 min,  0.065 sec
 optimizer setup                ...        0 min,  0.000 sec (  0.563%)
 model hessian                  ...        0 min,  0.003 sec (  3.986%)
 ANC generation                 ...        0 min,  0.000 sec (  0.426%)
 coordinate transformation      ...        0 min,  0.000 sec (  0.177%)
 single point calculation       ...        0 min,  0.059 sec ( 90.280%)
 optimization log               ...        0 min,  0.001 sec (  1.355%)
 hessian update                 ...        0 min,  0.000 sec (  0.247%)
 rational function              ...        0 min,  0.001 sec (  2.055%)

================
 final structure:
================
15
 xtb: 6.7.1 (edcfbbe)
C           -4.49209582163384       -3.72847130092569       -3.19003048391708
C           -3.48541017429692       -2.69659048785833       -2.70894456027071
C           -4.03605220299307       -1.74028203931065       -1.56570148337942
O           -3.16630023250366       -0.91720685014771       -1.07380408559567
O           -5.31543647801826       -3.19250424419687       -4.21235542689046
C           -6.36236821504036       -4.04060767806740       -4.56071396596792
H           -5.99234631877220       -5.00797280074262       -4.94061651412275
H           -7.02349145405535       -4.24433417633209       -3.70451853171860
H           -6.93481337299759       -3.54436038210665       -5.34504067871955
H           -3.98897389244803       -4.63415685072157       -3.58890843348421
H           -5.12294142294710       -4.05038832464403       -2.34283518375846
H           -2.60726913887800       -3.20974041155612       -2.30867661957122
H           -3.16686441308526       -2.08149437313182       -3.55120444676706
H           -4.96351298684289       -1.24862338154316       -2.03177457000940
H           -4.49046887548744       -2.48068769871520       -0.79261201582749
 
 Bond Distances (Angstroems)
 ---------------------------
C1-C2=1.5197         C1-O5=1.4179         C1-H10=1.1102        C1-H11=1.1042        C2-C1=1.5197         C2-C3=1.5889         
C2-H12=1.0930        C2-H13=1.0905        C3-C2=1.5889         C3-O4=1.2946         C3-H14=1.1485        C3-H15=1.1629        
O4-C3=1.2946         O5-C1=1.4179         O5-C6=1.3917         C6-O5=1.3917         C6-H7=1.1032         C6-H8=1.1008         
C6-H9=1.0905         H7-C6=1.1032         H8-C6=1.1008         H9-C6=1.0905         H10-C1=1.1102        H11-C1=1.1042        
H12-C2=1.0930        H13-C2=1.0905        H14-C3=1.1485        H15-C3=1.1629        
 C  H  Rav=1.1115 sigma=0.0247  Rmin=1.0905  Rmax=1.1629     9
 C  C  Rav=1.5543 sigma=0.0346  Rmin=1.5197  Rmax=1.5889     2
 O  C  Rav=1.3680 sigma=0.0530  Rmin=1.2946  Rmax=1.4179     3
 
 selected bond angles (degree)
 --------------------
O5-C1-C2=110.87                H10-C1-C2=111.56               H10-C1-O5=108.21               H11-C1-C2=109.48               
H11-C1-O5=109.37               H11-C1-H10=107.26              C3-C2-C1=114.01                H12-C2-C1=109.23               
H12-C2-C3=107.31               H13-C2-C1=109.39               H13-C2-C3=108.51               H13-C2-H12=108.24              
O4-C3-C2=115.04                H14-C3-C2=104.21               H14-C3-O4=115.12               H15-C3-C2=103.33               
H15-C3-O4=114.50               H15-C3-H14=103.11              C6-O5-C1=112.77                H7-C6-O5=111.61                
H8-C6-O5=111.71                H8-C6-H7=107.88                H9-C6-O5=107.32                H9-C6-H7=109.11                
H9-C6-H8=109.17                
 
 selected dihedral angles (degree)
 ---------------------------------
C3-C2-C1-O5= 86.31            C3-C2-C1-H10=206.99           C3-C2-C1-H11=325.56           H12-C2-C1-O5=206.33           
H12-C2-C1-H10=327.01          H12-C2-C1-H11= 85.58          H13-C2-C1-O5=324.63           H13-C2-C1-H10= 85.31          
H13-C2-C1-H11=203.88          O4-C3-C2-C1=175.26            O4-C3-C2-H12= 54.17           O4-C3-C2-H13=297.43           
H14-C3-C2-C1=302.25           H14-C3-C2-H12=181.16          H14-C3-C2-H13= 64.42          H15-C3-C2-C1= 49.74           
H15-C3-C2-H12=288.64          H15-C3-C2-H13=171.90          C6-O5-C1-C2=187.87            C6-O5-C1-H10= 65.22           
C6-O5-C1-H11=308.69           H7-C6-O5-C1=299.37            H8-C6-O5-C1= 60.24            H9-C6-O5-C1=179.87            
           -------------------------------------------------
          |                Final Singlepoint                |
           -------------------------------------------------

          ...................................................
          :                      SETUP                      :
          :.................................................:
          :  # basis functions                  33          :
          :  # atomic orbitals                  33          :
          :  # shells                           21          :
          :  # electrons                        38          :
          :  max. iterations                   250          :
          :  Hamiltonian                  GFN2-xTB          :
          :  restarted?                      false          :
          :  GBSA solvation                  false          :
          :  PC potential                    false          :
          :  electronic temp.          300.0000000     K    :
          :  accuracy                    1.0000000          :
          :  -> integral cutoff          0.2500000E+02      :
          :  -> integral neglect         0.1000000E-07      :
          :  -> SCF convergence          0.1000000E-05 Eh   :
          :  -> wf. convergence          0.1000000E-03 e    :
          :  Broyden damping             0.4000000          :
          :  net charge                         -1          :
          :  unpaired electrons                  0          :
          ...................................................

 iter      E             dE          RMSdq      gap      omega  full diag
   1    -21.6120125 -0.216120E+02  0.116E-04    7.07       0.0  T
   2    -21.6120125 -0.139266E-10  0.660E-05    7.07     391.1  T
   3    -21.6120125 -0.280664E-12  0.217E-05    7.07    1189.6  T

   *** convergence criteria satisfied after 3 iterations ***

         #    Occupation            Energy/Eh            Energy/eV
      -------------------------------------------------------------
         1        2.0000           -0.5730061             -15.5923
       ...           ...                  ...                  ...
        13        2.0000           -0.3009499              -8.1893
        14        2.0000           -0.2796471              -7.6096
        15        2.0000           -0.2587758              -7.0416
        16        2.0000           -0.2515860              -6.8460
        17        2.0000           -0.2218714              -6.0374
        18        2.0000           -0.0991136              -2.6970
        19        2.0000           -0.0944417              -2.5699 (HOMO)
        20                          0.1652293               4.4961 (LUMO)
        21                          0.2226721               6.0592
        22                          0.2450389               6.6678
        23                          0.2453863               6.6773
        24                          0.2789418               7.5904
       ...                                ...                  ...
        33                          0.6165191              16.7763
      -------------------------------------------------------------
                  HL-Gap            0.2596710 Eh            7.0660 eV
             Fermi-level            0.0353938 Eh            0.9631 eV

 SCC (total)                   0 d,  0 h,  0 min,  0.003 sec
 SCC setup                      ...        0 min,  0.000 sec (  2.503%)
 Dispersion                     ...        0 min,  0.000 sec (  1.628%)
 classical contributions        ...        0 min,  0.000 sec (  0.395%)
 integral evaluation            ...        0 min,  0.001 sec ( 20.121%)
 iterations                     ...        0 min,  0.001 sec ( 25.903%)
 molecular gradient             ...        0 min,  0.001 sec ( 46.590%)
 printout                       ...        0 min,  0.000 sec (  2.046%)

         :::::::::::::::::::::::::::::::::::::::::::::::::::::
         ::                     SUMMARY                     ::
         :::::::::::::::::::::::::::::::::::::::::::::::::::::
         :: total energy             -21.424165095990 Eh    ::
         :: gradient norm              0.000317593106 Eh/a0 ::
         :: HOMO-LUMO gap              7.066007838038 eV    ::
         ::.................................................::
         :: SCC energy               -21.612005481151 Eh    ::
         :: -> isotropic ES            0.207011501060 Eh    ::
         :: -> anisotropic ES          0.009389064402 Eh    ::
         :: -> anisotropic XC         -0.001880250339 Eh    ::
         :: -> dispersion             -0.008934223931 Eh    ::
         :: repulsion energy           0.187840385161 Eh    ::
         :: add. restraining           0.000000000000 Eh    ::
         :: total charge              -1.000000000000 e     ::
         :::::::::::::::::::::::::::::::::::::::::::::::::::::

           ------------------------------------------------- 
          |                Numerical Hessian                |
           ------------------------------------------------- 
step length          :   0.00500
SCC accuracy         :   0.30000
Hessian scale factor :   1.00000
frozen atoms in %    :   0.00000    0
RMS gradient         :   0.00032
estimated CPU  time      0.01 min
estimated wall time      0.01 min

writing file <hessian>.

 projected vibrational frequencies (cm⁻¹)
eigval :       -0.00    -0.00     0.00     0.00     0.00     0.00
eigval :       58.23    77.13    96.09   227.71   268.68   283.85
eigval :      364.53   535.46   742.44   807.55   919.93   996.57
eigval :     1065.05  1092.52  1113.27  1141.86  1164.16  1203.58
eigval :     1229.71  1238.82  1276.33  1297.42  1351.86  1381.84
eigval :     1408.43  1469.89  1476.95  1494.69  1506.20  1510.16
eigval :     2032.48  2306.28  2721.02  2816.29  2820.86  2867.27
eigval :     2952.57  2989.69  2995.18
           -------------------------------------------------
          |                Property Printout                |
           -------------------------------------------------

    * Orbital Energies and Occupations

         #    Occupation            Energy/Eh            Energy/eV
      -------------------------------------------------------------
         1        2.0000           -0.5730062             -15.5923
       ...           ...                  ...                  ...
         7        2.0000           -0.3986792             -10.8486
         8        2.0000           -0.3851687             -10.4810
         9        2.0000           -0.3683887             -10.0244
        10        2.0000           -0.3438158              -9.3557
        11        2.0000           -0.3369735              -9.1695
        12        2.0000           -0.3069492              -8.3525
        13        2.0000           -0.3009499              -8.1893
        14        2.0000           -0.2796472              -7.6096
        15        2.0000           -0.2587758              -7.0416
        16        2.0000           -0.2515861              -6.8460
        17        2.0000           -0.2218714              -6.0374
        18        2.0000           -0.0991135              -2.6970
        19        2.0000           -0.0944417              -2.5699 (HOMO)
        20                          0.1652292               4.4961 (LUMO)
        21                          0.2226720               6.0592
        22                          0.2450389               6.6678
        23                          0.2453863               6.6773
        24                          0.2789418               7.5904
        25                          0.2887161               7.8564
        26                          0.2983253               8.1178
        27                          0.3127680               8.5108
        28                          0.3268002               8.8927
        29                          0.3411384               9.2828
        30                          0.3680215              10.0144
       ...                                ...                  ...
        33                          0.6165190              16.7763
      -------------------------------------------------------------
                  HL-Gap            0.2596709 Eh            7.0660 eV
             Fermi-level            0.0353938 Eh            0.9631 eV

     #   Z          covCN         q      C6AA      α(0)
     1   6 C        3.705     0.101    19.059     6.241
     2   6 C        3.791    -0.079    22.018     6.682
     3   6 C        3.641     0.197    17.790     6.065
     4   8 O        0.855    -0.756    30.287     7.378
     5   8 O        1.701    -0.317    19.298     5.931
     6   6 C        3.657     0.061    19.831     6.392
     7   1 H        0.923     0.004     2.996     2.707
     8   1 H        0.923     0.013     2.845     2.638
     9   1 H        0.924     0.035     2.515     2.480
    10   1 H        0.922    -0.025     3.525     2.936
    11   1 H        0.923    -0.001     3.077     2.743
    12   1 H        0.924     0.005     2.976     2.698
    13   1 H        0.924     0.018     2.756     2.596
    14   1 H        0.912    -0.117     6.212     3.898
    15   1 H        0.907    -0.139     7.156     4.185

 Mol. C6AA /au·bohr⁶  :       1997.038507
 Mol. C8AA /au·bohr⁸  :      39627.916332
 Mol. α(0) /au        :         65.571666


Wiberg/Mayer (AO) data.
largest (>0.10) Wiberg bond orders for each atom

 ---------------------------------------------------------------------------
     #   Z sym  total        # sym  WBO       # sym  WBO       # sym  WBO
 ---------------------------------------------------------------------------
     1   6 C    3.934 --     2 C    0.999    10 H    0.966    11 H    0.965
                             5 O    0.963
     2   6 C    3.957 --     1 C    0.999    12 H    0.979    13 H    0.979
                             3 C    0.903
     3   6 C    3.974 --     4 O    1.238    14 H    0.916    15 H    0.903
                             2 C    0.903
     4   8 O    1.452 --     3 C    1.238
     5   8 O    2.073 --     6 C    1.019     1 C    0.963
     6   6 C    3.970 --     5 O    1.019     9 H    0.981     8 H    0.974
                             7 H    0.974
     7   1 H    1.000 --     6 C    0.974
     8   1 H    1.000 --     6 C    0.974
     9   1 H    0.998 --     6 C    0.981
    10   1 H    0.999 --     1 C    0.966
    11   1 H    1.000 --     1 C    0.965
    12   1 H    1.000 --     2 C    0.979
    13   1 H    1.000 --     2 C    0.979
    14   1 H    0.986 --     3 C    0.916
    15   1 H    0.981 --     3 C    0.903
 ---------------------------------------------------------------------------

Topologies differ in total number of bonds
Writing topology from bond orders to xtbtopo.mol

molecular dipole:
                 x           y           z       tot (Debye)
 q only:        6.803       2.478       2.952
   full:        6.455       1.916       2.753      18.489
molecular quadrupole (traceless):
                xx          xy          yy          xz          yz          zz
 q only:      -36.828     -26.292      22.507     -32.214     -13.846      14.321
  q+dip:      -34.949     -18.911      24.413     -29.841      -9.806      10.536
   full:      -34.683     -18.362      24.388     -29.144      -9.534      10.295

           -------------------------------------------------
          |                Geometry Summary                 |
           -------------------------------------------------

      molecular mass/u    :       89.1132202
   center of mass at/Å    :       -4.5005189      -2.7279648      -2.8934061
  moments of inertia/u·Å² :        0.4294634E+02   0.3592066E+03   0.3740518E+03
rotational constants/cm⁻¹ :        0.3925278E+00   0.4693019E-01   0.4506764E-01

 * 11 selected distances

     #   Z          #   Z                                           value/Å
     1   6 C        2   6 C                                       1.5197494 (max)
     1   6 C        5   8 O                                       1.4178502
     5   8 O        6   6 C                                       1.3916535
     6   6 C        7   1 H                                       1.1031943
     6   6 C        8   1 H                                       1.1007540
     6   6 C        9   1 H                                       1.0904694 (min)
     1   6 C       10   1 H                                       1.1101810
     1   6 C       11   1 H                                       1.1042359
     2   6 C       12   1 H                                       1.0930092
     2   6 C       13   1 H                                       1.0905121
     3   6 C       14   1 H                                       1.1485365

 * 3 distinct bonds (by element types)

   Z      Z             #   av. dist./Å        max./Å        min./Å
   1 H    6 C           8     1.1051115     1.1485365     1.0904694
   6 C    6 C           1     1.5197494     1.5197494     1.5197494
   6 C    8 O           2     1.4047519     1.4178502     1.3916535

           -------------------------------------------------
          |               Frequency Printout                |
           -------------------------------------------------
 projected vibrational frequencies (cm⁻¹)
eigval :       -0.00    -0.00     0.00     0.00     0.00     0.00
eigval :       58.23    77.13    96.09   227.71   268.68   283.85
eigval :      364.53   535.46   742.44   807.55   919.93   996.57
eigval :     1065.05  1092.52  1113.27  1141.86  1164.16  1203.58
eigval :     1229.71  1238.82  1276.33  1297.42  1351.86  1381.84
eigval :     1408.43  1469.89  1476.95  1494.69  1506.20  1510.16
eigval :     2032.48  2306.28  2721.02  2816.29  2820.86  2867.27
eigval :     2952.57  2989.69  2995.18
 reduced masses (amu)
   1: 10.49   2: 12.09   3: 11.93   4: 12.96   5: 10.06   6: 12.33   7:  8.91   8:  9.19
   9: 10.47  10:  3.96  11:  8.81  12:  8.68  13: 12.12  14:  9.75  15:  3.50  16:  9.05
  17:  8.28  18:  6.47  19:  9.03  20:  7.30  21: 12.33  22:  3.99  23:  5.38  24:  5.73
  25:  8.84  26:  7.11  27:  3.89  28:  2.22  29:  3.76  30:  2.67  31:  2.47  32:  1.99
  33:  1.56  34:  1.81  35:  1.59  36:  1.76  37:  1.67  38:  1.36  39:  1.82  40:  1.64
  41:  1.74  42:  1.48  43:  1.82  44:  1.65  45:  1.67
 IR intensities (km·mol⁻¹)
   1:  6.04   2:  7.21   3: 17.50   4: 21.76   5:  5.43   6: 12.10   7:  3.97   8:  3.34
   9:  5.86  10:  3.66  11:  5.51  12:  2.39  13:  5.57  14:  1.70  15:  4.22  16: 82.74
  17: 16.47  18: 37.96  19: 35.26  20: 14.80  21:109.49  22:  6.57  23: 72.01  24:  4.35
  25:231.61  26:205.99  27: 22.13  28:  9.97  29: 40.25  30:164.10  31:  4.71  32:  1.35
  33:  0.90  34:  9.48  35:  2.36  36:122.32  37:626.72  38:434.57  39:173.98  40: 87.93
  41:101.95  42: 93.30  43:103.72  44: 63.00  45: 53.24
 Raman intensities (Ä⁴*amu⁻¹)
   1:  0.00   2:  0.00   3:  0.00   4:  0.00   5:  0.00   6:  0.00   7:  0.00   8:  0.00
   9:  0.00  10:  0.00  11:  0.00  12:  0.00  13:  0.00  14:  0.00  15:  0.00  16:  0.00
  17:  0.00  18:  0.00  19:  0.00  20:  0.00  21:  0.00  22:  0.00  23:  0.00  24:  0.00
  25:  0.00  26:  0.00  27:  0.00  28:  0.00  29:  0.00  30:  0.00  31:  0.00  32:  0.00
  33:  0.00  34:  0.00  35:  0.00  36:  0.00  37:  0.00  38:  0.00  39:  0.00  40:  0.00
  41:  0.00  42:  0.00  43:  0.00  44:  0.00  45:  0.00
 output can be read by thermo (or use thermo option).
 writing <g98.out> molden fake output.
 recommended (thermochemical) frequency scaling factor: 1.0
           -------------------------------------------------
          |             Thermodynamic Functions             |
           -------------------------------------------------

Refinement of some symmetry elements was terminated before convergence was reached.
Some symmetry elements may remain unidentified.
Molecule has no symmetry elements
It seems to be the C1 point group
c1  symmetry found (for desy threshold:  0.10E+00) used in thermo

          ...................................................
          :                      SETUP                      :
          :.................................................:
          :  # frequencies                          39      :
          :  # imaginary freq.                       0      :
          :  linear?                             false      :
          :  only rotor calc.                    false      :
          :  symmetry                               c1      :
          :  rotational number                       1      :
          :  scaling factor                  1.0000000      :
          :  rotor cutoff                   50.0000000 cm⁻¹ :
          :  imag. cutoff                  -20.0000000 cm⁻¹ :
          :.................................................:

    mode    ω/cm⁻¹     T·S(HO)/kcal·mol⁻¹    T·S(FR)/kcal·mol⁻¹   T·S(vib)
   ------------------------------------------------------------------------
       1     58.23    -1.34656 ( 64.78%)    -1.01109 ( 35.22%)    -1.22840
       2     77.13    -1.18144 ( 84.99%)    -0.92788 ( 15.01%)    -1.14338
       3     96.09    -1.05311 ( 93.17%)    -0.86283 (  6.83%)    -1.04011
       4    227.71    -0.56556 ( 99.77%)    -0.60734 (  0.23%)    -0.56565
       5    268.68    -0.47844 ( 99.88%)    -0.55835 (  0.12%)    -0.47854
       6    283.85    -0.45032 ( 99.90%)    -0.54208 (  0.10%)    -0.45041
   ------------------------------------------------------------------------

   temp. (K)  partition function   enthalpy   heat capacity  entropy
                                   cal/mol     cal/K/mol   cal/K/mol   J/K/mol
 298.15  VIB   143.                 3013.794     18.488     19.407
         ROT  0.184E+06              888.752      2.981     27.066
         INT  0.263E+08             3902.546     21.469     46.474
         TR   0.814E+27             1481.254      4.968     39.357
         TOT                        5383.7998    26.4369    85.8303   359.1142

       T/K    H(0)-H(T)+PV         H(T)/Eh          T*S/Eh         G(T)/Eh
   ------------------------------------------------------------------------
    298.15    0.857963E-02    0.130012E+00    0.407808E-01    0.892310E-01
   ------------------------------------------------------------------------

         :::::::::::::::::::::::::::::::::::::::::::::::::::::
         ::                  THERMODYNAMIC                  ::
         :::::::::::::::::::::::::::::::::::::::::::::::::::::
         :: total free energy         -21.334934141736 Eh   ::
         ::.................................................::
         :: total energy              -21.424165095992 Eh   ::
         :: zero point energy           0.121432089629 Eh   ::
         :: G(RRHO) w/o ZPVE           -0.032201135374 Eh   ::
         :: G(RRHO) contrib.            0.089230954255 Eh   ::
         :::::::::::::::::::::::::::::::::::::::::::::::::::::

optimized geometry written to: xtbopt.xyz


           -------------------------------------------------
          | TOTAL ENERGY              -21.424165095992 Eh   |
          | TOTAL ENTHALPY            -21.294153375286 Eh   |
          | TOTAL FREE ENERGY         -21.334934141736 Eh   |
          | GRADIENT NORM               0.000317618041 Eh/α |
          | HOMO-LUMO GAP               7.066005807997 eV   |
           -------------------------------------------------

------------------------------------------------------------------------
 * finished run on 2025/10/18 at 01:19:10.907     
------------------------------------------------------------------------
 total:
 * wall-time:     0 d,  0 h,  0 min,  0.589 sec
 *  cpu-time:     0 d,  0 h,  0 min,  0.912 sec
 * ratio c/w:     1.548 speedup
 SCF:
 * wall-time:     0 d,  0 h,  0 min,  0.032 sec
 *  cpu-time:     0 d,  0 h,  0 min,  0.045 sec
 * ratio c/w:     1.396 speedup
 ANC optimizer:
 * wall-time:     0 d,  0 h,  0 min,  0.121 sec
 *  cpu-time:     0 d,  0 h,  0 min,  0.190 sec
 * ratio c/w:     1.573 speedup
 analytical hessian:
 * wall-time:     0 d,  0 h,  0 min,  0.271 sec
 *  cpu-time:     0 d,  0 h,  0 min,  0.501 sec
 * ratio c/w:     1.851 speedup

