15
 energy: -21.424165095990 gnorm: 0.000317593106 xtb: 6.7.1 (edcfbbe)
C           -4.49212647908845       -3.72845334790539       -3.19000829611028
C           -3.48543374955137       -2.69657696620294       -2.70892768743516
C           -4.03606678034151       -1.74026363920020       -1.56568435752240
O           -3.16630878321239       -0.91719214554655       -1.07379143228671
O           -5.31546789773948       -3.19248376445809       -4.21233130051380
C           -6.36240529139876       -4.04058232458793       -4.56068470488769
H           -5.99238978635751       -5.00795004772662       -4.94058685628907
H           -7.02352660841518       -4.24430386688903       -3.70448660731962
H           -6.93485058882679       -3.54433340021292       -5.34501028553771
H           -3.98901068441589       -4.63414222819381       -3.58888642118173
H           -5.12297080866363       -4.05036558989973       -2.34281023204035
H           -2.60729400379109       -3.20973078923659       -2.30866191641362
H           -3.16688770776338       -2.08148398939292       -3.55118975940480
H           -4.96352661676349       -1.24860093870937       -2.03175506480619
H           -4.49048463097895       -2.48066556999182       -0.79259201151128
