15
 energy: -21.416609829618 gnorm: 0.064221771300 xtb: 6.7.1 (edcfbbe)
C           -4.47617100000000       -3.72632900000000       -3.18502000000000
C           -3.47028900000000       -2.70474100000000       -2.64848300000000
C           -4.10087200000000       -1.73283700000000       -1.61232800000000
O           -3.10674500000000       -1.02202100000000       -1.09832900000000
O           -5.39326000000000       -3.12170400000000       -4.10151500000000
C           -6.38915400000000       -4.03839600000000       -4.52169100000000
H           -5.93422300000000       -4.89664500000000       -5.02578700000000
H           -6.98632500000000       -4.37601200000000       -3.66910600000000
H           -7.05018500000000       -3.53018500000000       -5.22887400000000
H           -3.92956000000000       -4.51210100000000       -3.71977600000000
H           -5.02400100000000       -4.19264700000000       -2.35758700000000
H           -2.64625800000000       -3.26497600000000       -2.18388500000000
H           -3.05328800000000       -2.13383400000000       -3.48968600000000
H           -4.90129400000000       -1.20197600000000       -2.15121400000000
H           -4.68672000000000       -2.36301700000000       -0.92445600000000
15
 energy: -21.422650700643 gnorm: 0.031246550971 xtb: 6.7.1 (edcfbbe)
C           -4.47127515440951       -3.74897166819510       -3.21317100170827
C           -3.48825929059715       -2.71789504102803       -2.66283921984632
C           -4.06986984071325       -1.71882412868884       -1.60642796784702
O           -3.13942364998083       -0.96510325330376       -1.04247854195366
O           -5.39136837236109       -3.14219120273353       -4.11362561370515
C           -6.38961492858581       -4.04052656371923       -4.52425969503656
H           -5.94665167314269       -4.91084998093954       -5.02600155016739
H           -6.98426401243531       -4.38588455014257       -3.66976029143618
H           -7.03967875963443       -3.51297164648214       -5.22481025150050
H           -3.94105645393440       -4.55766087609331       -3.74640455858948
H           -5.02688794768242       -4.19585545808801       -2.37549954033443
H           -2.66518533787887       -3.25668492458350       -2.18249938684180
H           -3.06856545807621       -2.13860515383643       -3.48871748859128
H           -4.87608947748983       -1.15795701934945       -2.15479418547988
H           -4.65015464307818       -2.36743953281656       -0.88644770696208
15
 energy: -21.423604814307 gnorm: 0.015614208133 xtb: 6.7.1 (edcfbbe)
C           -4.47473751177185       -3.74368043936253       -3.21119259020790
C           -3.48546141379107       -2.71963060489640       -2.67518525934223
C           -4.06452694261050       -1.71650281983561       -1.60411434035475
O           -3.15437562273224       -0.96147593131827       -1.03648447513327
O           -5.38895341357998       -3.15093242066887       -4.11898228913253
C           -6.38412373081823       -4.04040852033528       -4.52666382587117
H           -5.95220271460096       -4.92098312832311       -5.02754264950025
H           -6.98380019119595       -4.39134173759509       -3.67486077265022
H           -7.02742083340939       -3.50564842783669       -5.22579336349062
H           -3.94935051540159       -4.56577057980030       -3.73792104645535
H           -5.03407413134727       -4.18860489401313       -2.37104003415934
H           -2.66273730269448       -3.25731407660746       -2.19550282288843
H           -3.07213550009026       -2.14053243266836       -3.50186195761634
H           -4.87847018367749       -1.13408290565764       -2.14691449951233
H           -4.63597499227872       -2.38051208108125       -0.86367707368526
15
 energy: -21.423843166781 gnorm: 0.007147035877 xtb: 6.7.1 (edcfbbe)
C           -4.47658874576289       -3.73987519441534       -3.20714247889310
C           -3.48363454384130       -2.71805906155431       -2.68103909628953
C           -4.05895476646813       -1.71359174303883       -1.59956732611706
O           -3.15892267856391       -0.95843010809777       -1.03578080209671
O           -5.38372965520123       -3.15521270193302       -4.12423454424227
C           -6.37986942870491       -4.03844962144276       -4.52862094531624
H           -5.95652253874930       -4.92593034527706       -5.02932833734686
H           -6.98421037042991       -4.38916787905158       -3.67795970534135
H           -7.02081378537569       -3.50280763599324       -5.22851347349490
H           -3.95450757784651       -4.57460729024713       -3.72326793605994
H           -5.03993586745963       -4.17702811951307       -2.36370819263657
H           -2.65804036249846       -3.25452591753699       -2.20574785487803
H           -3.07910328783494       -2.13817930480839       -3.51116043260915
H           -4.88482564607942       -1.13721889645276       -2.14224310556656
H           -4.62868574518378       -2.39433718063772       -0.85942276911171
15
 energy: -21.423954581425 gnorm: 0.003120604652 xtb: 6.7.1 (edcfbbe)
C           -4.47735653247633       -3.73767393267059       -3.20224071619155
C           -3.47987203292891       -2.71645879019199       -2.68634003523935
C           -4.05464829284548       -1.71322476750201       -1.59586487793307
O           -3.16436901559560       -0.95497073666422       -1.03664283591637
O           -5.37495103431162       -3.15839327228309       -4.13133728177129
C           -6.37588362038623       -4.03548761631286       -4.53040887488850
H           -5.96057197430842       -4.92967338662991       -5.02863762165013
H           -6.98398388240164       -4.38005885196389       -3.67875253978213
H           -7.01519186972783       -3.50069469892234       -5.23285443098222
H           -3.95935633650904       -4.58576595235358       -3.70400069378453
H           -5.04750232774804       -4.16018629947527       -2.35483846330966
H           -2.64816113033172       -3.25037113667253       -2.21885298930789
H           -3.08646037825566       -2.13444656610472       -3.52072695707680
H           -4.89607777168614       -1.15148696441559       -2.13680445779017
H           -4.62395880048735       -2.40852802783741       -0.85943422437631
15
 energy: -21.423990164914 gnorm: 0.002919598143 xtb: 6.7.1 (edcfbbe)
C           -4.47699971649456       -3.73759508444681       -3.19988655271023
C           -3.47749517782961       -2.71556621772591       -2.68873242357084
C           -4.05408912095552       -1.71547236015514       -1.59467105166601
O           -3.16887837206405       -0.95238945712013       -1.03801152181742
O           -5.36741260414756       -3.16009258685150       -4.13766592660496
C           -6.37400708311898       -4.03388577459344       -4.53139494975146
H           -5.96352195686541       -4.93272394730747       -5.02500234245074
H           -6.98361990695320       -4.36935280856795       -3.67734100878011
H           -7.01139327172181       -3.50003663890267       -5.23688571432897
H           -3.96188665668240       -4.59270094247927       -3.69157051245598
H           -5.05306411447965       -4.14813825520654       -2.35081337123305
H           -2.64080421093142       -3.24694581228486       -2.22707120401445
H           -3.09138674033494       -2.13118413727511       -3.52513757298082
H           -4.90387451181357       -1.16386898212579       -2.13407688964972
H           -4.61991155560729       -2.41746799495739       -0.85947595798526
15
 energy: -21.424026651931 gnorm: 0.002592793088 xtb: 6.7.1 (edcfbbe)
C           -4.47611160282796       -3.73801905217242       -3.19769916000716
C           -3.47493991801007       -2.71415183723529       -2.69184827064921
C           -4.05443458669148       -1.72034139932310       -1.59334326977684
O           -3.17587077064788       -0.94793897296001       -1.04067113770535
O           -5.35520901267560       -3.16347223318632       -4.14931772864344
C           -6.37175647114825       -4.03233238387740       -4.53329235202671
H           -5.96931398551605       -4.93961028588068       -5.01685547993226
H           -6.98360363415909       -4.35033074510201       -3.67464206369234
H           -7.00444059277453       -3.49991642273001       -5.24467342417546
H           -3.96486102984170       -4.60243841493723       -3.67388435393378
H           -5.06194176031288       -4.13055807525193       -2.34738157911446
H           -2.63102989004456       -3.24148160809443       -2.23858298573796
H           -3.09926789224055       -2.12558748944062       -3.53024235471239
H           -4.91496643537117       -1.18127624519765       -2.12848922925492
H           -4.61059741773822       -2.42996583461087       -0.85681361063773
15
 energy: -21.424054652214 gnorm: 0.002277064620 xtb: 6.7.1 (edcfbbe)
C           -4.47550179288148       -3.73833508964533       -3.19675680010190
C           -3.47404241774092       -2.71257621013307       -2.69425167590981
C           -4.05486772859881       -1.72496939239871       -1.59185183126857
O           -3.18094541678948       -0.94333605665290       -1.04400758339516
O           -5.34445715111389       -3.16787009906216       -4.16111897129038
C           -6.37015183945683       -4.03181971752003       -4.53573656034176
H           -5.97588334666122       -4.94780846123860       -5.00839172929809
H           -6.98435809607232       -4.33258701246543       -3.67294020192923
H           -6.99716692161157       -3.50071866254683       -5.25318623759129
H           -3.96668727021123       -4.61019742941575       -3.65907411283421
H           -5.07030340052192       -4.11632689176274       -2.34667048609724
H           -2.62446365688797       -3.23642998097006       -2.24775853043829
H           -3.10687705830621       -2.12005890153279       -3.53351863029856
H           -4.92401341243302       -1.19452640294850       -2.12119884889545
H           -4.59862549071313       -2.43986069170707       -0.85127480031007
15
 energy: -21.424081956006 gnorm: 0.001931851135 xtb: 6.7.1 (edcfbbe)
C           -4.47559043499016       -3.73829737780997       -3.19647198820285
C           -3.47471658928734       -2.71060525204812       -2.69635245011670
C           -4.05462769351707       -1.72900191469910       -1.58953528301708
O           -3.18354684049051       -0.93813893668611       -1.04868516278920
O           -5.33476831274351       -3.17364998470248       -4.17336077028681
C           -6.36877696994749       -4.03212971323547       -4.53903709769056
H           -5.98329510571607       -4.95746709325500       -4.99976929229950
H           -6.98620855222584       -4.31570637577991       -3.67298967851966
H           -6.98905314732082       -3.50267067067328       -5.26322592032170
H           -3.96772762786145       -4.61675360378748       -3.64542548990297
H           -5.07898391538763       -4.10426161344777       -2.34770741805402
H           -2.62042676254968       -3.23147572592568       -2.25585942706978
H           -3.11506423632352       -2.11422107841642       -3.53582826069652
H           -4.93233138246127       -1.20514122616843       -2.11081317906943
H           -4.58322742917762       -2.44790043336474       -0.84267558196321
15
 energy: -21.424112696901 gnorm: 0.001550614475 xtb: 6.7.1 (edcfbbe)
C           -4.47719221360961       -3.73752604082615       -3.19611771542330
C           -3.47738685971239       -2.70718193281197       -2.69929149879499
C           -4.05256878097919       -1.73330434365057       -1.58452792118534
O           -3.18317012248626       -0.93006017974703       -1.05732545986312
O           -5.32276436906085       -3.18304422976750       -4.19041927532128
C           -6.36672952807287       -4.03326993922711       -4.54476554620817
H           -5.99373802416626       -4.97252577403510       -4.98745175795648
H           -6.99111757155320       -4.29308758218225       -3.67613971099031
H           -6.97621586537371       -3.50743836391323       -5.28026111231988
H           -3.96876763096496       -4.62486076613455       -3.62676436045668
H           -5.09196179005214       -4.08927161336949       -2.34961908415160
H           -2.61693843507302       -3.22454064715785       -2.26721186163619
H           -3.12792818996070       -2.10543954570735       -3.53892221142463
H           -4.94421170950358       -1.21829071748576       -2.09143609023760
H           -4.55765390943126       -2.45757932398405       -0.82748339403043
15
 energy: -21.424129437738 gnorm: 0.000845481500 xtb: 6.7.1 (edcfbbe)
C           -4.47949494601809       -3.73646285508513       -3.19528149147249
C           -3.47962565269448       -2.70478563138647       -2.70104852008210
C           -4.04966946890983       -1.73475069819144       -1.58019173797790
O           -3.17996045019822       -0.92555937999052       -1.06321556679313
O           -5.31765395835145       -3.18834069248380       -4.19869452226780
C           -6.36544001901652       -4.03426449654272       -4.54858779357383
H           -5.99795036655962       -4.98146171206290       -4.97901515573688
H           -6.99652906963174       -4.28029044932269       -3.68069186963510
H           -6.96758206842832       -3.51287729460493       -5.29335572900684
H           -3.97028748156658       -4.62841685240941       -3.61623771528659
H           -5.09979351805569       -4.08134546414569       -2.34983621591549
H           -2.61505348182199       -3.22047861834095       -2.27515725177289
H           -3.13675890544135       -2.09987139414560       -3.54113981159359
H           -4.95110050870661       -1.22621677503135       -2.07715500822300
H           -4.54144510459950       -2.46229868625636       -0.81812861066236
15
 energy: -21.424140492686 gnorm: 0.000614139192 xtb: 6.7.1 (edcfbbe)
C           -4.48189973619384       -3.73522911414444       -3.19447683309232
C           -3.48130035263068       -2.70293093431414       -2.70256055537935
C           -4.04693366643629       -1.73569240942559       -1.57662614941388
O           -3.17695127937900       -0.92265273347893       -1.06709732667892
O           -5.31543839003085       -3.19075085055860       -4.20318857076349
C           -6.36445649269631       -4.03521543821136       -4.55128588561205
H           -5.99883670257793       -4.98803461020776       -4.97100403801865
H           -7.00228059119177       -4.27074296874962       -3.68535918111916
H           -6.96033855782685       -3.51878903978836       -5.30468782106645
H           -3.97264991169334       -4.63030869977051       -3.60933998073636
H           -5.10522301632294       -4.07532662177290       -2.34907880035462
H           -2.61362057290327       -3.21774795761870       -2.28201598748576
H           -3.14363177898189       -2.09571801704003       -3.54309517228484
H           -4.95543698056403       -1.23222994365337       -2.06620982304180
H           -4.52934697057101       -2.46605166126563       -0.81171087495235
15
 energy: -21.424148789539 gnorm: 0.000720622861 xtb: 6.7.1 (edcfbbe)
C           -4.48437682011770       -3.73372325710875       -3.19345031708424
C           -3.48230720340098       -2.70146116685270       -2.70396847643122
C           -4.04430189261862       -1.73659486587726       -1.57379063082604
O           -3.17434404410510       -0.92063404041593       -1.06957336547379
O           -5.31528186792121       -3.19160587971068       -4.20536327752809
C           -6.36397458422408       -4.03627717920221       -4.55359973058382
H           -5.99758559641508       -4.99310440061257       -4.96313559601108
H           -7.00799945324581       -4.26342496252512       -3.69014768106739
H           -6.95389896040737       -3.52496622712060       -5.31528701666114
H           -3.97615024836231       -4.63116498461208       -3.60449496073658
H           -5.10938475651263       -4.07010314498900       -2.34774536354895
H           -2.61200483075533       -3.21577648418170       -2.28823193306757
H           -3.14927889482794       -2.09232169651988       -3.54498627931487
H           -4.95819858540346       -1.23688717398762       -2.05725809943324
H           -4.51925726168235       -2.46937553628383       -0.80670427223198
15
 energy: -21.424155603567 gnorm: 0.000538774524 xtb: 6.7.1 (edcfbbe)
C           -4.48677260033643       -3.73209790401966       -3.19251235688624
C           -3.48331951265599       -2.69995392483648       -2.70558208834234
C           -4.04181540874758       -1.73769349031184       -1.57114246634923
O           -3.17206723624991       -0.91917371700935       -1.07127489311521
O           -5.31525024693775       -3.19154106904184       -4.20747748585688
C           -6.36333913563769       -4.03746262414117       -4.55565171303220
H           -5.99580565205439       -4.99797438470180       -4.95550401449489
H           -7.01336828353629       -4.25674917618799       -3.69464658805482
H           -6.94753014941900       -3.53115122084008       -5.32492764620513
H           -3.98003334766719       -4.63215605576888       -3.59994489488120
H           -5.11341796772086       -4.06411614883800       -2.34606346087201
H           -2.61069975537801       -3.21405754034332       -2.29462435174542
H           -3.15467355305406       -2.08904856101288       -3.54700025249567
H           -4.96028595339379       -1.24116208037452       -2.04928110367509
H           -4.50996619721105       -2.47308310257213       -0.80210368399367
15
 energy: -21.424161363520 gnorm: 0.000301248420 xtb: 6.7.1 (edcfbbe)
C           -4.48969805472344       -3.73009290532040       -3.19116545204384
C           -3.48433555648403       -2.69834352041013       -2.70712607794109
C           -4.03869276347383       -1.73891633104336       -1.56835537961996
O           -3.16891168246780       -0.91790743605912       -1.07273587705567
O           -5.31613864642053       -3.19177789404601       -4.20923404099139
C           -6.36308622905779       -4.03916079455719       -4.55832171710107
H           -5.99336949178319       -5.00321428454559       -4.94696160564405
H           -7.01939318186779       -4.25015757914664       -3.70018871118544
H           -6.94065059586132       -3.53852478215167       -5.33629440475403
H           -3.98499588463909       -4.63255350003137       -3.59498490588275
H           -5.11800727384147       -4.05766751461385       -2.34450741568228
H           -2.60882697729732       -3.21201499901102       -2.30175069820562
H           -3.16089322051985       -2.08523725555007       -3.54893644528321
H           -4.96189974918539       -1.24504850955011       -2.04003744099123
H           -4.49944569237715       -2.47680369396340       -0.79713682761835
15
 energy: -21.424165095838 gnorm: 0.000319666550 xtb: 6.7.1 (edcfbbe)
C           -4.49209582163384       -3.72847130092569       -3.19003048391708
C           -3.48541017429692       -2.69659048785833       -2.70894456027071
C           -4.03605220299307       -1.74028203931065       -1.56570148337942
O           -3.16630023250366       -0.91720685014771       -1.07380408559567
O           -5.31543647801826       -3.19250424419687       -4.21235542689046
C           -6.36236821504036       -4.04060767806740       -4.56071396596792
H           -5.99234631877220       -5.00797280074262       -4.94061651412275
H           -7.02349145405535       -4.24433417633209       -3.70451853171860
H           -6.93481337299759       -3.54436038210665       -5.34504067871955
H           -3.98897389244803       -4.63415685072157       -3.58890843348421
H           -5.12294142294710       -4.05038832464403       -2.34283518375846
H           -2.60726913887800       -3.20974041155612       -2.30867661957122
H           -3.16686441308526       -2.08149437313182       -3.55120444676706
H           -4.96351298684289       -1.24862338154316       -2.03177457000940
H           -4.49046887548744       -2.48068769871520       -0.79261201582749
