1
 energy: -4.443996806699 gnorm: 0.000000000000 xtb: 6.7.1 (edcfbbe)
Br           0.00000000000000        0.00000000000000        0.00000000000000
