
                                 *****************
                                 * O   R   C   A *
                                 *****************

                                            #,                                       
                                            ###                                      
                                            ####                                     
                                            #####                                    
                                            ######                                   
                                           ########,                                 
                                     ,,################,,,,,                         
                               ,,#################################,,                 
                          ,,##########################################,,             
                       ,#########################################, ''#####,          
                    ,#############################################,,   '####,        
                  ,##################################################,,,,####,       
                ,###########''''           ''''###############################       
              ,#####''   ,,,,##########,,,,          '''####'''          '####       
            ,##' ,,,,###########################,,,                        '##       
           ' ,,###''''                  '''############,,,                           
         ,,##''                                '''############,,,,        ,,,,,,###''
      ,#''                                            '''#######################'''  
     '                                                          ''''####''''         
             ,#######,   #######,   ,#######,      ##                                
            ,#'     '#,  ##    ##  ,#'     '#,    #''#        ######   ,####,        
            ##       ##  ##   ,#'  ##            #'  '#       #        #'  '#        
            ##       ##  #######   ##           ,######,      #####,   #    #        
            '#,     ,#'  ##    ##  '#,     ,#' ,#      #,         ##   #,  ,#        
             '#######'   ##     ##  '#######'  #'      '#     #####' # '####'        



                  #######################################################
                  #                        -***-                        #
                  #          Department of theory and spectroscopy      #
                  #    Directorship and core code : Frank Neese         #
                  #        Max Planck Institute fuer Kohlenforschung    #
                  #                Kaiser Wilhelm Platz 1               #
                  #                 D-45470 Muelheim/Ruhr               #
                  #                      Germany                        #
                  #                                                     #
                  #                  All rights reserved                #
                  #                        -***-                        #
                  #######################################################


                         Program Version 5.0.4 -  RELEASE  -


 With contributions from (in alphabetic order):
   Daniel Aravena         : Magnetic Suceptibility
   Michael Atanasov       : Ab Initio Ligand Field Theory (pilot matlab implementation)
   Alexander A. Auer      : GIAO ZORA, VPT2 properties, NMR spectrum
   Ute Becker             : Parallelization
   Giovanni Bistoni       : ED, misc. LED, open-shell LED, HFLD
   Martin Brehm           : Molecular dynamics
   Dmytro Bykov           : SCF Hessian
   Vijay G. Chilkuri      : MRCI spin determinant printing, contributions to CSF-ICE
   Dipayan Datta          : RHF DLPNO-CCSD density
   Achintya Kumar Dutta   : EOM-CC, STEOM-CC
   Dmitry Ganyushin       : Spin-Orbit,Spin-Spin,Magnetic field MRCI
   Miquel Garcia          : C-PCM and meta-GGA Hessian, CC/C-PCM, Gaussian charge scheme
   Yang Guo               : DLPNO-NEVPT2, F12-NEVPT2, CIM, IAO-localization
   Andreas Hansen         : Spin unrestricted coupled pair/coupled cluster methods
   Benjamin Helmich-Paris : MC-RPA, TRAH-SCF, COSX integrals
   Lee Huntington         : MR-EOM, pCC
   Robert Izsak           : Overlap fitted RIJCOSX, COSX-SCS-MP3, EOM
   Marcus Kettner         : VPT2
   Christian Kollmar      : KDIIS, OOCD, Brueckner-CCSD(T), CCSD density, CASPT2, CASPT2-K
   Simone Kossmann        : Meta GGA functionals, TD-DFT gradient, OOMP2, MP2 Hessian
   Martin Krupicka        : Initial AUTO-CI
   Lucas Lang             : DCDCAS
   Marvin Lechner         : AUTO-CI (C++ implementation), FIC-MRCC
   Dagmar Lenk            : GEPOL surface, SMD
   Dimitrios Liakos       : Extrapolation schemes; Compound Job, initial MDCI parallelization
   Dimitrios Manganas     : Further ROCIS development; embedding schemes
   Dimitrios Pantazis     : SARC Basis sets
   Anastasios Papadopoulos: AUTO-CI, single reference methods and gradients
   Taras Petrenko         : DFT Hessian,TD-DFT gradient, ASA, ECA, R-Raman, ABS, FL, XAS/XES, NRVS
   Peter Pinski           : DLPNO-MP2, DLPNO-MP2 Gradient
   Christoph Reimann      : Effective Core Potentials
   Marius Retegan         : Local ZFS, SOC
   Christoph Riplinger    : Optimizer, TS searches, QM/MM, DLPNO-CCSD(T), (RO)-DLPNO pert. Triples
   Tobias Risthaus        : Range-separated hybrids, TD-DFT gradient, RPA, STAB
   Michael Roemelt        : Original ROCIS implementation
   Masaaki Saitow         : Open-shell DLPNO-CCSD energy and density
   Barbara Sandhoefer     : DKH picture change effects
   Avijit Sen             : IP-ROCIS
   Kantharuban Sivalingam : CASSCF convergence, NEVPT2, FIC-MRCI
   Bernardo de Souza      : ESD, SOC TD-DFT
   Georgi Stoychev        : AutoAux, RI-MP2 NMR, DLPNO-MP2 response
   Willem Van den Heuvel  : Paramagnetic NMR
   Boris Wezisla          : Elementary symmetry handling
   Frank Wennmohs         : Technical directorship


 We gratefully acknowledge several colleagues who have allowed us to
 interface, adapt or use parts of their codes:
   Stefan Grimme, W. Hujo, H. Kruse, P. Pracht,  : VdW corrections, initial TS optimization,
                  C. Bannwarth, S. Ehlert          DFT functionals, gCP, sTDA/sTD-DF
   Ed Valeev, F. Pavosevic, A. Kumar             : LibInt (2-el integral package), F12 methods
   Garnet Chan, S. Sharma, J. Yang, R. Olivares  : DMRG
   Ulf Ekstrom                                   : XCFun DFT Library
   Mihaly Kallay                                 : mrcc  (arbitrary order and MRCC methods)
   Jiri Pittner, Ondrej Demel                    : Mk-CCSD
   Frank Weinhold                                : gennbo (NPA and NBO analysis)
   Christopher J. Cramer and Donald G. Truhlar   : smd solvation model
   Lars Goerigk                                  : TD-DFT with DH, B97 family of functionals
   V. Asgeirsson, H. Jonsson                     : NEB implementation
   FAccTs GmbH                                   : IRC, NEB, NEB-TS, DLPNO-Multilevel, CI-OPT
                                                   MM, QMMM, 2- and 3-layer-ONIOM, Crystal-QMMM,
                                                   LR-CPCM, SF, NACMEs, symmetry and pop. for TD-DFT,
                                                   nearIR, NL-DFT gradient (VV10), updates on ESD,
                                                   ML-optimized integration grids
   S Lehtola, MJT Oliveira, MAL Marques          : LibXC Library
   Liviu Ungur et al                             : ANISO software


 Your calculation uses the libint2 library for the computation of 2-el integrals
 For citations please refer to: http://libint.valeyev.net

 Your ORCA version has been built with support for libXC version: 5.1.0
 For citations please refer to: https://tddft.org/programs/libxc/

 This ORCA versions uses:
   CBLAS   interface :  Fast vector & matrix operations
   LAPACKE interface :  Fast linear algebra routines
   SCALAPACK package :  Parallel linear algebra routines
   Shared memory     :  Shared parallel matrices
   BLAS/LAPACK       :  OpenBLAS 0.3.15  USE64BITINT DYNAMIC_ARCH NO_AFFINITY Haswell SINGLE_THREADED
        Core in use  :  Haswell
   Copyright (c) 2011-2014, The OpenBLAS Project


Your calculation utilizes the atom-pairwise dispersion correction
with the Becke-Johnson damping scheme (D3BJ)
Cite in your paper:
S.Grimme, S.Ehrlich, L.Goerigk, J Comput Chem, (2011), 32, 1456–1465 
S.Grimme, J.Antony, S.Ehrlich and H.Krieg, J.Chem.Phys., 132, (2010), 154104 
   

================================================================================

----- Orbital basis set information -----
Your calculation utilizes the basis: def2-TZVP
   F. Weigend and R. Ahlrichs, Phys. Chem. Chem. Phys. 7, 3297 (2005).

----- AuxJ basis set information -----
Your calculation utilizes the auxiliary basis: def2/J
   F. Weigend, Phys. Chem. Chem. Phys. 8, 1057 (2006).

================================================================================
                                        WARNINGS
                       Please study these warnings very carefully!
================================================================================


WARNING: Geometry Optimization
  ===> : Switching off AutoStart
         For restart on a previous wavefunction, please use MOREAD

INFO   : the flag for use of the SHARK integral package has been found!

================================================================================
                                       INPUT FILE
================================================================================
NAME = inp.inp
|  1> !OPT PBE D3BJ def2-TZVP CPCM(water)
|  2> 
|  3> *xyz -1 1
|  4> C     -4.851962   -2.758241    2.223928
|  5> C     -5.920887   -3.384325    3.054301
|  6> H     -5.113755   -1.727019    1.966360
|  7> H     -3.915192   -2.731893    2.790984
|  8> H     -4.661634   -3.324844    1.306934
|  9> C     -7.214951   -3.766522    2.561984
| 10> H     -5.741385   -3.496113    4.116605
| 11> H     -8.370280   -3.638239    4.347705
| 12> C     -8.298026   -4.281676    3.461247
| 13> H     -9.282450   -4.235484    2.975692
| 14> C     -8.047709   -5.716582    3.911707
| 15> O     -7.470957   -3.576198    1.352526
| 16> H     -7.109002   -5.802891    4.469014
| 17> H     -8.857709   -6.050632    4.567898
| 18> H     -8.002073   -6.398808    3.056438
| 19> *
| 20> 
| 21>                          ****END OF INPUT****
================================================================================

                       *****************************
                       * Geometry Optimization Run *
                       *****************************

Geometry optimization settings:
Update method            Update   .... BFGS
Choice of coordinates    CoordSys .... Z-matrix Internals
Initial Hessian          InHess   .... Almoef's Model

Convergence Tolerances:
Energy Change            TolE     ....  5.0000e-06 Eh
Max. Gradient            TolMAXG  ....  3.0000e-04 Eh/bohr
RMS Gradient             TolRMSG  ....  1.0000e-04 Eh/bohr
Max. Displacement        TolMAXD  ....  4.0000e-03 bohr
RMS Displacement         TolRMSD  ....  2.0000e-03 bohr
Strict Convergence                ....  False
------------------------------------------------------------------------------
                        ORCA OPTIMIZATION COORDINATE SETUP
------------------------------------------------------------------------------

The optimization will be done in new redundant internal coordinates
Making redundant internal coordinates   ...  (new redundants) done
Evaluating the initial hessian          ...  (Almloef) done
Evaluating the coordinates              ...  done
Calculating the B-matrix                .... done
Calculating the G-matrix                .... done
Diagonalizing the G-matrix              .... done
The first mode is                       ....   24
The number of degrees of freedom        ....   39

    -----------------------------------------------------------------
                    Redundant Internal Coordinates


    -----------------------------------------------------------------
         Definition                    Initial Value    Approx d2E/dq
    -----------------------------------------------------------------
      1. B(C   1,C   0)                  1.4913         0.430580   
      2. B(H   2,C   0)                  1.0947         0.353979   
      3. B(H   3,C   0)                  1.0953         0.353096   
      4. B(H   4,C   0)                  1.0946         0.354070   
      5. B(C   5,C   1)                  1.4363         0.527008   
      6. B(H   6,C   1)                  1.0831         0.369281   
      7. B(C   8,C   5)                  1.4990         0.418580   
      8. B(C   8,H   7)                  1.0977         0.350001   
      9. B(H   9,C   8)                  1.0986         0.348863   
     10. B(C  10,C   8)                  1.5246         0.381003   
     11. B(O  11,C   5)                  1.2508         0.933100   
     12. B(H  12,C  10)                  1.0951         0.353436   
     13. B(H  13,C  10)                  1.0947         0.353991   
     14. B(H  14,C  10)                  1.0950         0.353561   
     15. A(C   1,C   0,H   4)          111.9484         0.331079   
     16. A(C   1,C   0,H   2)          110.7982         0.331064   
     17. A(H   3,C   0,H   4)          107.3040         0.289178   
     18. A(H   2,C   0,H   3)          107.6788         0.289166   
     19. A(C   1,C   0,H   3)          109.5625         0.330928   
     20. A(H   2,C   0,H   4)          109.3965         0.289291   
     21. A(C   0,C   1,C   5)          124.5149         0.395260   
     22. A(C   5,C   1,H   6)          117.2587         0.344832   
     23. A(C   0,C   1,H   6)          118.0750         0.333394   
     24. A(C   1,C   5,C   8)          122.4643         0.393307   
     25. A(C   8,C   5,O  11)          118.9778         0.432464   
     26. A(C   1,C   5,O  11)          118.3811         0.450846   
     27. A(H   7,C   8,C  10)          108.8969         0.323853   
     28. A(C   5,C   8,C  10)          112.4606         0.371764   
     29. A(H   7,C   8,H   9)          105.8593         0.288110   
     30. A(C   5,C   8,H   9)          111.5816         0.328730   
     31. A(C   5,C   8,H   7)          109.3024         0.328906   
     32. A(H   9,C   8,C  10)          108.4976         0.323680   
     33. A(H  13,C  10,H  14)          107.9944         0.289227   
     34. A(H  12,C  10,H  14)          108.2203         0.289156   
     35. A(C   8,C  10,H  14)          111.2504         0.324391   
     36. A(H  12,C  10,H  13)          107.7684         0.289211   
     37. A(C   8,C  10,H  13)          110.0491         0.324456   
     38. A(C   8,C  10,H  12)          111.4244         0.324373   
     39. D(H   6,C   1,C   0,H   2)   -104.0694         0.013692   
     40. D(C   5,C   1,C   0,H   4)    -51.0914         0.013692   
     41. D(H   6,C   1,C   0,H   3)     14.5977         0.013692   
     42. D(H   6,C   1,C   0,H   4)    133.5137         0.013692   
     43. D(C   5,C   1,C   0,H   3)   -170.0074         0.013692   
     44. D(C   5,C   1,C   0,H   2)     71.3255         0.013692   
     45. D(C   8,C   5,C   1,C   0)   -174.4964         0.018952   
     46. D(O  11,C   5,C   1,H   6)    176.0473         0.018952   
     47. D(O  11,C   5,C   1,C   0)      0.6181         0.018952   
     48. D(C   8,C   5,C   1,H   6)      0.9328         0.018952   
     49. D(H   9,C   8,C   5,O  11)    -12.1216         0.012958   
     50. D(H   9,C   8,C   5,C   1)    162.9649         0.012958   
     51. D(H   7,C   8,C   5,O  11)   -128.8603         0.012958   
     52. D(C  10,C   8,C   5,C   1)    -74.8460         0.012958   
     53. D(H   7,C   8,C   5,C   1)     46.2262         0.012958   
     54. D(C  10,C   8,C   5,O  11)    110.0674         0.012958   
     55. D(H  14,C  10,C   8,H   9)     63.3345         0.011566   
     56. D(H  14,C  10,C   8,H   7)    178.1123         0.011566   
     57. D(H  13,C  10,C   8,H   9)    -56.3198         0.011566   
     58. D(H  13,C  10,C   8,H   7)     58.4580         0.011566   
     59. D(H  13,C  10,C   8,C   5)    179.7622         0.011566   
     60. D(H  14,C  10,C   8,C   5)    -60.5836         0.011566   
     61. D(H  12,C  10,C   8,H   9)   -175.8030         0.011566   
     62. D(H  12,C  10,C   8,H   7)    -61.0252         0.011566   
     63. D(H  12,C  10,C   8,C   5)     60.2790         0.011566   
    -----------------------------------------------------------------

Number of atoms                         .... 15
Number of degrees of freedom            .... 63

         *************************************************************
         *                GEOMETRY OPTIMIZATION CYCLE   1            *
         *************************************************************
---------------------------------
CARTESIAN COORDINATES (ANGSTROEM)
---------------------------------
  C     -4.851962   -2.758241    2.223928
  C     -5.920887   -3.384325    3.054301
  H     -5.113755   -1.727019    1.966360
  H     -3.915192   -2.731893    2.790984
  H     -4.661634   -3.324844    1.306934
  C     -7.214951   -3.766522    2.561984
  H     -5.741385   -3.496113    4.116605
  H     -8.370280   -3.638239    4.347705
  C     -8.298026   -4.281676    3.461247
  H     -9.282450   -4.235484    2.975692
  C     -8.047709   -5.716582    3.911707
  O     -7.470957   -3.576198    1.352526
  H     -7.109002   -5.802891    4.469014
  H     -8.857709   -6.050632    4.567898
  H     -8.002073   -6.398808    3.056438

----------------------------
CARTESIAN COORDINATES (A.U.)
----------------------------
  NO LB      ZA    FRAG     MASS         X           Y           Z
   0 C     6.0000    0    12.011   -9.168879   -5.212320    4.202615
   1 C     6.0000    0    12.011  -11.188855   -6.395447    5.771792
   2 H     1.0000    0     1.008   -9.663596   -3.263593    3.715882
   3 H     1.0000    0     1.008   -7.398641   -5.162530    5.274195
   4 H     1.0000    0     1.008   -8.809212   -6.283045    2.469747
   5 C     6.0000    0    12.011  -13.634281   -7.117695    4.841448
   6 H     1.0000    0     1.008  -10.849645   -6.606696    7.779256
   7 H     1.0000    0     1.008  -15.817537   -6.875275    8.215972
   8 C     6.0000    0    12.011  -15.680997   -8.091195    6.540809
   9 H     1.0000    0     1.008  -17.541288   -8.003905    5.623243
  10 C     6.0000    0    12.011  -15.207966  -10.802774    7.392055
  11 O     8.0000    0    15.999  -14.118063   -6.758035    2.555904
  12 H     1.0000    0     1.008  -13.434067  -10.965875    8.445213
  13 H     1.0000    0     1.008  -16.738644  -11.434037    8.632076
  14 H     1.0000    0     1.008  -15.121726  -12.091995    5.775831

--------------------------------
INTERNAL COORDINATES (ANGSTROEM)
--------------------------------
 C      0   0   0     0.000000000000     0.00000000     0.00000000
 C      1   0   0     1.491342063314     0.00000000     0.00000000
 H      1   2   0     1.094666918636   110.79819061     0.00000000
 H      1   2   3     1.095346866130   109.56249087   118.66704333
 H      1   2   3     1.094596593832   111.94844374   237.58310455
 C      2   1   3     1.436332904098   124.51492521    71.32553277
 H      2   1   3     1.083146949109   118.07497271   255.93062926
 H      6   2   1     2.130737223632   100.67478421   206.43685975
 C      8   6   2     1.097742956820    41.60425122   218.31349327
 H      9   8   6     1.098630042674   105.85927096   239.69146501
 C      9   8   6     1.524640298866   108.89694240   123.21335287
 O      6   2   1     1.250820111277   118.38114858     0.61810415
 H     11   9   8     1.095085004727   111.42439980   298.97478087
 H     11   9   8     1.094657951591   110.04909281    58.45802992
 H     11   9   8     1.094988594431   111.25044231   178.11226721

---------------------------
INTERNAL COORDINATES (A.U.)
---------------------------
 C      0   0   0     0.000000000000     0.00000000     0.00000000
 C      1   0   0     2.818228071661     0.00000000     0.00000000
 H      1   2   0     2.068620684086   110.79819061     0.00000000
 H      1   2   3     2.069905598634   109.56249087   118.66704333
 H      1   2   3     2.068487789466   111.94844374   237.58310455
 C      2   1   3     2.714275825885   124.51492521    71.32553277
 H      2   1   3     2.046851096608   118.07497271   255.93062926
 H      6   2   1     4.026509816016   100.67478421   206.43685975
 C      8   6   2     2.074433553832    41.60425122   218.31349327
 H      9   8   6     2.076109903151   105.85927096   239.69146501
 C      9   8   6     2.881152617596   108.89694240   123.21335287
 O      6   2   1     2.363707453115   118.38114858     0.61810415
 H     11   9   8     2.069410752299   111.42439980   298.97478087
 H     11   9   8     2.068603738826   110.04909281    58.45802992
 H     11   9   8     2.069228563241   111.25044231   178.11226721

---------------------
BASIS SET INFORMATION
---------------------
There are 3 groups of distinct atoms

 Group   1 Type C   : 11s6p2d1f contracted to 5s3p2d1f pattern {62111/411/11/1}
 Group   2 Type H   : 5s1p contracted to 3s1p pattern {311/1}
 Group   3 Type O   : 11s6p2d1f contracted to 5s3p2d1f pattern {62111/411/11/1}

Atom   0C    basis set group =>   1
Atom   1C    basis set group =>   1
Atom   2H    basis set group =>   2
Atom   3H    basis set group =>   2
Atom   4H    basis set group =>   2
Atom   5C    basis set group =>   1
Atom   6H    basis set group =>   2
Atom   7H    basis set group =>   2
Atom   8C    basis set group =>   1
Atom   9H    basis set group =>   2
Atom  10C    basis set group =>   1
Atom  11O    basis set group =>   3
Atom  12H    basis set group =>   2
Atom  13H    basis set group =>   2
Atom  14H    basis set group =>   2
---------------------------------
AUXILIARY/J BASIS SET INFORMATION
---------------------------------
There are 3 groups of distinct atoms

 Group   1 Type C   : 12s5p4d2f1g contracted to 6s4p3d1f1g pattern {711111/2111/211/2/1}
 Group   2 Type H   : 5s2p1d contracted to 3s1p1d pattern {311/2/1}
 Group   3 Type O   : 12s5p4d2f1g contracted to 6s4p3d1f1g pattern {711111/2111/211/2/1}

Atom   0C    basis set group =>   1
Atom   1C    basis set group =>   1
Atom   2H    basis set group =>   2
Atom   3H    basis set group =>   2
Atom   4H    basis set group =>   2
Atom   5C    basis set group =>   1
Atom   6H    basis set group =>   2
Atom   7H    basis set group =>   2
Atom   8C    basis set group =>   1
Atom   9H    basis set group =>   2
Atom  10C    basis set group =>   1
Atom  11O    basis set group =>   3
Atom  12H    basis set group =>   2
Atom  13H    basis set group =>   2
Atom  14H    basis set group =>   2
------------------------------------------------------------------------------
                           ORCA GTO INTEGRAL CALCULATION
                           -- RI-GTO INTEGRALS CHOSEN --
------------------------------------------------------------------------------
------------------------------------------------------------------------------
                   ___                                                        
                  /   \      - P O W E R E D   B Y -                         
                 /     \                                                     
                 |  |  |   _    _      __       _____    __    __             
                 |  |  |  | |  | |    /  \     |  _  \  |  |  /  |          
                  \  \/   | |  | |   /    \    | | | |  |  | /  /          
                 / \  \   | |__| |  /  /\  \   | |_| |  |  |/  /          
                |  |  |   |  __  | /  /__\  \  |    /   |      \           
                |  |  |   | |  | | |   __   |  |    \   |  |\   \          
                \     /   | |  | | |  |  |  |  | |\  \  |  | \   \       
                 \___/    |_|  |_| |__|  |__|  |_| \__\ |__|  \__/        
                                                                              
                      - O R C A' S   B I G   F R I E N D -                    
                                      &                                       
                       - I N T E G R A L  F E E D E R -                       
                                                                              
 v1 FN, 2020, v2 2021                                                         
------------------------------------------------------------------------------


Reading SHARK input file inp.SHARKINP.tmp ... ok
----------------------
SHARK INTEGRAL PACKAGE
----------------------

Number of atoms                             ...     15
Number of basis functions                   ...    240
Number of shells                            ...    102
Maximum angular momentum                    ...      3
Integral batch strategy                     ... SHARK/LIBINT Hybrid
RI-J (if used) integral strategy            ... SPLIT-RIJ (Revised 2003 algorithm where possible)
Printlevel                                  ...      1
Contraction scheme used                     ... SEGMENTED contraction
Coulomb Range Separation                    ... NOT USED
Exchange Range Separation                   ... NOT USED
Finite Nucleus Model                        ... NOT USED
Auxiliary Coulomb fitting basis             ... AVAILABLE
   # of basis functions in Aux-J            ...    393
   # of shells in Aux-J                     ...    135
   Maximum angular momentum in Aux-J        ...      4
Auxiliary J/K fitting basis                 ... NOT available
Auxiliary Correlation fitting basis         ... NOT available
Auxiliary 'external' fitting basis          ... NOT available
Integral threshold                          ...     2.500000e-11
Primitive cut-off                           ...     2.500000e-12
Primitive pair pre-selection threshold      ...     2.500000e-12

Calculating pre-screening integrals         ... done (  0.1 sec) Dimension = 102
Organizing shell pair data                  ... done (  0.2 sec)
Shell pair information
Total number of shell pairs                 ...      5253
Shell pairs after pre-screening             ...      4874
Total number of primitive shell pairs       ...     15384
Primitive shell pairs kept                  ...     11063
          la=0 lb=0:   1488 shell pairs
          la=1 lb=0:   1427 shell pairs
          la=1 lb=1:    355 shell pairs
          la=2 lb=0:    648 shell pairs
          la=2 lb=1:    312 shell pairs
          la=2 lb=2:     77 shell pairs
          la=3 lb=0:    320 shell pairs
          la=3 lb=1:    156 shell pairs
          la=3 lb=2:     70 shell pairs
          la=3 lb=3:     21 shell pairs

Calculating one electron integrals          ... done (  0.0 sec)
Calculating RI/J V-Matrix + Cholesky decomp.... done (  0.2 sec)
Calculating Nuclear repulsion               ... done (  0.0 sec) ENN=    228.726302483322 Eh

SHARK setup successfully completed in   1.4 seconds

Maximum memory used throughout the entire GTOINT-calculation: 61.5 MB
-------------------------------------------------------------------------------
                                 ORCA SCF
-------------------------------------------------------------------------------

------------
SCF SETTINGS
------------
Hamiltonian:
 Density Functional     Method          .... DFT(GTOs)
 Exchange Functional    Exchange        .... PBE
   PBE kappa parameter   XKappa         ....  0.804000
   PBE mue parameter    XMuePBE         ....  0.219520
 Correlation Functional Correlation     .... PBE
   PBE beta parameter  CBetaPBE         ....  0.066725
 LDA part of GGA corr.  LDAOpt          .... PW91-LDA
 Gradients option       PostSCFGGA      .... off
   Density functional embedding theory  .... OFF
   NL short-range parameter             ....  6.400000
 RI-approximation to the Coulomb term is turned on
   Number of AuxJ basis functions       .... 393


General Settings:
 Integral files         IntName         .... inp
 Hartree-Fock type      HFTyp           .... RHF
 Total Charge           Charge          ....   -1
 Multiplicity           Mult            ....    1
 Number of Electrons    NEL             ....   48
 Basis Dimension        Dim             ....  240
 Nuclear Repulsion      ENuc            ....    228.7263024833 Eh

Convergence Acceleration:
 DIIS                   CNVDIIS         .... on
   Start iteration      DIISMaxIt       ....    12
   Startup error        DIISStart       ....  0.200000
   # of expansion vecs  DIISMaxEq       ....     5
   Bias factor          DIISBfac        ....   1.050
   Max. coefficient     DIISMaxC        ....  10.000
 Trust-Rad. Augm. Hess. CNVTRAH         .... auto
   Auto Start mean grad. ratio tolernc. ....  1.125000
   Auto Start start iteration           ....    20
   Auto Start num. interpolation iter.  ....    10
   Max. Number of Micro iterations      ....    16
   Max. Number of Macro iterations      .... Maxiter - #DIIS iter
   Number of Davidson start vectors     ....     2
   Converg. threshold I  (grad. norm)   ....   1.000e-05
   Converg. threshold II (energy diff.) ....   1.000e-08
   Grad. Scal. Fac. for Micro threshold ....   0.100
   Minimum threshold for Micro iter.    ....   0.010
   NR start threshold (gradient norm)   ....   0.001
   Initial trust radius                 ....   0.400
   Minimum AH scaling param. (alpha)    ....   1.000
   Maximum AH scaling param. (alpha)    .... 1000.000
   Orbital update algorithm             .... Taylor
   White noise on init. David. guess    .... on
   Maximum white noise                  ....   0.010
   Quad. conv. algorithm                .... NR
 SOSCF                  CNVSOSCF        .... on
   Start iteration      SOSCFMaxIt      ....   150
   Startup grad/error   SOSCFStart      ....  0.003300
 Level Shifting         CNVShift        .... on
   Level shift para.    LevelShift      ....    0.2500
   Turn off err/grad.   ShiftErr        ....    0.0010
 Zerner damping         CNVZerner       .... off
 Static damping         CNVDamp         .... on
   Fraction old density DampFac         ....    0.7000
   Max. Damping (<1)    DampMax         ....    0.9800
   Min. Damping (>=0)   DampMin         ....    0.0000
   Turn off err/grad.   DampErr         ....    0.1000
 Fernandez-Rico         CNVRico         .... off

SCF Procedure:
 Maximum # iterations   MaxIter         ....   125
 SCF integral mode      SCFMode         .... Direct
   Integral package                     .... SHARK and LIBINT hybrid scheme
 Reset frequency        DirectResetFreq ....    20
 Integral Threshold     Thresh          ....  2.500e-11 Eh
 Primitive CutOff       TCut            ....  2.500e-12 Eh

Convergence Tolerance:
 Convergence Check Mode ConvCheckMode   .... Total+1el-Energy
 Convergence forced     ConvForced      .... 0
 Energy Change          TolE            ....  1.000e-08 Eh
 1-El. energy change                    ....  1.000e-05 Eh
 Orbital Gradient       TolG            ....  1.000e-05
 Orbital Rotation angle TolX            ....  1.000e-05
 DIIS Error             TolErr          ....  5.000e-07


Diagonalization of the overlap matrix:
Smallest eigenvalue                        ... 1.905e-04
Time for diagonalization                   ...    0.013 sec
Threshold for overlap eigenvalues          ... 1.000e-08
Number of eigenvalues below threshold      ... 0
Time for construction of square roots      ...    0.115 sec
Total time needed                          ...    0.129 sec

Time for model grid setup =    0.343 sec

------------------------------
INITIAL GUESS: MODEL POTENTIAL
------------------------------
Loading Hartree-Fock densities                     ... done
Calculating cut-offs                               ... done
Initializing the effective Hamiltonian             ... done
Setting up the integral package (SHARK)            ... done
Starting the Coulomb interaction                   ... done (   0.4 sec)
Reading the grid                                   ... done
Mapping shells                                     ... done
Starting the XC term evaluation                    ... done (   0.3 sec)
  promolecular density results
     # of electrons  =     46.994728039
     EX              =    -36.317556025
     EC              =     -1.521684941
     EX+EC           =    -37.839240966
Transforming the Hamiltonian                       ... done (   0.0 sec)
Diagonalizing the Hamiltonian                      ... done (   0.0 sec)
Back transforming the eigenvectors                 ... done (   0.0 sec)
Now organizing SCF variables                       ... done
                      ------------------
                      INITIAL GUESS DONE (   1.1 sec)
                      ------------------
-------------------
DFT GRID GENERATION
-------------------

General Integration Accuracy     IntAcc      ... 4.388
Radial Grid Type                 RadialGrid  ... OptM3 with GC (2021)
Angular Grid (max. ang.)         AngularGrid ... 4 (Lebedev-302)
Angular grid pruning method      GridPruning ... 4 (adaptive)
Weight generation scheme         WeightScheme... Becke
Basis function cutoff            BFCut       ... 1.0000e-11
Integration weight cutoff        WCut        ... 1.0000e-14
Angular grids for H and He will be reduced by one unit
Partially contracted basis set               ... off
Rotationally invariant grid construction     ... off

Total number of grid points                  ...    65322
Total number of batches                      ...     1028
Average number of points per batch           ...       63
Average number of grid points per atom       ...     4355
Time for grid setup =    0.890 sec


--------------------
CPCM SOLVATION MODEL
--------------------
CPCM parameters:
  Epsilon                                         ...      80.4000
  Refrac                                          ...       1.3300
  Rsolv                                           ...       1.3000
  Surface type                                    ... GAUSSIAN VDW
  Epsilon function type                           ...         CPCM
Radii:
 Radius for C  used is    3.8550 Bohr (=   2.0400 Ang.)
 Radius for H  used is    2.4944 Bohr (=   1.3200 Ang.)
 Radius for O  used is    3.4469 Bohr (=   1.8240 Ang.)
Calculating surface                               ...        done! (  0.0s)
GEPOL surface points                              ...          889
GEPOL Volume                                      ...     855.2676
GEPOL Surface-area                                ...     520.9733
Calculating surface distance matrix               ...        done! (  0.0s)
Performing Cholesky decomposition & store         ...        done! (  0.1s)
Overall time for CPCM initialization              ...                 0.1s
--------------
SCF ITERATIONS
--------------
ITER       Energy         Delta-E        Max-DP      RMS-DP      [F,P]     Damp
               ***  Starting incremental Fock matrix formation  ***
  0   -270.6887132316   0.000000000000 0.50281912  0.00505579  0.3366248 0.7000
  1   -270.8545212465  -0.165808014910 0.38700771  0.00405639  0.1086978 0.7000
                               ***Turning on DIIS***
  2   -270.9066486190  -0.052127372439 0.21132655  0.00376532  0.0275231 0.0000
  3   -270.9881256360  -0.081477017043 0.37359351  0.00373604  0.0646270 0.0000
  4   -271.0130072210  -0.024881584991 0.07807008  0.00093989  0.0259738 0.0000
  5   -271.0156885706  -0.002681349530 0.04354458  0.00050644  0.0107285 0.0000
                      *** Initiating the SOSCF procedure ***
                           *** Shutting down DIIS ***
                      *** Re-Reading the Fockian *** 
                      *** Removing any level shift *** 
ITER      Energy       Delta-E        Grad      Rot      Max-DP    RMS-DP
  6   -271.01595335  -0.0002647830  0.000490  0.000490  0.035903  0.000398
               *** Restarting incremental Fock matrix formation ***
  7   -271.01596963  -0.0000162749  0.000276  0.000648  0.009011  0.000100
  8   -271.01596125   0.0000083746  0.000499  0.000464  0.005717  0.000062
  9   -271.01597298  -0.0000117286  0.000077  0.000215  0.000519  0.000009
 10   -271.01597251   0.0000004740  0.000136  0.000159  0.000349  0.000006
 11   -271.01597312  -0.0000006164  0.000029  0.000184  0.000689  0.000008
 12   -271.01597302   0.0000001090  0.000067  0.000128  0.000483  0.000005
                  ***Gradient check signals convergence***
              ***Rediagonalizing the Fockian in SOSCF/NRSCF***

               *****************************************************
               *                     SUCCESS                       *
               *           SCF CONVERGED AFTER  13 CYCLES          *
               *****************************************************


----------------
TOTAL SCF ENERGY
----------------

Total Energy       :         -271.01597315 Eh           -7374.71955 eV

Components:
Nuclear Repulsion  :          228.72630248 Eh            6223.95911 eV
Electronic Energy  :         -499.74227563 Eh          -13598.67866 eV
One Electron Energy:         -829.66975218 Eh          -22576.46172 eV
Two Electron Energy:          329.92747655 Eh            8977.78306 eV
CPCM Dielectric    :           -0.10191275 Eh              -2.77319 eV

Virial components:
Potential Energy   :         -540.94250683 Eh          -14719.79395 eV
Kinetic Energy     :          269.92653368 Eh            7345.07440 eV
Virial Ratio       :            2.00403606


DFT components:
N(Alpha)           :       23.999986558308 electrons
N(Beta)            :       23.999986558308 electrons
N(Total)           :       47.999973116616 electrons
E(X)               :      -37.438251549790 Eh       
E(C)               :       -1.562828076879 Eh       
E(XC)              :      -39.001079626669 Eh       
DFET-embed. en.    :        0.000000000000 Eh       
CPCM Solvation Model Properties:
Surface-charge          :            0.96172986
Charge-correction       :           -0.00615525 Eh              -0.16749 eV
Free-energy (cav+disp)  :  This term is not implemented in the current solvation scheme

---------------
SCF CONVERGENCE
---------------

  Last Energy change         ...   -1.2968e-07  Tolerance :   1.0000e-08
  Last MAX-Density change    ...    5.0864e-06  Tolerance :   1.0000e-07
  Last RMS-Density change    ...    1.3573e-07  Tolerance :   5.0000e-09
  Last Orbital Gradient      ...    1.0660e-06  Tolerance :   1.0000e-05
  Last Orbital Rotation      ...    1.7886e-06  Tolerance :   1.0000e-05

             **** THE GBW FILE WAS UPDATED (inp.gbw) ****
             **** DENSITY inp.scfp WAS UPDATED ****
             **** ENERGY FILE WAS UPDATED (inp.en.tmp) ****
             **** THE GBW FILE WAS UPDATED (inp.gbw) ****
             **** DENSITY inp.scfp WAS UPDATED ****
----------------
ORBITAL ENERGIES
----------------

  NO   OCC          E(Eh)            E(eV) 
   0   2.0000     -18.648029      -507.4387 
   1   2.0000      -9.878465      -268.8067 
   2   2.0000      -9.856497      -268.2089 
   3   2.0000      -9.852666      -268.1047 
   4   2.0000      -9.845901      -267.9206 
   5   2.0000      -9.805684      -266.8262 
   6   2.0000      -0.865118       -23.5411 
   7   2.0000      -0.679913       -18.5014 
   8   2.0000      -0.642095       -17.4723 
   9   2.0000      -0.562732       -15.3127 
  10   2.0000      -0.516446       -14.0532 
  11   2.0000      -0.414339       -11.2747 
  12   2.0000      -0.383863       -10.4455 
  13   2.0000      -0.376704       -10.2506 
  14   2.0000      -0.347486        -9.4556 
  15   2.0000      -0.336403        -9.1540 
  16   2.0000      -0.319812        -8.7025 
  17   2.0000      -0.313740        -8.5373 
  18   2.0000      -0.295592        -8.0435 
  19   2.0000      -0.276084        -7.5126 
  20   2.0000      -0.264762        -7.2046 
  21   2.0000      -0.255571        -6.9544 
  22   2.0000      -0.146227        -3.9790 
  23   2.0000      -0.107420        -2.9231 
  24   0.0000       0.027496         0.7482 
  25   0.0000       0.044565         1.2127 
  26   0.0000       0.057125         1.5544 
  27   0.0000       0.074351         2.0232 
  28   0.0000       0.075603         2.0573 
  29   0.0000       0.097839         2.6623 
  30   0.0000       0.106198         2.8898 
  31   0.0000       0.116231         3.1628 
  32   0.0000       0.122021         3.3204 
  33   0.0000       0.137238         3.7344 
  34   0.0000       0.154362         4.2004 
  35   0.0000       0.164130         4.4662 
  36   0.0000       0.172886         4.7045 
  37   0.0000       0.185673         5.0524 
  38   0.0000       0.191075         5.1994 
  39   0.0000       0.219522         5.9735 
  40   0.0000       0.225893         6.1469 
  41   0.0000       0.239192         6.5087 
  42   0.0000       0.249292         6.7836 
  43   0.0000       0.268430         7.3043 
  44   0.0000       0.284595         7.7442 
  45   0.0000       0.305849         8.3226 
  46   0.0000       0.318381         8.6636 
  47   0.0000       0.342553         9.3214 
  48   0.0000       0.354772         9.6538 
  49   0.0000       0.379169        10.3177 
  50   0.0000       0.384785        10.4705 
  51   0.0000       0.390747        10.6328 
  52   0.0000       0.411611        11.2005 
  53   0.0000       0.414563        11.2808 
  54   0.0000       0.415546        11.3076 
  55   0.0000       0.421263        11.4631 
  56   0.0000       0.436861        11.8876 
  57   0.0000       0.443840        12.0775 
  58   0.0000       0.449655        12.2357 
  59   0.0000       0.458172        12.4675 
  60   0.0000       0.460626        12.5343 
  61   0.0000       0.478075        13.0091 
  62   0.0000       0.505545        13.7566 
  63   0.0000       0.514392        13.9973 
  64   0.0000       0.550301        14.9744 
  65   0.0000       0.559930        15.2365 
  66   0.0000       0.569279        15.4909 
  67   0.0000       0.577266        15.7082 
  68   0.0000       0.595830        16.2134 
  69   0.0000       0.653368        17.7790 
  70   0.0000       0.660631        17.9767 
  71   0.0000       0.686221        18.6730 
  72   0.0000       0.719586        19.5809 
  73   0.0000       0.742537        20.2055 
  74   0.0000       0.787092        21.4179 
  75   0.0000       0.814948        22.1759 
  76   0.0000       0.833564        22.6824 
  77   0.0000       0.853740        23.2314 
  78   0.0000       0.883001        24.0277 
  79   0.0000       0.895945        24.3799 
  80   0.0000       0.924192        25.1486 
  81   0.0000       0.929930        25.3047 
  82   0.0000       0.963215        26.2104 
  83   0.0000       0.975646        26.5487 
  84   0.0000       1.013984        27.5919 
  85   0.0000       1.042814        28.3764 
  86   0.0000       1.050976        28.5985 
  87   0.0000       1.065250        28.9869 
  88   0.0000       1.106402        30.1067 
  89   0.0000       1.110625        30.2216 
  90   0.0000       1.133340        30.8397 
  91   0.0000       1.196224        32.5509 
  92   0.0000       1.226461        33.3737 
  93   0.0000       1.228941        33.4412 
  94   0.0000       1.256372        34.1876 
  95   0.0000       1.308464        35.6051 
  96   0.0000       1.380312        37.5602 
  97   0.0000       1.445558        39.3356 
  98   0.0000       1.456268        39.6271 
  99   0.0000       1.463162        39.8147 
 100   0.0000       1.469937        39.9990 
 101   0.0000       1.476757        40.1846 
 102   0.0000       1.490167        40.5495 
 103   0.0000       1.494860        40.6772 
 104   0.0000       1.505579        40.9689 
 105   0.0000       1.517910        41.3044 
 106   0.0000       1.531484        41.6738 
 107   0.0000       1.540783        41.9268 
 108   0.0000       1.563705        42.5506 
 109   0.0000       1.597930        43.4819 
 110   0.0000       1.623826        44.1866 
 111   0.0000       1.652748        44.9735 
 112   0.0000       1.686651        45.8961 
 113   0.0000       1.736301        47.2472 
 114   0.0000       1.745402        47.4948 
 115   0.0000       1.755279        47.7636 
 116   0.0000       1.769758        48.1576 
 117   0.0000       1.796223        48.8777 
 118   0.0000       1.829367        49.7796 
 119   0.0000       1.879911        51.1550 
 120   0.0000       1.888980        51.4017 
 121   0.0000       1.944784        52.9203 
 122   0.0000       1.967278        53.5324 
 123   0.0000       1.971616        53.6504 
 124   0.0000       2.008993        54.6675 
 125   0.0000       2.032385        55.3040 
 126   0.0000       2.049456        55.7685 
 127   0.0000       2.101995        57.1982 
 128   0.0000       2.124535        57.8115 
 129   0.0000       2.148318        58.4587 
 130   0.0000       2.179181        59.2985 
 131   0.0000       2.219266        60.3893 
 132   0.0000       2.242467        61.0206 
 133   0.0000       2.265045        61.6350 
 134   0.0000       2.283997        62.1507 
 135   0.0000       2.293556        62.4108 
 136   0.0000       2.307357        62.7864 
 137   0.0000       2.325732        63.2864 
 138   0.0000       2.338454        63.6326 
 139   0.0000       2.376712        64.6736 
 140   0.0000       2.394195        65.1494 
 141   0.0000       2.413883        65.6851 
 142   0.0000       2.447052        66.5877 
 143   0.0000       2.474844        67.3439 
 144   0.0000       2.494562        67.8805 
 145   0.0000       2.508429        68.2578 
 146   0.0000       2.517872        68.5148 
 147   0.0000       2.537782        69.0566 
 148   0.0000       2.577820        70.1460 
 149   0.0000       2.598466        70.7079 
 150   0.0000       2.615700        71.1768 
 151   0.0000       2.633462        71.6601 
 152   0.0000       2.656382        72.2838 
 153   0.0000       2.686491        73.1031 
 154   0.0000       2.707660        73.6792 
 155   0.0000       2.739155        74.5362 
 156   0.0000       2.784767        75.7774 
 157   0.0000       2.792044        75.9754 
 158   0.0000       2.812841        76.5413 
 159   0.0000       2.858414        77.7814 
 160   0.0000       2.880703        78.3879 
 161   0.0000       2.899173        78.8905 
 162   0.0000       2.966862        80.7324 
 163   0.0000       2.969459        80.8031 
 164   0.0000       2.990109        81.3650 
 165   0.0000       3.003184        81.7208 
 166   0.0000       3.030381        82.4609 
 167   0.0000       3.040662        82.7406 
 168   0.0000       3.053188        83.0815 
 169   0.0000       3.076491        83.7156 
 170   0.0000       3.090929        84.1085 
 171   0.0000       3.113577        84.7247 
 172   0.0000       3.140651        85.4614 
 173   0.0000       3.158342        85.9428 
 174   0.0000       3.172480        86.3276 
 175   0.0000       3.184247        86.6478 
 176   0.0000       3.208571        87.3097 
 177   0.0000       3.234009        88.0019 
 178   0.0000       3.240291        88.1728 
 179   0.0000       3.274394        89.1008 
 180   0.0000       3.305994        89.9607 
 181   0.0000       3.318894        90.3117 
 182   0.0000       3.334343        90.7321 
 183   0.0000       3.339861        90.8822 
 184   0.0000       3.373872        91.8077 
 185   0.0000       3.402120        92.5764 
 186   0.0000       3.448252        93.8317 
 187   0.0000       3.469458        94.4088 
 188   0.0000       3.475650        94.5772 
 189   0.0000       3.562581        96.9428 
 190   0.0000       3.583037        97.4994 
 191   0.0000       3.599589        97.9498 
 192   0.0000       3.612573        98.3031 
 193   0.0000       3.646566        99.2281 
 194   0.0000       3.679906       100.1353 
 195   0.0000       3.746128       101.9373 
 196   0.0000       3.754718       102.1711 
 197   0.0000       3.808005       103.6211 
 198   0.0000       3.835192       104.3609 
 199   0.0000       3.868121       105.2569 
 200   0.0000       3.898178       106.0748 
 201   0.0000       3.924294       106.7855 
 202   0.0000       3.988748       108.5394 
 203   0.0000       4.036286       109.8329 
 204   0.0000       4.048099       110.1544 
 205   0.0000       4.095873       111.4544 
 206   0.0000       4.177632       113.6791 
 207   0.0000       4.231907       115.1561 
 208   0.0000       4.252172       115.7075 
 209   0.0000       4.310198       117.2865 
 210   0.0000       4.349677       118.3607 
 211   0.0000       4.363523       118.7375 
 212   0.0000       4.431963       120.5998 
 213   0.0000       4.468568       121.5959 
 214   0.0000       4.503507       122.5467 
 215   0.0000       4.520141       122.9993 
 216   0.0000       4.601312       125.2081 
 217   0.0000       4.713142       128.2511 
 218   0.0000       4.754540       129.3776 
 219   0.0000       4.850276       131.9827 
 220   0.0000       4.905367       133.4818 
 221   0.0000       4.930928       134.1774 
 222   0.0000       5.156445       140.3140 
 223   0.0000       5.165258       140.5538 
 224   0.0000       5.502751       149.7375 
 225   0.0000       5.614197       152.7701 
 226   0.0000       5.994619       163.1219 
 227   0.0000       6.193320       168.5288 
 228   0.0000       6.328291       172.2016 
 229   0.0000       6.407781       174.3646 
 230   0.0000       6.468955       176.0292 
 231   0.0000       6.754283       183.7934 
 232   0.0000       6.967703       189.6008 
 233   0.0000       6.986157       190.1030 
 234   0.0000      22.041483       599.7792 
 235   0.0000      22.117520       601.8483 
 236   0.0000      22.196988       604.0108 
 237   0.0000      22.303368       606.9055 
 238   0.0000      22.890820       622.8909 
 239   0.0000      43.565662      1185.4819 

                    ********************************
                    * MULLIKEN POPULATION ANALYSIS *
                    ********************************

-----------------------
MULLIKEN ATOMIC CHARGES
-----------------------
   0 C :   -0.356670
   1 C :   -0.488791
   2 H :    0.088098
   3 H :    0.105154
   4 H :    0.089311
   5 C :    0.108562
   6 H :    0.074762
   7 H :    0.080482
   8 C :   -0.116321
   9 H :    0.064487
  10 C :   -0.396313
  11 O :   -0.582821
  12 H :    0.111267
  13 H :    0.107898
  14 H :    0.110894
Sum of atomic charges:   -1.0000000

--------------------------------
MULLIKEN REDUCED ORBITAL CHARGES
--------------------------------
  0 C s       :     3.224159  s :     3.224159
      pz      :     1.018677  p :     3.066031
      px      :     1.026316
      py      :     1.021037
      dz2     :     0.012709  d :     0.062936
      dxz     :     0.011156
      dyz     :     0.011208
      dx2y2   :     0.021619
      dxy     :     0.006243
      f0      :     0.000181  f :     0.003544
      f+1     :     0.000437
      f-1     :     0.000517
      f+2     :     0.001063
      f-2     :     0.000393
      f+3     :     0.000732
      f-3     :     0.000221
  1 C s       :     3.233928  s :     3.233928
      pz      :     0.902255  p :     3.172689
      px      :     0.974440
      py      :     1.295995
      dz2     :     0.024549  d :     0.075546
      dxz     :     0.012726
      dyz     :     0.006597
      dx2y2   :     0.018296
      dxy     :     0.013377
      f0      :     0.000746  f :     0.006628
      f+1     :     0.001487
      f-1     :     0.000303
      f+2     :     0.001029
      f-2     :     0.000902
      f+3     :     0.001116
      f-3     :     0.001045
  2 H s       :     0.890883  s :     0.890883
      pz      :     0.005166  p :     0.021019
      px      :     0.005233
      py      :     0.010619
  3 H s       :     0.873999  s :     0.873999
      pz      :     0.006355  p :     0.020847
      px      :     0.009834
      py      :     0.004658
  4 H s       :     0.889689  s :     0.889689
      pz      :     0.009549  p :     0.020999
      px      :     0.005125
      py      :     0.006326
  5 C s       :     3.103426  s :     3.103426
      pz      :     0.781246  p :     2.610353
      px      :     0.922663
      py      :     0.906443
      dz2     :     0.038175  d :     0.161316
      dxz     :     0.045010
      dyz     :     0.039360
      dx2y2   :     0.015437
      dxy     :     0.023334
      f0      :     0.003402  f :     0.016343
      f+1     :     0.005015
      f-1     :     0.003079
      f+2     :     0.001758
      f-2     :     0.001111
      f+3     :     0.001086
      f-3     :     0.000892
  6 H s       :     0.901474  s :     0.901474
      pz      :     0.010776  p :     0.023764
      px      :     0.004855
      py      :     0.008133
  7 H s       :     0.898334  s :     0.898334
      pz      :     0.009146  p :     0.021184
      px      :     0.004771
      py      :     0.007267
  8 C s       :     3.133702  s :     3.133702
      pz      :     0.984188  p :     2.888094
      px      :     0.967436
      py      :     0.936469
      dz2     :     0.013164  d :     0.089153
      dxz     :     0.012324
      dyz     :     0.024945
      dx2y2   :     0.019167
      dxy     :     0.019553
      f0      :     0.000456  f :     0.005372
      f+1     :     0.000488
      f-1     :     0.000997
      f+2     :     0.001359
      f-2     :     0.000502
      f+3     :     0.000997
      f-3     :     0.000572
  9 H s       :     0.914416  s :     0.914416
      pz      :     0.005647  p :     0.021098
      px      :     0.010844
      py      :     0.004606
 10 C s       :     3.250580  s :     3.250580
      pz      :     1.055220  p :     3.087293
      px      :     1.062632
      py      :     0.969441
      dz2     :     0.002067  d :     0.055206
      dxz     :     0.009650
      dyz     :     0.019039
      dx2y2   :     0.010205
      dxy     :     0.014245
      f0      :     0.000096  f :     0.003234
      f+1     :     0.000018
      f-1     :     0.000722
      f+2     :     0.001170
      f-2     :     0.000217
      f+3     :     0.000632
      f-3     :     0.000378
 11 O s       :     3.745022  s :     3.745022
      pz      :     1.424135  p :     4.809282
      px      :     1.781057
      py      :     1.604090
      dz2     :     0.010059  d :     0.026919
      dxz     :     0.007406
      dyz     :     0.008092
      dx2y2   :     0.000630
      dxy     :     0.000732
      f0      :     0.000541  f :     0.001599
      f+1     :     0.000439
      f-1     :     0.000439
      f+2     :     0.000075
      f-2     :     0.000092
      f+3     :     0.000007
      f-3     :     0.000007
 12 H s       :     0.867667  s :     0.867667
      pz      :     0.006374  p :     0.021066
      px      :     0.009980
      py      :     0.004712
 13 H s       :     0.871136  s :     0.871136
      pz      :     0.007142  p :     0.020966
      px      :     0.008208
      py      :     0.005616
 14 H s       :     0.868270  s :     0.868270
      pz      :     0.008566  p :     0.020836
      px      :     0.004621
      py      :     0.007650


                     *******************************
                     * LOEWDIN POPULATION ANALYSIS *
                     *******************************

----------------------
LOEWDIN ATOMIC CHARGES
----------------------
   0 C :   -0.375050
   1 C :   -0.408488
   2 H :    0.105445
   3 H :    0.117841
   4 H :    0.106675
   5 C :   -0.509153
   6 H :    0.105328
   7 H :    0.136760
   8 C :   -0.288917
   9 H :    0.129200
  10 C :   -0.331138
  11 O :   -0.135900
  12 H :    0.115076
  13 H :    0.114692
  14 H :    0.117630

-------------------------------
LOEWDIN REDUCED ORBITAL CHARGES
-------------------------------
  0 C s       :     2.830193  s :     2.830193
      pz      :     1.079451  p :     3.216027
      px      :     1.069249
      py      :     1.067327
      dz2     :     0.055658  d :     0.301768
      dxz     :     0.063765
      dyz     :     0.059907
      dx2y2   :     0.090353
      dxy     :     0.032085
      f0      :     0.002874  f :     0.027062
      f+1     :     0.003640
      f-1     :     0.004282
      f+2     :     0.004922
      f-2     :     0.003153
      f+3     :     0.005375
      f-3     :     0.002816
  1 C s       :     2.806498  s :     2.806498
      pz      :     0.999313  p :     3.215835
      px      :     1.053739
      py      :     1.162783
      dz2     :     0.102806  d :     0.351538
      dxz     :     0.086902
      dyz     :     0.030519
      dx2y2   :     0.070499
      dxy     :     0.060812
      f0      :     0.003991  f :     0.034618
      f+1     :     0.008020
      f-1     :     0.001880
      f+2     :     0.006141
      f-2     :     0.004814
      f+3     :     0.004511
      f-3     :     0.005260
  2 H s       :     0.833153  s :     0.833153
      pz      :     0.014824  p :     0.061402
      px      :     0.015142
      py      :     0.031436
  3 H s       :     0.822037  s :     0.822037
      pz      :     0.019646  p :     0.060122
      px      :     0.026970
      py      :     0.013506
  4 H s       :     0.832109  s :     0.832109
      pz      :     0.027850  p :     0.061216
      px      :     0.013915
      py      :     0.019451
  5 C s       :     2.757800  s :     2.757800
      pz      :     0.962911  p :     2.836362
      px      :     1.018887
      py      :     0.854564
      dz2     :     0.199994  d :     0.803715
      dxz     :     0.262377
      dyz     :     0.169634
      dx2y2   :     0.074484
      dxy     :     0.097225
      f0      :     0.024453  f :     0.111277
      f+1     :     0.034147
      f-1     :     0.022763
      f+2     :     0.011318
      f-2     :     0.006657
      f+3     :     0.005838
      f-3     :     0.006101
  6 H s       :     0.827109  s :     0.827109
      pz      :     0.030333  p :     0.067564
      px      :     0.014372
      py      :     0.022858
  7 H s       :     0.804146  s :     0.804146
      pz      :     0.026557  p :     0.059094
      px      :     0.013105
      py      :     0.019432
  8 C s       :     2.785510  s :     2.785510
      pz      :     1.035034  p :     3.077006
      px      :     1.017380
      py      :     1.024592
      dz2     :     0.054131  d :     0.387232
      dxz     :     0.065820
      dyz     :     0.100969
      dx2y2   :     0.100491
      dxy     :     0.065820
      f0      :     0.004280  f :     0.039169
      f+1     :     0.003758
      f-1     :     0.007803
      f+2     :     0.006192
      f-2     :     0.004004
      f+3     :     0.008091
      f-3     :     0.005042
  9 H s       :     0.812574  s :     0.812574
      pz      :     0.016805  p :     0.058227
      px      :     0.028418
      py      :     0.013004
 10 C s       :     2.839786  s :     2.839786
      pz      :     1.069846  p :     3.197193
      px      :     1.076508
      py      :     1.050839
      dz2     :     0.016565  d :     0.269256
      dxz     :     0.053191
      dyz     :     0.086988
      dx2y2   :     0.061360
      dxy     :     0.051152
      f0      :     0.002626  f :     0.024903
      f+1     :     0.001050
      f-1     :     0.005799
      f+2     :     0.004108
      f-2     :     0.001982
      f+3     :     0.005492
      f-3     :     0.003846
 11 O s       :     3.406259  s :     3.406259
      pz      :     1.498873  p :     4.655216
      px      :     1.647630
      py      :     1.508713
      dz2     :     0.025503  d :     0.068665
      dxz     :     0.022028
      dyz     :     0.017998
      dx2y2   :     0.001523
      dxy     :     0.001613
      f0      :     0.002001  f :     0.005760
      f+1     :     0.001734
      f-1     :     0.001423
      f+2     :     0.000293
      f-2     :     0.000286
      f+3     :     0.000011
      f-3     :     0.000013
 12 H s       :     0.823159  s :     0.823159
      pz      :     0.018672  p :     0.061765
      px      :     0.029968
      py      :     0.013124
 13 H s       :     0.823621  s :     0.823621
      pz      :     0.021063  p :     0.061687
      px      :     0.025403
      py      :     0.015221
 14 H s       :     0.821052  s :     0.821052
      pz      :     0.026840  p :     0.061318
      px      :     0.013667
      py      :     0.020811


                      *****************************
                      * MAYER POPULATION ANALYSIS *
                      *****************************

  NA   - Mulliken gross atomic population
  ZA   - Total nuclear charge
  QA   - Mulliken gross atomic charge
  VA   - Mayer's total valence
  BVA  - Mayer's bonded valence
  FA   - Mayer's free valence

  ATOM       NA         ZA         QA         VA         BVA        FA
  0 C      6.3567     6.0000    -0.3567     3.9556     3.9556     0.0000
  1 C      6.4888     6.0000    -0.4888     3.3751     3.3751     0.0000
  2 H      0.9119     1.0000     0.0881     0.9575     0.9575     0.0000
  3 H      0.8948     1.0000     0.1052     0.9726     0.9726     0.0000
  4 H      0.9107     1.0000     0.0893     0.9713     0.9713    -0.0000
  5 C      5.8914     6.0000     0.1086     4.3370     4.3370     0.0000
  6 H      0.9252     1.0000     0.0748     0.9680     0.9680     0.0000
  7 H      0.9195     1.0000     0.0805     0.9799     0.9799    -0.0000
  8 C      6.1163     6.0000    -0.1163     3.6914     3.6914     0.0000
  9 H      0.9355     1.0000     0.0645     1.0185     1.0185     0.0000
 10 C      6.3963     6.0000    -0.3963     3.8956     3.8956     0.0000
 11 O      8.5828     8.0000    -0.5828     1.9157     1.9157     0.0000
 12 H      0.8887     1.0000     0.1113     0.9866     0.9866     0.0000
 13 H      0.8921     1.0000     0.1079     0.9709     0.9709     0.0000
 14 H      0.8891     1.0000     0.1109     0.9767     0.9767     0.0000

  Mayer bond orders larger than 0.100000
B(  0-C ,  1-C ) :   1.0014 B(  0-C ,  2-H ) :   0.9577 B(  0-C ,  3-H ) :   0.9734 
B(  0-C ,  4-H ) :   0.9620 B(  1-C ,  5-C ) :   1.4780 B(  1-C ,  6-H ) :   0.9570 
B(  5-C ,  8-C ) :   0.9824 B(  5-C , 11-O ) :   1.8303 B(  7-H ,  8-C ) :   0.9365 
B(  8-C ,  9-H ) :   0.9511 B(  8-C , 10-C ) :   0.9675 B( 10-C , 12-H ) :   0.9721 
B( 10-C , 13-H ) :   0.9532 B( 10-C , 14-H ) :   0.9711 

-------
TIMINGS
-------

Total SCF time: 0 days 0 hours 0 min 38 sec 

Total time                  ....      38.533 sec
Sum of individual times     ....      36.483 sec  ( 94.7%)

Fock matrix formation       ....      33.969 sec  ( 88.2%)
  Split-RI-J                ....       5.225 sec  ( 15.4% of F)
  XC integration            ....      16.923 sec  ( 49.8% of F)
    Basis function eval.    ....       5.146 sec  ( 30.4% of XC)
    Density eval.           ....       3.812 sec  ( 22.5% of XC)
    XC-Functional eval.     ....       0.787 sec  (  4.7% of XC)
    XC-Potential eval.      ....       4.888 sec  ( 28.9% of XC)
Diagonalization             ....       0.076 sec  (  0.2%)
Density matrix formation    ....       0.007 sec  (  0.0%)
Population analysis         ....       0.151 sec  (  0.4%)
Initial guess               ....       0.744 sec  (  1.9%)
Orbital Transformation      ....       0.000 sec  (  0.0%)
Orbital Orthonormalization  ....       0.000 sec  (  0.0%)
DIIS solution               ....       0.165 sec  (  0.4%)
SOSCF solution              ....       0.138 sec  (  0.4%)
Grid generation             ....       1.233 sec  (  3.2%)

Maximum memory used throughout the entire SCF-calculation: 83.2 MB


-------------------------------------------------------------------------------
                          DFT DISPERSION CORRECTION                            
                                                                               
                              DFTD3 V3.1  Rev 1                                
                          USING Becke-Johnson damping                          
-------------------------------------------------------------------------------
The PBE functional is recognized
Active option DFTDOPT                   ...         4   

molecular C6(AA) [au] = 1781.758248 


            DFT-D V3
 parameters
 s6 scaling factor         :     1.0000 
 a1 scaling factor         :     0.4289 
 s8 scaling factor         :     0.7875 
 a2 scaling factor         :     4.4407 
 ad hoc parameters k1-k3   :    16.0000     1.3333    -4.0000 

 Edisp/kcal,au: -6.987725480616  -0.011135648184 
 E6   /kcal   :  -5.007239346 
 E8   /kcal   :  -1.980486134 
 % E8         :  28.342357463 

-------------------------   ----------------
Dispersion correction           -0.011135648
-------------------------   ----------------


-------------------------   --------------------
FINAL SINGLE POINT ENERGY      -271.027108793680
-------------------------   --------------------

------------------------------------------------------------------------------
                         ORCA SCF GRADIENT CALCULATION
------------------------------------------------------------------------------

Gradient of the Kohn-Sham DFT energy:
Kohn-Sham wavefunction type      ... RKS
Hartree-Fock exchange scaling    ...    0.000
Number of operators              ...    1
Number of atoms                  ...   15
Basis set dimensions             ...  240
Integral neglect threshold       ... 2.5e-11
Integral primitive cutoff        ... 2.5e-12
SHARK Integral package           ... ON

Nuc. rep. gradient       (SHARK) ... done (  0.0 sec)
HCore & Overlap gradient (SHARK) ... done (  0.3 sec)
RI-J gradient            (SHARK) ... done (  1.7 sec)
Exchange-correlation gradient    ... done
Dispersion correction            ... done

------------------
CARTESIAN GRADIENT
------------------

   1   C   :    0.003694019    0.006272029   -0.007365848
   2   C   :    0.038258826    0.020362380   -0.009906826
   3   H   :   -0.002111327   -0.007946525    0.008005948
   4   H   :   -0.004068040   -0.001741163   -0.000371489
   5   H   :   -0.001177629   -0.000610665    0.008056306
   6   C   :   -0.058464676   -0.029310777   -0.027095661
   7   H   :   -0.002913294    0.000772548   -0.009267754
   8   H   :    0.000297237   -0.001075560   -0.004311585
   9   C   :    0.001621334    0.007609238   -0.015227304
  10   H   :   -0.001383850   -0.002497164    0.005822386
  11   C   :    0.002959328    0.001519578   -0.004459532
  12   O   :    0.023362026    0.000255387    0.056537361
  13   H   :   -0.002364934    0.000019987   -0.000736662
  14   H   :    0.002980746    0.004179121   -0.002861019
  15   H   :   -0.000689765    0.002191586    0.003181679

Difference to translation invariance:
           :    0.0000000000    0.0000000000   -0.0000000000

Difference to rotation invariance:
           :    0.0002233942    0.0001269955   -0.0006086039

Norm of the cartesian gradient     ...    0.1076654924
RMS gradient                       ...    0.0160498240
MAX gradient                       ...    0.0584646765

-------
TIMINGS
-------

Total SCF gradient time            ...       11.141 sec

One electron gradient       ....       0.310 sec  (  2.8%)
RI-J Coulomb gradient       ....       1.665 sec  ( 14.9%)
XC gradient                 ....       7.678 sec  ( 68.9%)
CPCM gradient               ....       0.566 sec  (  5.1%)
   A-Matrix (El+Nuc)        ....       0.046 sec  (  0.4%)
   Potential                ....       0.520 sec  (  4.7%)

Maximum memory used throughout the entire SCFGRAD-calculation: 84.3 MB
------------------------------------------------------------------------------
                         ORCA GEOMETRY RELAXATION STEP
------------------------------------------------------------------------------

Reading the OPT-File                    .... done
Getting information on internals        .... done
Copying old internal coords+grads       .... done
Making the new internal coordinates     .... (new redundants).... done
Validating the new internal coordinates .... (new redundants).... done
Calculating the B-matrix                .... done
Calculating the G,G- and P matrices     .... done
Transforming gradient to internals      .... done
Projecting the internal gradient        .... done
Number of atoms                         ....  15
Number of internal coordinates          ....  63
Current Energy                          ....  -271.027108794 Eh
Current gradient norm                   ....     0.107665492 Eh/bohr
Maximum allowed component of the step   ....  0.300
Current trust radius                    ....  0.300
Evaluating the initial hessian          ....  (Almloef) done
Projecting the Hessian                  .... done
Forming the augmented Hessian           .... done
Diagonalizing the augmented Hessian     .... done
Last element of RFO vector              ....  0.964601881
Lowest eigenvalues of augmented Hessian:
 -0.012902587  0.011571579  0.012997316  0.013694380  0.015961343
Length of the computed step             ....  0.273387886
The final length of the internal step   ....  0.273387886
Converting the step to cartesian space:
 Initial RMS(Int)=    0.0344436361
Transforming coordinates:
 Iter   0:  RMS(Cart)=    0.0563643128 RMS(Int)=    1.1090689990
 Iter   1:  RMS(Cart)=    0.0038299918 RMS(Int)=    0.0015222841
 Iter   2:  RMS(Cart)=    0.0002480921 RMS(Int)=    0.0001056014
 Iter   3:  RMS(Cart)=    0.0000111131 RMS(Int)=    0.0000049991
 Iter   4:  RMS(Cart)=    0.0000009164 RMS(Int)=    0.0000004476
 Iter   5:  RMS(Cart)=    0.0000000639 RMS(Int)=    0.0000000275
done
Storing new coordinates                 .... done

                                .--------------------.
          ----------------------|Geometry convergence|-------------------------
          Item                value                   Tolerance       Converged
          ---------------------------------------------------------------------
          RMS gradient        0.0104185350            0.0001000000      NO
          MAX gradient        0.0594072592            0.0003000000      NO
          RMS step            0.0344436361            0.0020000000      NO
          MAX step            0.1023208526            0.0040000000      NO
          ........................................................
          Max(Bonds)      0.0332      Max(Angles)    3.60
          Max(Dihed)        5.86      Max(Improp)    0.00
          ---------------------------------------------------------------------

The optimization has not yet converged - more geometry cycles are needed


    ---------------------------------------------------------------------------
                         Redundant Internal Coordinates
                            (Angstroem and degrees)

        Definition                    Value    dE/dq     Step     New-Value
    ----------------------------------------------------------------------------
     1. B(C   1,C   0)                1.4913 -0.008954  0.0107    1.5020   
     2. B(H   2,C   0)                1.0947 -0.008856  0.0128    1.1074   
     3. B(H   3,C   0)                1.0953 -0.003716  0.0054    1.1007   
     4. B(H   4,C   0)                1.0946 -0.006644  0.0096    1.1042   
     5. B(C   5,C   1)                1.4363  0.029366 -0.0288    1.4076   
     6. B(H   6,C   1)                1.0831 -0.009653  0.0134    1.0965   
     7. B(C   8,C   5)                1.4990 -0.017736  0.0218    1.5208   
     8. B(C   8,H   7)                1.0977 -0.004142  0.0060    1.1038   
     9. B(H   9,C   8)                1.0986 -0.001435  0.0021    1.1007   
    10. B(C  10,C   8)                1.5246 -0.008391  0.0113    1.5359   
    11. B(O  11,C   5)                1.2508 -0.059407  0.0332    1.2841   
    12. B(H  12,C  10)                1.0951 -0.002394  0.0035    1.0985   
    13. B(H  13,C  10)                1.0947 -0.005197  0.0075    1.1022   
    14. B(H  14,C  10)                1.0950 -0.003883  0.0056    1.1006   
    15. A(C   1,C   0,H   4)          111.95 -0.002074    0.29    112.23   
    16. A(C   1,C   0,H   2)          110.80 -0.007729    1.28    112.08   
    17. A(H   3,C   0,H   4)          107.30  0.001545   -0.13    107.17   
    18. A(H   2,C   0,H   3)          107.68  0.003561   -0.39    107.29   
    19. A(C   1,C   0,H   3)          109.56 -0.002202    0.57    110.13   
    20. A(H   2,C   0,H   4)          109.40  0.007424   -1.68    107.72   
    21. A(C   0,C   1,C   5)          124.51  0.009098   -1.31    123.20   
    22. A(C   5,C   1,H   6)          117.26 -0.005854    0.90    118.16   
    23. A(C   0,C   1,H   6)          118.07 -0.003268    0.50    118.57   
    24. A(C   1,C   5,C   8)          122.46  0.021059   -2.64    119.82   
    25. A(C   8,C   5,O  11)          118.98  0.005450   -0.41    118.57   
    26. A(C   1,C   5,O  11)          118.38 -0.026730    3.60    121.98   
    27. A(H   7,C   8,C  10)          108.90  0.003254   -0.11    108.79   
    28. A(C   5,C   8,C  10)          112.46 -0.007248    1.13    113.59   
    29. A(H   7,C   8,H   9)          105.86 -0.001840    0.30    106.16   
    30. A(C   5,C   8,H   9)          111.58  0.007590   -1.94    109.64   
    31. A(C   5,C   8,H   7)          109.30 -0.000293    0.47    109.78   
    32. A(H   9,C   8,C  10)          108.50 -0.001166    0.12    108.62   
    33. A(H  13,C  10,H  14)          107.99  0.001360   -0.17    107.83   
    34. A(H  12,C  10,H  14)          108.22 -0.000063   -0.24    107.98   
    35. A(C   8,C  10,H  14)          111.25  0.001077   -0.26    110.99   
    36. A(H  12,C  10,H  13)          107.77  0.000978    0.01    107.77   
    37. A(C   8,C  10,H  13)          110.05 -0.004284    0.86    110.91   
    38. A(C   8,C  10,H  12)          111.42  0.001012   -0.21    111.22   
    39. D(H   6,C   1,C   0,H   2)   -104.07  0.001898   -1.50   -105.57   
    40. D(C   5,C   1,C   0,H   4)    -51.09 -0.001315    0.81    -50.28   
    41. D(H   6,C   1,C   0,H   3)     14.60  0.000171   -0.85     13.75   
    42. D(H   6,C   1,C   0,H   4)    133.51 -0.000650   -0.46    133.06   
    43. D(C   5,C   1,C   0,H   3)   -170.01 -0.000493    0.42   -169.59   
    44. D(C   5,C   1,C   0,H   2)     71.33  0.001234   -0.24     71.09   
    45. D(C   8,C   5,C   1,C   0)   -174.50  0.002567   -5.86   -180.36   
    46. D(O  11,C   5,C   1,H   6)    176.05 -0.000878    2.82    178.87   
    47. D(O  11,C   5,C   1,C   0)      0.62 -0.000320    1.58      2.20   
    48. D(C   8,C   5,C   1,H   6)      0.93  0.002010   -4.62     -3.69   
    49. D(H   9,C   8,C   5,O  11)    -12.12  0.003791   -4.97    -17.09   
    50. D(H   9,C   8,C   5,C   1)    162.96 -0.000614    2.70    165.67   
    51. D(H   7,C   8,C   5,O  11)   -128.86  0.001742   -4.49   -133.35   
    52. D(C  10,C   8,C   5,C   1)    -74.85 -0.001812    2.25    -72.59   
    53. D(H   7,C   8,C   5,C   1)     46.23 -0.002663    3.19     49.41   
    54. D(C  10,C   8,C   5,O  11)    110.07  0.002594   -5.42    104.65   
    55. D(H  14,C  10,C   8,H   9)     63.33  0.000935   -0.06     63.27   
    56. D(H  14,C  10,C   8,H   7)    178.11 -0.000144    0.30    178.42   
    57. D(H  13,C  10,C   8,H   9)    -56.32  0.001351   -0.25    -56.57   
    58. D(H  13,C  10,C   8,H   7)     58.46  0.000272    0.12     58.57   
    59. D(H  13,C  10,C   8,C   5)    179.76 -0.002573    1.38    181.14   
    60. D(H  14,C  10,C   8,C   5)    -60.58 -0.002989    1.56    -59.02   
    61. D(H  12,C  10,C   8,H   9)   -175.80  0.002294   -0.69   -176.49   
    62. D(H  12,C  10,C   8,H   7)    -61.03  0.001215   -0.32    -61.35   
    63. D(H  12,C  10,C   8,C   5)     60.28 -0.001630    0.94     61.21   
    ----------------------------------------------------------------------------

         *************************************************************
         *                GEOMETRY OPTIMIZATION CYCLE   2            *
         *************************************************************
---------------------------------
CARTESIAN COORDINATES (ANGSTROEM)
---------------------------------
  C     -4.858572   -2.788051    2.234627
  C     -5.967947   -3.353547    3.074617
  H     -5.063159   -1.745465    1.922239
  H     -3.917704   -2.779471    2.805835
  H     -4.680420   -3.383471    1.321969
  C     -7.232941   -3.688785    2.556345
  H     -5.805543   -3.462228    4.153576
  H     -8.383856   -3.641276    4.383835
  C     -8.295549   -4.266309    3.478368
  H     -9.277204   -4.226990    2.981970
  C     -8.018517   -5.716002    3.903425
  O     -7.506605   -3.569984    1.307433
  H     -7.074478   -5.793679    4.459800
  H     -8.823910   -6.096304    4.552621
  H     -7.951567   -6.377905    3.026663

----------------------------
CARTESIAN COORDINATES (A.U.)
----------------------------
  NO LB      ZA    FRAG     MASS         X           Y           Z
   0 C     6.0000    0    12.011   -9.181370   -5.268652    4.222832
   1 C     6.0000    0    12.011  -11.277786   -6.337286    5.810183
   2 H     1.0000    0     1.008   -9.567984   -3.298451    3.632506
   3 H     1.0000    0     1.008   -7.403388   -5.252438    5.302260
   4 H     1.0000    0     1.008   -8.844712   -6.393834    2.498160
   5 C     6.0000    0    12.011  -13.668278   -6.970793    4.830792
   6 H     1.0000    0     1.008  -10.970885   -6.542663    7.849122
   7 H     1.0000    0     1.008  -15.843192   -6.881014    8.284248
   8 C     6.0000    0    12.011  -15.676315   -8.062156    6.573163
   9 H     1.0000    0     1.008  -17.531375   -7.987853    5.635106
  10 C     6.0000    0    12.011  -15.152801  -10.801678    7.376404
  11 O     8.0000    0    15.999  -14.185428   -6.746292    2.470690
  12 H     1.0000    0     1.008  -13.368826  -10.948467    8.427800
  13 H     1.0000    0     1.008  -16.674773  -11.520346    8.603207
  14 H     1.0000    0     1.008  -15.026283  -12.052494    5.719564

--------------------------------
INTERNAL COORDINATES (ANGSTROEM)
--------------------------------
 C      0   0   0     0.000000000000     0.00000000     0.00000000
 C      1   0   0     1.502026219037     0.00000000     0.00000000
 H      1   2   0     1.107441112424   112.07038567     0.00000000
 H      1   2   3     1.100720089294   110.12367560   119.32970623
 H      1   2   3     1.104177240151   112.23365160   238.63438094
 C      2   1   3     1.407550837332   123.19804448    71.08308324
 H      2   1   3     1.096513151716   118.56850084   254.42336407
 H      6   2   1     2.160227187702    99.32789393   201.25066498
 C      8   6   2     1.103782350899    41.49147015   221.92147559
 H      9   8   6     1.100729077278   106.16288600   241.57132192
 C      9   8   6     1.535913045160   108.77693217   124.84382759
 O      6   2   1     1.284051497304   121.84587986     2.29057148
 H     11   9   8     1.098542992144   111.21715296   298.64986444
 H     11   9   8     1.102153636248   110.90932021    58.57364275
 H     11   9   8     1.100595340429   110.98683718   178.41448338

---------------------------
INTERNAL COORDINATES (A.U.)
---------------------------
 C      0   0   0     0.000000000000     0.00000000     0.00000000
 C      1   0   0     2.838418199949     0.00000000     0.00000000
 H      1   2   0     2.092760411927   112.07038567     0.00000000
 H      1   2   3     2.080059518871   110.12367560   119.32970623
 H      1   2   3     2.086592587195   112.23365160   238.63438094
 C      2   1   3     2.659885602129   123.19804448    71.08308324
 H      2   1   3     2.072109558987   118.56850084   254.42336407
 H      6   2   1     4.082237771808    99.32789393   201.25066498
 C      8   6   2     2.085846354655    41.49147015   221.92147559
 H      9   8   6     2.080076503700   106.16288600   241.57132192
 C      9   8   6     2.902455020869   108.77693217   124.84382759
 O      6   2   1     2.426505671755   121.84587986     2.29057148
 H     11   9   8     2.075945401490   111.21715296   298.64986444
[...]
 184   0.0000       3.376959        91.8917 
 185   0.0000       3.389240        92.2259 
 186   0.0000       3.431920        93.3873 
 187   0.0000       3.471839        94.4735 
 188   0.0000       3.473741        94.5253 
 189   0.0000       3.508179        95.4624 
 190   0.0000       3.567343        97.0723 
 191   0.0000       3.595545        97.8397 
 192   0.0000       3.596333        97.8612 
 193   0.0000       3.635700        98.9324 
 194   0.0000       3.693716       100.5111 
 195   0.0000       3.726549       101.4046 
 196   0.0000       3.735624       101.6515 
 197   0.0000       3.804357       103.5218 
 198   0.0000       3.832449       104.2862 
 199   0.0000       3.873708       105.4089 
 200   0.0000       3.882764       105.6554 
 201   0.0000       3.902576       106.1945 
 202   0.0000       3.990885       108.5975 
 203   0.0000       4.027233       109.5866 
 204   0.0000       4.055521       110.3563 
 205   0.0000       4.132228       112.4436 
 206   0.0000       4.183507       113.8390 
 207   0.0000       4.235225       115.2463 
 208   0.0000       4.256992       115.8386 
 209   0.0000       4.292928       116.8165 
 210   0.0000       4.336509       118.0024 
 211   0.0000       4.376337       119.0862 
 212   0.0000       4.417903       120.2173 
 213   0.0000       4.449505       121.0772 
 214   0.0000       4.475471       121.7838 
 215   0.0000       4.501950       122.5043 
 216   0.0000       4.600447       125.1845 
 217   0.0000       4.683450       127.4432 
 218   0.0000       4.735162       128.8503 
 219   0.0000       4.793890       130.4484 
 220   0.0000       4.903515       133.4314 
 221   0.0000       4.969817       135.2356 
 222   0.0000       5.149084       140.1137 
 223   0.0000       5.154525       140.2618 
 224   0.0000       5.446978       148.2198 
 225   0.0000       5.526743       150.3903 
 226   0.0000       5.892238       160.3360 
 227   0.0000       6.109772       166.2553 
 228   0.0000       6.315353       171.8495 
 229   0.0000       6.316826       171.8896 
 230   0.0000       6.452730       175.5877 
 231   0.0000       6.739445       183.3896 
 232   0.0000       6.912350       188.0946 
 233   0.0000       6.957536       189.3242 
 234   0.0000      22.025107       599.3336 
 235   0.0000      22.067251       600.4804 
 236   0.0000      22.146830       602.6459 
 237   0.0000      22.196574       603.9995 
 238   0.0000      22.806718       620.6023 
 239   0.0000      43.575169      1185.7406 

                    ********************************
                    * MULLIKEN POPULATION ANALYSIS *
                    ********************************

-----------------------
MULLIKEN ATOMIC CHARGES
-----------------------
   0 C :   -0.379769
   1 C :   -0.396598
   2 H :    0.095489
   3 H :    0.110505
   4 H :    0.092084
   5 C :    0.128552
   6 H :    0.091350
   7 H :    0.077004
   8 C :   -0.168684
   9 H :    0.067347
  10 C :   -0.359409
  11 O :   -0.663034
  12 H :    0.100940
  13 H :    0.115610
  14 H :    0.088615
Sum of atomic charges:   -1.0000000

--------------------------------
MULLIKEN REDUCED ORBITAL CHARGES
--------------------------------
  0 C s       :     3.231650  s :     3.231650
      pz      :     1.015186  p :     3.083619
      px      :     1.024938
      py      :     1.043496
      dz2     :     0.008788  d :     0.061112
      dxz     :     0.009511
      dyz     :     0.019116
      dx2y2   :     0.013206
      dxy     :     0.010491
      f0      :     0.000176  f :     0.003388
      f+1     :     0.000517
      f-1     :     0.000074
      f+2     :     0.001000
      f-2     :     0.000984
      f+3     :     0.000512
      f-3     :     0.000124
  1 C s       :     3.203716  s :     3.203716
      pz      :     0.912560  p :     3.108753
      px      :     0.999940
      py      :     1.196254
      dz2     :     0.022970  d :     0.077618
      dxz     :     0.011627
      dyz     :     0.011035
      dx2y2   :     0.017406
      dxy     :     0.014580
      f0      :     0.000659  f :     0.006511
      f+1     :     0.001202
      f-1     :     0.000639
      f+2     :     0.000945
      f-2     :     0.001001
      f+3     :     0.001298
      f-3     :     0.000767
  2 H s       :     0.883946  s :     0.883946
      pz      :     0.007306  p :     0.020565
      px      :     0.005010
      py      :     0.008250
  3 H s       :     0.868764  s :     0.868764
      pz      :     0.006262  p :     0.020732
      px      :     0.009049
      py      :     0.005420
  4 H s       :     0.887137  s :     0.887137
      pz      :     0.007132  p :     0.020779
      px      :     0.005486
      py      :     0.008162
  5 C s       :     3.093494  s :     3.093494
      pz      :     0.762323  p :     2.609133
      px      :     0.951553
      py      :     0.895257
      dz2     :     0.038481  d :     0.153840
      dxz     :     0.039477
      dyz     :     0.035391
      dx2y2   :     0.029356
      dxy     :     0.011135
      f0      :     0.003357  f :     0.014981
      f+1     :     0.003845
      f-1     :     0.002540
      f+2     :     0.001292
      f-2     :     0.002061
      f+3     :     0.001320
      f-3     :     0.000566
  6 H s       :     0.885583  s :     0.885583
      pz      :     0.011007  p :     0.023067
      px      :     0.004826
      py      :     0.007234
  7 H s       :     0.901765  s :     0.901765
      pz      :     0.010529  p :     0.021232
      px      :     0.004851
      py      :     0.005851
  8 C s       :     3.159436  s :     3.159436
      pz      :     0.973911  p :     2.916027
      px      :     0.992885
      py      :     0.949231
      dz2     :     0.016256  d :     0.087981
      dxz     :     0.007165
      dyz     :     0.024486
      dx2y2   :     0.015978
      dxy     :     0.024096
      f0      :     0.000799  f :     0.005240
      f+1     :     0.000745
      f-1     :     0.000535
      f+2     :     0.001034
      f-2     :     0.000280
      f+3     :     0.001067
      f-3     :     0.000780
  9 H s       :     0.911734  s :     0.911734
      pz      :     0.004970  p :     0.020920
      px      :     0.010273
      py      :     0.005676
 10 C s       :     3.233039  s :     3.233039
      pz      :     1.050391  p :     3.068337
      px      :     1.057451
      py      :     0.960495
      dz2     :     0.003445  d :     0.054816
      dxz     :     0.005440
      dyz     :     0.020216
      dx2y2   :     0.005525
      dxy     :     0.020190
      f0      :     0.000531  f :     0.003217
      f+1     :     0.000185
      f-1     :     0.000353
      f+2     :     0.000776
      f-2     :    -0.000025
      f+3     :     0.000812
      f-3     :     0.000584
 11 O s       :     3.776834  s :     3.776834
      pz      :     1.441388  p :     4.859457
      px      :     1.765460
      py      :     1.652610
      dz2     :     0.010032  d :     0.025303
      dxz     :     0.006172
      dyz     :     0.007388
      dx2y2   :     0.000964
      dxy     :     0.000747
      f0      :     0.000478  f :     0.001440
      f+1     :     0.000340
      f-1     :     0.000401
      f+2     :     0.000117
      f-2     :     0.000092
      f+3     :     0.000005
      f-3     :     0.000006
 12 H s       :     0.878445  s :     0.878445
      pz      :     0.005417  p :     0.020615
      px      :     0.009286
      py      :     0.005912
 13 H s       :     0.863685  s :     0.863685
      pz      :     0.006965  p :     0.020705
      px      :     0.008376
      py      :     0.005364
 14 H s       :     0.890162  s :     0.890162
      pz      :     0.010666  p :     0.021224
      px      :     0.004703
      py      :     0.005854


                     *******************************
                     * LOEWDIN POPULATION ANALYSIS *
                     *******************************

----------------------
LOEWDIN ATOMIC CHARGES
----------------------
   0 C :   -0.366180
   1 C :   -0.375075
   2 H :    0.108703
   3 H :    0.117031
   4 H :    0.110416
   5 C :   -0.473171
   6 H :    0.118794
   7 H :    0.130721
   8 C :   -0.290904
   9 H :    0.128530
  10 C :   -0.338833
  11 O :   -0.214460
  12 H :    0.115907
  13 H :    0.115835
  14 H :    0.112685

-------------------------------
LOEWDIN REDUCED ORBITAL CHARGES
-------------------------------
  0 C s       :     2.837942  s :     2.837942
      pz      :     1.075957  p :     3.214019
      px      :     1.068877
      py      :     1.069185
      dz2     :     0.032980  d :     0.288909
      dxz     :     0.062707
      dyz     :     0.091453
      dx2y2   :     0.053296
      dxy     :     0.048474
      f0      :     0.004173  f :     0.025309
      f+1     :     0.004518
      f-1     :     0.001949
      f+2     :     0.003678
      f-2     :     0.003589
      f+3     :     0.004694
      f-3     :     0.002707
  1 C s       :     2.799343  s :     2.799343
      pz      :     0.999018  p :     3.178001
      px      :     1.065275
      py      :     1.113708
      dz2     :     0.095639  d :     0.361027
      dxz     :     0.077797
      dyz     :     0.052886
      dx2y2   :     0.066806
      dxy     :     0.067899
      f0      :     0.003957  f :     0.036704
      f+1     :     0.007559
      f-1     :     0.003494
      f+2     :     0.005205
      f-2     :     0.006606
      f+3     :     0.004300
      f-3     :     0.005582
  2 H s       :     0.831901  s :     0.831901
      pz      :     0.020705  p :     0.059396
      px      :     0.014503
      py      :     0.024189
  3 H s       :     0.823249  s :     0.823249
      pz      :     0.019360  p :     0.059720
      px      :     0.024803
      py      :     0.015557
  4 H s       :     0.829671  s :     0.829671
      pz      :     0.020052  p :     0.059913
      px      :     0.014778
      py      :     0.025083
  5 C s       :     2.758840  s :     2.758840
      pz      :     0.938234  p :     2.835113
      px      :     0.993466
      py      :     0.903412
      dz2     :     0.194742  d :     0.781080
      dxz     :     0.240217
      dyz     :     0.165670
      dx2y2   :     0.108821
      dxy     :     0.071629
      f0      :     0.023704  f :     0.098139
      f+1     :     0.024177
      f-1     :     0.018966
      f+2     :     0.007462
      f-2     :     0.012835
      f+3     :     0.005921
      f-3     :     0.005073
  6 H s       :     0.817101  s :     0.817101
      pz      :     0.030208  p :     0.064105
      px      :     0.013825
      py      :     0.020071
  7 H s       :     0.810995  s :     0.810995
      pz      :     0.029094  p :     0.058284
      px      :     0.013703
      py      :     0.015488
  8 C s       :     2.796269  s :     2.796269
      pz      :     1.025854  p :     3.075202
      px      :     1.022375
      py      :     1.026973
      dz2     :     0.075149  d :     0.383127
      dxz     :     0.046336
      dyz     :     0.087890
      dx2y2   :     0.087545
      dxy     :     0.086207
      f0      :     0.004437  f :     0.036305
      f+1     :     0.004231
      f-1     :     0.005059
      f+2     :     0.006207
      f-2     :     0.004037
      f+3     :     0.006509
      f-3     :     0.005824
  9 H s       :     0.813434  s :     0.813434
      pz      :     0.014773  p :     0.058035
      px      :     0.028126
      py      :     0.015136
 10 C s       :     2.845795  s :     2.845795
      pz      :     1.077851  p :     3.205195
      px      :     1.072406
      py      :     1.054938
      dz2     :     0.030452  d :     0.263639
      dxz     :     0.035359
      dyz     :     0.074795
      dx2y2   :     0.048050
      dxy     :     0.074982
      f0      :     0.003472  f :     0.024204
      f+1     :     0.000956
      f-1     :     0.003864
      f+2     :     0.004339
      f-2     :     0.002079
      f+3     :     0.005387
      f-3     :     0.004107
 11 O s       :     3.444627  s :     3.444627
      pz      :     1.486839  p :     4.706113
      px      :     1.648872
      py      :     1.570402
      dz2     :     0.023398  d :     0.059106
      dxz     :     0.015875
      dyz     :     0.016008
      dx2y2   :     0.001946
      dxy     :     0.001880
      f0      :     0.001623  f :     0.004614
      f+1     :     0.001084
      f-1     :     0.001213
      f+2     :     0.000333
      f-2     :     0.000327
      f+3     :     0.000016
      f-3     :     0.000018
 12 H s       :     0.823704  s :     0.823704
      pz      :     0.016046  p :     0.060388
      px      :     0.028438
      py      :     0.015904
 13 H s       :     0.823369  s :     0.823369
      pz      :     0.021124  p :     0.060797
      px      :     0.025322
      py      :     0.014351
 14 H s       :     0.825616  s :     0.825616
      pz      :     0.032169  p :     0.061698
      px      :     0.013757
      py      :     0.015772


                      *****************************
                      * MAYER POPULATION ANALYSIS *
                      *****************************

  NA   - Mulliken gross atomic population
  ZA   - Total nuclear charge
  QA   - Mulliken gross atomic charge
  VA   - Mayer's total valence
  BVA  - Mayer's bonded valence
  FA   - Mayer's free valence

  ATOM       NA         ZA         QA         VA         BVA        FA
  0 C      6.3798     6.0000    -0.3798     3.9434     3.9434     0.0000
  1 C      6.3966     6.0000    -0.3966     3.5113     3.5113    -0.0000
  2 H      0.9045     1.0000     0.0955     0.9605     0.9605     0.0000
  3 H      0.8895     1.0000     0.1105     0.9706     0.9706    -0.0000
  4 H      0.9079     1.0000     0.0921     0.9782     0.9782    -0.0000
  5 C      5.8714     6.0000     0.1286     4.2813     4.2813    -0.0000
  6 H      0.9087     1.0000     0.0913     0.9718     0.9718     0.0000
  7 H      0.9230     1.0000     0.0770     0.9781     0.9781     0.0000
  8 C      6.1687     6.0000    -0.1687     3.8242     3.8242    -0.0000
  9 H      0.9327     1.0000     0.0673     0.9837     0.9837     0.0000
 10 C      6.3594     6.0000    -0.3594     3.8450     3.8450    -0.0000
 11 O      8.6630     8.0000    -0.6630     1.8505     1.8505     0.0000
 12 H      0.8991     1.0000     0.1009     0.9865     0.9865    -0.0000
 13 H      0.8844     1.0000     0.1156     0.9684     0.9684     0.0000
 14 H      0.9114     1.0000     0.0886     1.0163     1.0163    -0.0000

  Mayer bond orders larger than 0.100000
B(  0-C ,  1-C ) :   0.9972 B(  0-C ,  2-H ) :   0.9603 B(  0-C ,  3-H ) :   0.9706 
B(  0-C ,  4-H ) :   0.9614 B(  1-C ,  5-C ) :   1.5588 B(  1-C ,  6-H ) :   0.9514 
B(  5-C ,  8-C ) :   0.9839 B(  5-C , 11-O ) :   1.7039 B(  7-H ,  8-C ) :   0.9409 
B(  8-C ,  9-H ) :   0.9372 B(  8-C , 10-C ) :   0.9918 B( 10-C , 12-H ) :   0.9675 
B( 10-C , 13-H ) :   0.9631 B( 10-C , 14-H ) :   0.9626 

-------
TIMINGS
-------

Total SCF time: 0 days 0 hours 0 min 18 sec 

Total time                  ....      18.562 sec
Sum of individual times     ....      16.945 sec  ( 91.3%)

Fock matrix formation       ....      15.934 sec  ( 85.8%)
  Split-RI-J                ....       2.569 sec  ( 16.1% of F)
  XC integration            ....       7.605 sec  ( 47.7% of F)
    Basis function eval.    ....       2.602 sec  ( 34.2% of XC)
    Density eval.           ....       1.822 sec  ( 24.0% of XC)
    XC-Functional eval.     ....       0.393 sec  (  5.2% of XC)
    XC-Potential eval.      ....       1.823 sec  ( 24.0% of XC)
Diagonalization             ....       0.009 sec  (  0.1%)
Density matrix formation    ....       0.004 sec  (  0.0%)
Population analysis         ....       0.080 sec  (  0.4%)
Initial guess               ....       0.011 sec  (  0.1%)
Orbital Transformation      ....       0.000 sec  (  0.0%)
Orbital Orthonormalization  ....       0.009 sec  (  0.0%)
DIIS solution               ....       0.002 sec  (  0.0%)
SOSCF solution              ....       0.099 sec  (  0.5%)
Grid generation             ....       0.806 sec  (  4.3%)

Maximum memory used throughout the entire SCF-calculation: 82.5 MB


-------------------------------------------------------------------------------
                          DFT DISPERSION CORRECTION                            
                                                                               
                              DFTD3 V3.1  Rev 1                                
                          USING Becke-Johnson damping                          
-------------------------------------------------------------------------------
The PBE functional is recognized
Active option DFTDOPT                   ...         4   

molecular C6(AA) [au] = 1782.340387 


            DFT-D V3
 parameters
 s6 scaling factor         :     1.0000 
 a1 scaling factor         :     0.4289 
 s8 scaling factor         :     0.7875 
 a2 scaling factor         :     4.4407 
 ad hoc parameters k1-k3   :    16.0000     1.3333    -4.0000 

 Edisp/kcal,au: -6.910689490183  -0.011012883532 
 E6   /kcal   :  -4.952396675 
 E8   /kcal   :  -1.958292815 
 % E8         :  28.337155330 

-------------------------   ----------------
Dispersion correction           -0.011012884
-------------------------   ----------------


-------------------------   --------------------
FINAL SINGLE POINT ENERGY      -271.040850220007
-------------------------   --------------------

                                *** OPTIMIZATION RUN DONE ***

                            ***************************************
                            *     ORCA property calculations      *
                            ***************************************

                                    ---------------------
                                    Active property flags
                                    ---------------------
   (+) Dipole Moment


------------------------------------------------------------------------------
                       ORCA ELECTRIC PROPERTIES CALCULATION
------------------------------------------------------------------------------

Dipole Moment Calculation                       ... on
Quadrupole Moment Calculation                   ... off
Polarizability Calculation                      ... off
GBWName                                         ... inp.gbw
Electron density                                ... inp.scfp
The origin for moment calculation is the CENTER OF MASS  = (-13.060452, -7.614627  5.260824)

-------------
DIPOLE MOMENT
-------------
                                X             Y             Z
Electronic contribution:     -0.93137       0.41467      -2.32221
Nuclear contribution   :      0.72897      -0.54193       4.02510
                        -----------------------------------------
Total Dipole Moment    :     -0.20240      -0.12726       1.70289
                        -----------------------------------------
Magnitude (a.u.)       :      1.71959
Magnitude (Debye)      :      4.37085



--------------------
Rotational spectrum 
--------------------
 
Rotational constants in cm-1:     0.250397     0.067824     0.059311 
Rotational constants in MHz :  7506.724100  2033.307556  1778.090339 

 Dipole components along the rotational axes: 
x,y,z [a.u.] :     0.762657     1.539633     0.069824 
x,y,z [Debye]:     1.938519     3.913435     0.177479 

 

Timings for individual modules:

Sum of individual times         ...      536.484 sec (=   8.941 min)
GTO integral calculation        ...       11.342 sec (=   0.189 min)   2.1 %
SCF iterations                  ...      389.497 sec (=   6.492 min)  72.6 %
SCF Gradient evaluation         ...      133.741 sec (=   2.229 min)  24.9 %
Geometry relaxation             ...        1.904 sec (=   0.032 min)   0.4 %
                             ****ORCA TERMINATED NORMALLY****
TOTAL RUN TIME: 0 days 0 hours 9 minutes 3 seconds 572 msec
