 Entering Gaussian System
 *********************************************
 Gaussian 98:
 frequency output generated by the xtb code
 *********************************************
                         Standard orientation:
 --------------------------------------------------------------------
  Center     Atomic     Atomic              Coordinates (Angstroms)
  Number     Number      Type              X           Y           Z
 --------------------------------------------------------------------
    1          6             0       -4.064368   -1.941550    1.927005
    2          6             0       -3.775326   -2.419340    0.674804
    3         17             0       -7.423706   -3.948420    2.791558
    4          6             0       -5.203193   -2.362090    2.690489
    5          1             0       -3.417636   -1.206528    2.391909
    6          6             0       -4.587914   -3.361866    0.056261
    7          1             0       -2.893429   -2.054693    0.154136
    8          6             0       -5.709070   -3.814627    0.737764
    9          1             0       -4.358010   -3.737874   -0.932459
   10          6             0       -5.993719   -3.333255    1.990565
   11          1             0       -6.365393   -4.549374    0.286202
   12          8             0       -5.466594   -1.925543    3.833692
 --------------------------------------------------------------------
     1 basis functions        1 primitive gaussians
     1 alpha electrons        1 beta electrons
 
 Harmonic frequencies (cm**-1), IR intensities (km*mol⁻¹),
 Raman scattering activities (A**4/amu), Raman depolarization ratios,
 reduced masses (AMU), force constants (mDyne/A) and normal coordinates:
                      1                      2                      3
                        a                      a                      a 
 Frequencies --   128.7230               202.8918               239.1261
 Red. masses --    15.1362                22.8734                12.3460
 Frc consts  --     0.0000                 0.0000                 0.0000
 IR Inten    --     2.0530                 2.8520                 3.0515
 Raman Activ --     0.0000                 0.0000                 0.0000
 Depolar     --     0.0000                 0.0000                 0.0000
 Atom AN      X      Y      Z        X      Y      Z        X      Y      Z
   1   6    -0.21   0.29  -0.16     0.05   0.01  -0.06     0.20  -0.26   0.15
   2   6    -0.18   0.24  -0.13    -0.02  -0.04  -0.05    -0.14   0.19  -0.11
   3  17    -0.21   0.29  -0.16    -0.28  -0.42  -0.39    -0.11   0.15  -0.08
   4   6     0.06  -0.08   0.04     0.10   0.14   0.12     0.14  -0.18   0.10
   5   1    -0.12   0.16  -0.09     0.03   0.00  -0.04     0.05  -0.07   0.04
   6   6     0.12  -0.17   0.09    -0.10  -0.04   0.07    -0.17   0.23  -0.13
   7   1    -0.10   0.14  -0.08    -0.01  -0.03  -0.03    -0.11   0.15  -0.08
   8   6     0.20  -0.28   0.15    -0.04   0.08   0.21     0.15  -0.20   0.11
   9   1     0.07  -0.09   0.05    -0.06  -0.04   0.02    -0.12   0.17  -0.09
  10   6     0.08  -0.11   0.06    -0.00   0.12   0.22     0.29  -0.39   0.22
  11   1     0.09  -0.12   0.07    -0.03   0.03   0.09     0.04  -0.06   0.03
  12   8     0.26  -0.36   0.20     0.46   0.41   0.12    -0.19   0.26  -0.14
                      4                      5                      6
                        a                      a                      a 
 Frequencies --   346.1796               389.1990               507.1732
 Red. masses --    23.8406                 9.8048                10.3211
 Frc consts  --     0.0000                 0.0000                 0.0000
 IR Inten    --     4.0363                 0.0815                 0.0603
 Raman Activ --     0.0000                 0.0000                 0.0000
 Depolar     --     0.0000                 0.0000                 0.0000
 Atom AN      X      Y      Z        X      Y      Z        X      Y      Z
   1   6    -0.07  -0.03   0.05    -0.20   0.26  -0.15    -0.14   0.20  -0.11
   2   6    -0.28  -0.18   0.03     0.14  -0.19   0.11     0.24  -0.32   0.18
   3  17     0.55   0.18  -0.42    -0.03   0.04  -0.02    -0.03   0.04  -0.02
   4   6    -0.00   0.11   0.20     0.09  -0.13   0.07    -0.17   0.24  -0.13
   5   1     0.03  -0.01  -0.05    -0.16   0.22  -0.12     0.03  -0.04   0.02
   6   6    -0.24  -0.18  -0.02     0.05  -0.07   0.04    -0.30   0.40  -0.22
   7   1    -0.08  -0.06  -0.00     0.05  -0.07   0.04     0.17  -0.23   0.13
   8   6    -0.16  -0.07   0.09    -0.23   0.31  -0.17     0.18  -0.24   0.14
   9   1    -0.07  -0.05  -0.00    -0.01   0.01  -0.01    -0.09   0.12  -0.07
  10   6     0.13   0.13   0.06     0.33  -0.44   0.25     0.08  -0.11   0.06
  11   1    -0.10  -0.02   0.10    -0.18   0.24  -0.13     0.11  -0.15   0.08
  12   8    -0.23  -0.03   0.25    -0.05   0.06  -0.03     0.09  -0.13   0.07
                      7                      8                      9
                        a                      a                      a 
 Frequencies --   511.8310               531.8713               646.3918
 Red. masses --    13.0239                13.5391                13.6645
 Frc consts  --     0.0000                 0.0000                 0.0000
 IR Inten    --     7.4555                 4.1700                 7.8225
 Raman Activ --     0.0000                 0.0000                 0.0000
 Depolar     --     0.0000                 0.0000                 0.0000
 Atom AN      X      Y      Z        X      Y      Z        X      Y      Z
   1   6    -0.43  -0.26   0.09     0.06   0.17   0.23    -0.23  -0.27  -0.19
   2   6    -0.11  -0.03   0.11    -0.11   0.10   0.32     0.27   0.09  -0.19
   3  17     0.13   0.11   0.03     0.18   0.06  -0.13     0.25   0.11  -0.15
   4   6    -0.31  -0.14   0.15     0.01  -0.13  -0.25    -0.19  -0.21  -0.11
   5   1    -0.15  -0.07   0.06    -0.04   0.05   0.14    -0.14  -0.07   0.05
   6   6     0.15  -0.01  -0.23    -0.18   0.08   0.39    -0.00   0.12   0.22
   7   1    -0.01   0.06   0.13    -0.05  -0.02   0.03     0.08   0.04  -0.03
   8   6     0.14  -0.04  -0.24    -0.29  -0.24  -0.06     0.06   0.24   0.36
   9   1     0.09   0.03  -0.07     0.02   0.07   0.11    -0.12  -0.05   0.07
  10   6    -0.06  -0.13  -0.15    -0.14  -0.16  -0.10    -0.30  -0.06   0.29
  11   1     0.05  -0.01  -0.08    -0.05  -0.07  -0.06     0.05   0.07   0.06
  12   8     0.35   0.35   0.17     0.32   0.06  -0.32     0.00  -0.08  -0.15
                     10                     11                     12
                        a                      a                      a 
 Frequencies --   660.4698               746.3189               809.6216
 Red. masses --    11.3788                 3.2259                 4.3341
 Frc consts  --     0.0000                 0.0000                 0.0000
 IR Inten    --    11.9243                19.8310                 9.7582
 Raman Activ --     0.0000                 0.0000                 0.0000
 Depolar     --     0.0000                 0.0000                 0.0000
 Atom AN      X      Y      Z        X      Y      Z        X      Y      Z
   1   6     0.12  -0.17   0.09    -0.04   0.05  -0.03     0.21  -0.29   0.16
   2   6    -0.14   0.19  -0.11    -0.08   0.11  -0.06     0.10  -0.13   0.07
   3  17    -0.01   0.02  -0.01    -0.01   0.01  -0.00     0.01  -0.01   0.00
   4   6    -0.38   0.51  -0.29     0.13  -0.17   0.09    -0.13   0.17  -0.09
   5   1     0.13  -0.18   0.10     0.10  -0.14   0.08    -0.38   0.52  -0.29
   6   6     0.11  -0.15   0.09    -0.15   0.20  -0.11    -0.13   0.17  -0.10
   7   1     0.04  -0.06   0.03     0.15  -0.21   0.11    -0.17   0.22  -0.12
   8   6    -0.12   0.17  -0.09    -0.09   0.12  -0.07    -0.00   0.01  -0.00
   9   1     0.04  -0.05   0.03     0.43  -0.58   0.32     0.18  -0.24   0.13
  10   6     0.23  -0.31   0.17     0.05  -0.07   0.04    -0.00   0.01  -0.00
  11   1     0.03  -0.04   0.02     0.14  -0.19   0.11     0.02  -0.03   0.02
  12   8     0.11  -0.15   0.08    -0.04   0.06  -0.03     0.04  -0.05   0.03
                     13                     14                     15
                        a                      a                      a 
 Frequencies --   844.4897               875.1844               903.1786
 Red. masses --    11.9546                 3.2810                 2.9235
 Frc consts  --     0.0000                 0.0000                 0.0000
 IR Inten    --     2.4811                 1.4288                 0.1452
 Raman Activ --     0.0000                 0.0000                 0.0000
 Depolar     --     0.0000                 0.0000                 0.0000
 Atom AN      X      Y      Z        X      Y      Z        X      Y      Z
   1   6     0.09  -0.03  -0.17     0.01  -0.02   0.01     0.10  -0.14   0.08
   2   6     0.41   0.15  -0.28    -0.07   0.09  -0.05    -0.19   0.26  -0.14
   3  17     0.03   0.02  -0.01     0.01  -0.01   0.00    -0.00  -0.00   0.00
   4   6    -0.08   0.05   0.20    -0.06   0.08  -0.04     0.04  -0.05   0.03
   5   1     0.02  -0.00  -0.04     0.05  -0.07   0.04    -0.24   0.33  -0.18
   6   6    -0.06   0.11   0.28    -0.06   0.09  -0.05     0.03  -0.05   0.02
   7   1     0.09  -0.02  -0.16     0.05  -0.07   0.04     0.41  -0.56   0.31
   8   6    -0.26  -0.32  -0.23     0.22  -0.30   0.16     0.03  -0.04   0.02
   9   1    -0.03   0.02   0.07     0.15  -0.20   0.11    -0.11   0.15  -0.08
  10   6    -0.09  -0.14  -0.14    -0.01   0.01  -0.01    -0.03   0.05  -0.03
  11   1     0.00  -0.09  -0.17    -0.45   0.61  -0.34     0.02  -0.03   0.01
  12   8    -0.08   0.16   0.40     0.01  -0.01   0.01    -0.00   0.00  -0.00
                     16                     17                     18
                        a                      a                      a 
 Frequencies --   991.2060              1077.5230              1134.5332
 Red. masses --    11.6045                 6.6106                 6.9416
 Frc consts  --     0.0000                 0.0000                 0.0000
 IR Inten    --    60.5370                 1.9726                12.6996
 Raman Activ --     0.0000                 0.0000                 0.0000
 Depolar     --     0.0000                 0.0000                 0.0000
 Atom AN      X      Y      Z        X      Y      Z        X      Y      Z
   1   6     0.33   0.30   0.10    -0.13  -0.20  -0.19     0.16   0.14   0.04
   2   6    -0.09  -0.07  -0.01    -0.31  -0.19   0.07    -0.08  -0.07  -0.02
   3  17     0.11   0.05  -0.05    -0.00   0.00   0.00    -0.02  -0.00   0.03
   4   6    -0.04  -0.02   0.02     0.18   0.14   0.01    -0.35  -0.25   0.03
   5   1     0.16   0.08  -0.06     0.23  -0.06  -0.41    -0.06   0.04   0.15
   6   6     0.08  -0.10  -0.28     0.04   0.23   0.36    -0.17  -0.03   0.18
   7   1    -0.03  -0.06  -0.06    -0.10  -0.08  -0.01    -0.14  -0.34  -0.44
   8   6     0.10   0.08   0.02     0.15   0.10  -0.02     0.31   0.20  -0.05
   9   1     0.00  -0.04  -0.08     0.13   0.15   0.10    -0.22  -0.13   0.06
  10   6    -0.62  -0.36   0.18    -0.06  -0.07  -0.04     0.22   0.06  -0.17
  11   1     0.12   0.01  -0.14     0.29   0.02  -0.34     0.16   0.06  -0.11
  12   8    -0.01   0.07   0.15    -0.02  -0.02  -0.00     0.03   0.05   0.04
                     19                     20                     21
                        a                      a                      a 
 Frequencies --  1169.6842              1210.8066              1300.5823
 Red. masses --     2.1577                 4.3301                 6.6802
 Frc consts  --     0.0000                 0.0000                 0.0000
 IR Inten    --     2.3550                 1.4251                16.6644
 Raman Activ --     0.0000                 0.0000                 0.0000
 Depolar     --     0.0000                 0.0000                 0.0000
 Atom AN      X      Y      Z        X      Y      Z        X      Y      Z
   1   6    -0.08   0.01   0.13    -0.14  -0.06   0.07     0.21   0.05  -0.19
   2   6     0.04   0.03   0.00    -0.05  -0.11  -0.14     0.03   0.04   0.04
   3  17    -0.01  -0.00   0.01     0.00  -0.00  -0.01     0.00  -0.00  -0.01
   4   6     0.18   0.13  -0.00     0.38   0.26  -0.03    -0.25  -0.18   0.01
   5   1    -0.01   0.00   0.03    -0.42  -0.01   0.55    -0.04   0.01   0.08
   6   6    -0.08  -0.06  -0.00     0.04   0.00  -0.05    -0.24  -0.21  -0.07
   7   1     0.09   0.23   0.30    -0.07  -0.18  -0.23     0.08   0.19   0.25
   8   6     0.02   0.02   0.00    -0.05  -0.02   0.03    -0.06  -0.07  -0.04
   9   1    -0.62  -0.45   0.02     0.14   0.09  -0.02     0.23   0.16  -0.03
  10   6     0.03  -0.05  -0.13    -0.08  -0.01   0.10     0.14   0.29   0.33
  11   1     0.24  -0.00  -0.32     0.18  -0.01  -0.27     0.30  -0.03  -0.45
  12   8     0.00  -0.01  -0.01    -0.05  -0.02   0.02     0.00  -0.02  -0.03
                     22                     23                     24
                        a                      a                      a 
 Frequencies --  1377.8463              1461.4972              1515.1494
 Red. masses --     7.9106                10.5912                11.0750
 Frc consts  --     0.0000                 0.0000                 0.0000
 IR Inten    --    23.9878                47.9734                11.6370
 Raman Activ --     0.0000                 0.0000                 0.0000
 Depolar     --     0.0000                 0.0000                 0.0000
 Atom AN      X      Y      Z        X      Y      Z        X      Y      Z
   1   6     0.27   0.02  -0.33    -0.04   0.15   0.34     0.19   0.04  -0.19
   2   6    -0.19  -0.18  -0.06     0.03  -0.21  -0.41    -0.28  -0.21  -0.02
   3  17    -0.00   0.00   0.01    -0.01  -0.00   0.01     0.00  -0.00  -0.01
   4   6     0.05  -0.03  -0.13    -0.13  -0.07   0.04    -0.17  -0.16  -0.07
   5   1    -0.21   0.00   0.29     0.09   0.04  -0.04    -0.07   0.00   0.10
   6   6    -0.16   0.01   0.22     0.04   0.01  -0.03     0.57   0.40  -0.04
   7   1     0.05   0.24   0.37     0.07   0.10   0.09    -0.06  -0.01   0.05
   8   6     0.22   0.16  -0.01    -0.22   0.11   0.49    -0.30  -0.17   0.08
   9   1     0.06   0.08   0.07     0.21   0.14  -0.01    -0.20  -0.14   0.01
  10   6    -0.05  -0.19  -0.26     0.14  -0.11  -0.39     0.09   0.14   0.14
  11   1    -0.10   0.05   0.22     0.13   0.03  -0.12    -0.03  -0.05  -0.05
  12   8    -0.06   0.09   0.25     0.05   0.02  -0.03    -0.01   0.03   0.07
                     25                     26                     27
                        a                      a                      a 
 Frequencies --  1566.9810              1625.6889              2978.3794
 Red. masses --    11.9907                12.2333                 1.7696
 Frc consts  --     0.0000                 0.0000                 0.0000
 IR Inten    --    88.8058               510.0891               130.4113
 Raman Activ --     0.0000                 0.0000                 0.0000
 Depolar     --     0.0000                 0.0000                 0.0000
 Atom AN      X      Y      Z        X      Y      Z        X      Y      Z
   1   6    -0.02  -0.12  -0.19    -0.17   0.07   0.36     0.02   0.02   0.02
   2   6     0.07   0.27   0.39     0.01  -0.15  -0.29    -0.21  -0.09   0.12
   3  17    -0.01  -0.01   0.00    -0.01  -0.01   0.00    -0.00  -0.00  -0.00
   4   6     0.14  -0.14  -0.44     0.12  -0.23  -0.58     0.00   0.00  -0.00
   5   1     0.00  -0.04  -0.07     0.09   0.01  -0.09    -0.10  -0.11  -0.07
   6   6    -0.00  -0.11  -0.20    -0.03   0.03   0.10     0.00  -0.01  -0.03
   7   1    -0.04  -0.10  -0.13     0.03   0.04   0.04     0.76   0.32  -0.45
   8   6    -0.18   0.06   0.35     0.12  -0.04  -0.24    -0.01  -0.01  -0.01
   9   1     0.02  -0.01  -0.05     0.00   0.01   0.02    -0.03   0.05   0.14
  10   6     0.09  -0.06  -0.22     0.03   0.17   0.27     0.00   0.00   0.00
  11   1     0.09   0.01  -0.10    -0.03  -0.01   0.03     0.02   0.02   0.02
  12   8    -0.09   0.13   0.36    -0.07   0.12   0.31    -0.00   0.00   0.00
                     28                     29                     30
                        a                      a                      a 
 Frequencies --  3021.4549              3032.5654              3043.2771
 Red. masses --     1.7673                 1.8316                 1.8871
 Frc consts  --     0.0000                 0.0000                 0.0000
 IR Inten    --    62.8686               213.3167               100.4426
 Raman Activ --     0.0000                 0.0000                 0.0000
 Depolar     --     0.0000                 0.0000                 0.0000
 Atom AN      X      Y      Z        X      Y      Z        X      Y      Z
   1   6    -0.02  -0.02  -0.01     0.13   0.15   0.10     0.08   0.09   0.06
   2   6     0.01   0.00  -0.01     0.02   0.01  -0.01     0.06   0.02  -0.03
   3  17    -0.00  -0.00   0.00    -0.00  -0.00   0.00     0.00   0.00  -0.00
   4   6    -0.00  -0.00  -0.00    -0.00   0.00   0.01     0.00   0.01   0.01
   5   1     0.08   0.09   0.05    -0.48  -0.55  -0.35    -0.28  -0.32  -0.20
   6   6     0.03  -0.05  -0.14    -0.02   0.03   0.09     0.04  -0.07  -0.18
   7   1    -0.03  -0.01   0.02    -0.06  -0.02   0.03    -0.16  -0.07   0.10
   8   6     0.13   0.14   0.09     0.07   0.08   0.05    -0.08  -0.09  -0.06
   9   1    -0.12   0.20   0.53     0.07  -0.12  -0.30    -0.14   0.23   0.62
  10   6     0.01   0.01  -0.00     0.00   0.00  -0.00    -0.01  -0.00   0.00
  11   1    -0.46  -0.51  -0.32    -0.23  -0.26  -0.16     0.27   0.30   0.19
  12   8     0.00   0.00   0.00    -0.00  -0.00  -0.00     0.00  -0.00  -0.00
