      -----------------------------------------------------------      
     |                   =====================                   |     
     |                           x T B                           |     
     |                   =====================                   |     
     |                         S. Grimme                         |     
     |          Mulliken Center for Theoretical Chemistry        |     
     |                    University of Bonn                     |     
      -----------------------------------------------------------      

   * xtb version 6.7.1 (edcfbbe) compiled by 'albert@albert-system' on 2024-07-22

   xtb is free software: you can redistribute it and/or modify it under
   the terms of the GNU Lesser General Public License as published by
   the Free Software Foundation, either version 3 of the License, or
   (at your option) any later version.
   
   xtb is distributed in the hope that it will be useful,
   but WITHOUT ANY WARRANTY; without even the implied warranty of
   MERCHANTABILITY or FITNESS FOR A PARTICULAR PURPOSE.  See the
   GNU Lesser General Public License for more details.
   
   Cite this work as:
   * C. Bannwarth, E. Caldeweyher, S. Ehlert, A. Hansen, P. Pracht,
     J. Seibert, S. Spicher, S. Grimme, WIREs Comput. Mol. Sci., 2020, 11,
     e01493. DOI: 10.1002/wcms.1493
   
   for GFN2-xTB:
   * C. Bannwarth, S. Ehlert and S. Grimme., J. Chem. Theory Comput., 2019,
     15, 1652-1671. DOI: 10.1021/acs.jctc.8b01176
   for GFN1-xTB:
   * S. Grimme, C. Bannwarth, P. Shushkov, J. Chem. Theory Comput., 2017,
     13, 1989-2009. DOI: 10.1021/acs.jctc.7b00118
   for GFN0-xTB:
   * P. Pracht, E. Caldeweyher, S. Ehlert, S. Grimme, ChemRxiv, 2019, preprint.
     DOI: 10.26434/chemrxiv.8326202.v1
   for GFN-FF:
   * S. Spicher and S. Grimme, Angew. Chem. Int. Ed., 2020, 59, 15665-15673.
     DOI: 10.1002/anie.202004239
   
   for ALPB and GBSA implicit solvation:
   * S. Ehlert, M. Stahn, S. Spicher, S. Grimme, J. Chem. Theory Comput.,
     2021, 17, 4250-4261. DOI: 10.1021/acs.jctc.1c00471
   
   for ddCOSMO and CPCM-X implicit solvation:
   * M. Stahn, S. Ehlert, S. Grimme, J. Phys. Chem. A,
     2023, XX, XXXX-XXXX. DOI: 10.1021/acs.jpca.3c04382
   
   for DFT-D4:
   * E. Caldeweyher, C. Bannwarth and S. Grimme, J. Chem. Phys., 2017,
     147, 034112. DOI: 10.1063/1.4993215
   * E. Caldeweyher, S. Ehlert, A. Hansen, H. Neugebauer, S. Spicher,
     C. Bannwarth and S. Grimme, J. Chem. Phys., 2019, 150, 154122.
     DOI: 10.1063/1.5090222
   * E. Caldeweyher, J.-M. Mewes, S. Ehlert and S. Grimme, Phys. Chem. Chem. Phys.
     2020, 22, 8499-8512. DOI: 10.1039/D0CP00502A
   
   for sTDA-xTB:
   * S. Grimme and C. Bannwarth, J. Chem. Phys., 2016, 145, 054103.
     DOI: 10.1063/1.4959605
   
   in the mass-spec context:
   * V. Asgeirsson, C. Bauer and S. Grimme, Chem. Sci., 2017, 8, 4879.
     DOI: 10.1039/c7sc00601b
   * J. Koopman and S. Grimme, ACS Omega 2019, 4, 12, 15120-15133.
     DOI: 10.1021/acsomega.9b02011
   
   for metadynamics refer to:
   * S. Grimme, J. Chem. Theory Comput., 2019, 155, 2847-2862
     DOI: 10.1021/acs.jctc.9b00143
   
   for SPH calculations refer to:
   * S. Spicher and S. Grimme, J. Chem. Theory Comput., 2021, 17, 1701-1714
     DOI: 10.1021/acs.jctc.0c01306
   
   for ONIOM refer to:
   * C. Plett, A. Katbashev, S. Ehlert, S. Grimme, M. Bursch,
     Phys. Chem. Chem. Phys., 2023, 25, 17860-17868. DOI: 10.1039/D3CP02178E
   
   for DIPRO refer to:
   * J. Kohn, N. Gildemeister, S. Grimme, D. Fazzi, A. Hansen,
     J. Chem. Phys., 2023, just accepted.
   
   for PTB refer to:
   * S. Grimme, M. Mueller, A. Hansen, J. Chem. Phys., 2023, 158, 124111.
     DOI: 10.1063/5.0137838
   
   with help from (in alphabetical order)
   P. Atkinson, C. Bannwarth, F. Bohle, G. Brandenburg, E. Caldeweyher
   M. Checinski, S. Dohm, S. Ehlert, S. Ehrlich, I. Gerasimov, C. Hölzer
   A. Katbashev, J. Kohn, J. Koopman, C. Lavigne, S. Lehtola, F. März, M. Müller,
   F. Musil, H. Neugebauer, J. Pisarek, C. Plett, P. Pracht, F. Pultar,
   J. Seibert, P. Shushkov, S. Spicher, M. Stahn, M. Steiner, T. Strunk,
   J. Stückrath, T. Rose, and J. Unsleber
   
 * started run on 2025/10/18 at 06:27:23.276     
   ID    Z sym.   atoms
    1    6 C      1, 2, 4, 6, 8, 10
    2   17 Cl     3
    3    1 H      5, 7, 9, 11
    4    8 O      12

           -------------------------------------------------
          |                Calculation Setup                |
           -------------------------------------------------

          program call               : xtb xyz.xyz --charge -1 --ohess
          hostname                   : m003
          coordinate file            : xyz.xyz
          omp threads                :                     2


           -------------------------------------------------
          |                 G F N 2 - x T B                 |
           -------------------------------------------------

        Reference                      10.1021/acs.jctc.8b01176
      * Hamiltonian:
        H0-scaling (s, p, d)           1.850000    2.230000    2.230000
        zeta-weighting                 0.500000
      * Dispersion:
        s8                             2.700000
        a1                             0.520000
        a2                             5.000000
        s9                             5.000000
      * Repulsion:
        kExp                           1.500000    1.000000
        rExp                           1.000000
      * Coulomb:
        alpha                          2.000000
        third order                    shell-resolved
        anisotropic                    true
        a3                             3.000000
        a5                             4.000000
        cn-shift                       1.200000
        cn-exp                         4.000000
        max-rad                        5.000000


          ...................................................
          :                      SETUP                      :
          :.................................................:
          :  # basis functions                  42          :
          :  # atomic orbitals                  41          :
          :  # shells                           21          :
          :  # electrons                        42          :
          :  max. iterations                   250          :
          :  Hamiltonian                  GFN2-xTB          :
          :  restarted?                      false          :
          :  GBSA solvation                  false          :
          :  PC potential                    false          :
          :  electronic temp.          300.0000000     K    :
          :  accuracy                    1.0000000          :
          :  -> integral cutoff          0.2500000E+02      :
          :  -> integral neglect         0.1000000E-07      :
          :  -> SCF convergence          0.1000000E-05 Eh   :
          :  -> wf. convergence          0.1000000E-03 e    :
          :  Broyden damping             0.4000000          :
          :  net charge                         -1          :
          :  unpaired electrons                  0          :
          ...................................................

 iter      E             dE          RMSdq      gap      omega  full diag
   1    -23.8578502 -0.238579E+02  0.507E+00    3.20       0.0  T
   2    -23.9098633 -0.520132E-01  0.236E+00    2.44       1.0  T
   3    -23.9024902  0.737318E-02  0.164E+00    2.68       1.0  T
   4    -23.9162238 -0.137336E-01  0.662E-01    2.59       1.0  T
   5    -23.9190464 -0.282260E-02  0.155E-01    2.57       1.0  T
   6    -23.9190630 -0.165805E-04  0.115E-01    2.58       1.0  T
   7    -23.9191244 -0.614091E-04  0.681E-02    2.59       1.0  T
   8    -23.9191401 -0.157246E-04  0.496E-02    2.58       1.0  T
   9    -23.9191493 -0.917102E-05  0.333E-02    2.58       1.0  T
  10    -23.9191560 -0.675616E-05  0.158E-02    2.59       1.8  T
  11    -23.9191572 -0.115129E-05  0.515E-03    2.58       5.6  T
  12    -23.9191573 -0.128561E-06  0.356E-03    2.58       8.1  T
  13    -23.9191573 -0.345012E-07  0.242E-03    2.59      11.9  T
  14    -23.9191574 -0.302319E-07  0.157E-03    2.59      18.4  T
  15    -23.9191574 -0.131251E-07  0.869E-04    2.59      33.2  T
  16    -23.9191574 -0.398465E-09  0.659E-04    2.58      43.8  T

   *** convergence criteria satisfied after 16 iterations ***

         #    Occupation            Energy/Eh            Energy/eV
      -------------------------------------------------------------
         1        2.0000           -0.8994675             -24.4758
       ...           ...                  ...                  ...
        15        2.0000           -0.2803352              -7.6283
        16        2.0000           -0.2740854              -7.4582
        17        2.0000           -0.2619471              -7.1279
        18        2.0000           -0.2509471              -6.8286
        19        2.0000           -0.2184088              -5.9432
        20        2.0000           -0.1784954              -4.8571
        21        2.0000           -0.1666832              -4.5357 (HOMO)
        22                         -0.0716887              -1.9507 (LUMO)
        23                         -0.0371060              -1.0097
        24                          0.0226049               0.6151
        25                          0.0574242               1.5626
        26                          0.1765852               4.8051
       ...                                ...                  ...
        41                          0.7738805              21.0584
      -------------------------------------------------------------
                  HL-Gap            0.0949945 Eh            2.5849 eV
             Fermi-level           -0.1191860 Eh           -3.2432 eV

 SCC (total)                   0 d,  0 h,  0 min,  0.047 sec
 SCC setup                      ...        0 min,  0.000 sec (  0.471%)
 Dispersion                     ...        0 min,  0.000 sec (  0.215%)
 classical contributions        ...        0 min,  0.000 sec (  0.058%)
 integral evaluation            ...        0 min,  0.035 sec ( 75.091%)
 iterations                     ...        0 min,  0.009 sec ( 18.868%)
 molecular gradient             ...        0 min,  0.002 sec (  4.953%)
 printout                       ...        0 min,  0.000 sec (  0.269%)

         :::::::::::::::::::::::::::::::::::::::::::::::::::::
         ::                     SUMMARY                     ::
         :::::::::::::::::::::::::::::::::::::::::::::::::::::
         :: total energy             -23.685789953137 Eh    ::
         :: gradient norm              0.157245963438 Eh/a0 ::
         :: HOMO-LUMO gap              2.584932629466 eV    ::
         ::.................................................::
         :: SCC energy               -23.919140977952 Eh    ::
         :: -> isotropic ES            0.143918039272 Eh    ::
         :: -> anisotropic ES          0.010683840270 Eh    ::
         :: -> anisotropic XC          0.003781288907 Eh    ::
         :: -> dispersion             -0.011349641978 Eh    ::
         :: repulsion energy           0.233351024815 Eh    ::
         :: add. restraining           0.000000000000 Eh    ::
         :: total charge              -1.000000000000 e     ::
         :::::::::::::::::::::::::::::::::::::::::::::::::::::

      ----------------------------------------------------------- 
     |                   =====================                   |
     |                        A N C O P T                        |
     |                   =====================                   |
     |               Approximate Normal Coordinate               |
     |                Rational Function Optimizer                |
      ----------------------------------------------------------- 
      ----------------------------------------------------------- 
     |                   =====================                   |
     |                        A N C O P T                        |
     |                   =====================                   |
     |               Approximate Normal Coordinate               |
     |                Rational Function Optimizer                |
      ----------------------------------------------------------- 

          ...................................................
          :                      SETUP                      :
          :.................................................:
          :   optimization level            normal          :
          :   max. optcycles                   200          :
          :   ANC micro-cycles                  20          :
          :   degrees of freedom                30          :
          :.................................................:
          :   RF solver                   davidson          :
          :   write xtbopt.log                true          :
          :   linear?                        false          :
          :   energy convergence         0.5000000E-05 Eh   :
          :   grad. convergence          0.1000000E-02 Eh/α :
          :   maxmium RF displ.          1.0000000          :
          :   Hlow (freq-cutoff)         0.1000000E-01      :
          :   Hmax (freq-cutoff)         5.0000000          :
          :   S6 in model hess.         20.0000000          :
          ...................................................

generating ANC from exact Hessian ...
Using Lindh-Hessian (1995)
 Shifting diagonal of input Hessian by   2.381383939386237E-003
 Lowest  eigenvalues of input Hessian
    0.000000    0.000000    0.000000    0.000000    0.000000    0.000000
    0.010000    0.012320    0.017117    0.021749    0.048099    0.048114
    0.056205    0.080111    0.081188    0.083999    0.089420    0.096122
 Highest eigenvalues
    1.277332    1.410263    1.529747    1.563537    1.706003    2.050460
 

........................................................................
.............................. CYCLE    1 ..............................
........................................................................

 iter      E             dE          RMSdq      gap      omega  full diag
   1    -23.9191574 -0.239192E+02  0.632E-05    2.59       0.0  T
   2    -23.9191574 -0.177920E-10  0.298E-05    2.59     968.7  T
   3    -23.9191574 -0.223466E-11  0.183E-05    2.59    1576.3  T
     SCC iter.                  ...        0 min,  0.001 sec
     gradient                   ...        0 min,  0.002 sec
 * total energy  :   -23.6857900 Eh     change       -0.3697203E-08 Eh
   gradient norm :     0.1572444 Eh/α   predicted     0.0000000E+00 (-100.00%)
   displ. norm   :     0.3364826 α      lambda       -0.3683132E-01
   maximum displ.:     0.2391617 α      in ANC's #17, #18, #12, ...

........................................................................
.............................. CYCLE    2 ..............................
........................................................................

 iter      E             dE          RMSdq      gap      omega  full diag
   1    -23.9865945 -0.239866E+02  0.516E-01    3.07       0.0  T
   2    -23.9870623 -0.467709E-03  0.377E-01    2.97       1.0  T
   3    -23.9871265 -0.642411E-04  0.193E-01    3.01       1.0  T
   4    -23.9872803 -0.153796E-03  0.578E-02    3.00       1.0  T
   5    -23.9873104 -0.301532E-04  0.282E-02    3.00       1.0  T
   6    -23.9873123 -0.181125E-05  0.219E-02    3.00       1.3  T
   7    -23.9873141 -0.182811E-05  0.146E-02    3.00       2.0  T
   8    -23.9873151 -0.101872E-05  0.758E-03    3.00       3.8  T
   9    -23.9873155 -0.407777E-06  0.340E-03    3.00       8.5  T
  10    -23.9873155 -0.200879E-07  0.163E-03    3.00      17.7  T
  11    -23.9873155 -0.145671E-07  0.813E-04    3.00      35.5  T
  12    -23.9873155 -0.202430E-08  0.485E-04    3.00      59.5  T
     SCC iter.                  ...        0 min,  0.004 sec
     gradient                   ...        0 min,  0.002 sec
 * total energy  :   -23.7103474 Eh     change       -0.2455748E-01 Eh
   gradient norm :     0.0512611 Eh/α   predicted    -0.2050069E-01 ( -16.52%)
   displ. norm   :     0.1576389 α      lambda       -0.5149876E-02
   maximum displ.:     0.0951881 α      in ANC's #17, #12, #18, ...

........................................................................
.............................. CYCLE    3 ..............................
........................................................................

 iter      E             dE          RMSdq      gap      omega  full diag
   1    -24.0116419 -0.240116E+02  0.288E-01    3.23       0.0  T
   2    -24.0116971 -0.552195E-04  0.180E-01    3.21       1.0  T
   3    -24.0116589  0.382664E-04  0.872E-02    3.23       1.0  T
   4    -24.0117214 -0.625815E-04  0.209E-02    3.22       1.4  T
   5    -24.0117239 -0.248360E-05  0.132E-02    3.22       2.2  T
   6    -24.0117244 -0.435495E-06  0.102E-02    3.22       2.8  T
   7    -24.0117247 -0.303114E-06  0.731E-03    3.22       3.9  T
   8    -24.0117250 -0.341552E-06  0.263E-03    3.22      11.0  T
   9    -24.0117250 -0.219655E-07  0.154E-03    3.22      18.8  T
  10    -24.0117250 -0.104708E-07  0.566E-04    3.22      51.0  T
  11    -24.0117250 -0.792824E-09  0.381E-04    3.22      75.7  T
     SCC iter.                  ...        0 min,  0.003 sec
     gradient                   ...        0 min,  0.002 sec
 * total energy  :   -23.7126584 Eh     change       -0.2310975E-02 Eh
   gradient norm :     0.0145985 Eh/α   predicted    -0.2638925E-02 (  14.19%)
   displ. norm   :     0.0300421 α      lambda       -0.2627040E-03
   maximum displ.:     0.0171779 α      in ANC's #18, #5, #17, ...

........................................................................
.............................. CYCLE    4 ..............................
........................................................................

 iter      E             dE          RMSdq      gap      omega  full diag
   1    -24.0078441 -0.240078E+02  0.451E-02    3.18       0.0  T
   2    -24.0078508 -0.668486E-05  0.313E-02    3.20       1.0  T
   3    -24.0078521 -0.131711E-05  0.166E-02    3.19       1.7  T
   4    -24.0078523 -0.198103E-06  0.474E-03    3.19       6.1  T
   5    -24.0078525 -0.224497E-06  0.200E-03    3.19      14.4  T
   6    -24.0078525 -0.836560E-08  0.152E-03    3.19      19.1  T
   7    -24.0078525 -0.846251E-08  0.103E-03    3.19      28.1  T
   8    -24.0078525 -0.558501E-08  0.526E-04    3.19      54.9  T
   9    -24.0078525 -0.161832E-08  0.234E-04    3.19     123.6  T
     SCC iter.                  ...        0 min,  0.003 sec
     gradient                   ...        0 min,  0.002 sec
 * total energy  :   -23.7128187 Eh     change       -0.1602458E-03 Eh
   gradient norm :     0.0062480 Eh/α   predicted    -0.1314705E-03 ( -17.96%)
   displ. norm   :     0.0147742 α      lambda       -0.5322806E-04
   maximum displ.:     0.0080636 α      in ANC's #14, #8, #18, ...

........................................................................
.............................. CYCLE    5 ..............................
........................................................................

 iter      E             dE          RMSdq      gap      omega  full diag
   1    -24.0073665 -0.240074E+02  0.255E-02    3.19       0.0  T
   2    -24.0073700 -0.344899E-05  0.171E-02    3.20       1.7  T
   3    -24.0073711 -0.105757E-05  0.938E-03    3.20       3.1  T
   4    -24.0073711 -0.469840E-07  0.431E-03    3.20       6.7  T
   5    -24.0073711 -0.492128E-07  0.253E-03    3.20      11.4  T
   6    -24.0073712 -0.204483E-07  0.178E-03    3.20      16.2  T
   7    -24.0073712 -0.105628E-07  0.134E-03    3.20      21.6  T
   8    -24.0073712 -0.109822E-07  0.501E-04    3.20      57.6  T
   9    -24.0073712 -0.155560E-08  0.197E-04    3.20     146.3  T
     SCC iter.                  ...        0 min,  0.003 sec
     gradient                   ...        0 min,  0.002 sec
 * total energy  :   -23.7128531 Eh     change       -0.3445231E-04 Eh
   gradient norm :     0.0026286 Eh/α   predicted    -0.2661869E-04 ( -22.74%)
   displ. norm   :     0.0079048 α      lambda       -0.1310996E-04
   maximum displ.:     0.0034777 α      in ANC's #14, #8, #10, ...

........................................................................
.............................. CYCLE    6 ..............................
........................................................................

 iter      E             dE          RMSdq      gap      omega  full diag
   1    -24.0075621 -0.240076E+02  0.131E-02    3.20       0.0  T
   2    -24.0075628 -0.704118E-06  0.102E-02    3.20       2.8  T
   3    -24.0075631 -0.327098E-06  0.577E-03    3.20       5.0  T
   4    -24.0075631 -0.300740E-07  0.352E-03    3.20       8.2  T
   5    -24.0075632 -0.299712E-07  0.221E-03    3.20      13.0  T
   6    -24.0075632 -0.227299E-07  0.150E-03    3.20      19.2  T
   7    -24.0075632 -0.890391E-08  0.975E-04    3.20      29.6  T
   8    -24.0075632 -0.619739E-08  0.285E-04    3.20     101.2  T
     SCC iter.                  ...        0 min,  0.003 sec
     gradient                   ...        0 min,  0.002 sec
 * total energy  :   -23.7128610 Eh     change       -0.7885457E-05 Eh
   gradient norm :     0.0010808 Eh/α   predicted    -0.6555693E-05 ( -16.86%)
   displ. norm   :     0.0043830 α      lambda       -0.1720834E-05
   maximum displ.:     0.0027209 α      in ANC's #5, #10, #24, ...

........................................................................
.............................. CYCLE    7 ..............................
........................................................................

 iter      E             dE          RMSdq      gap      omega  full diag
   1    -24.0077382 -0.240077E+02  0.612E-03    3.20       0.0  T
   2    -24.0077383 -0.138002E-06  0.591E-03    3.20       4.9  T
   3    -24.0077385 -0.130143E-06  0.362E-03    3.20       8.0  T
   4    -24.0077385 -0.155025E-07  0.195E-03    3.20      14.8  T
   5    -24.0077385 -0.118393E-07  0.130E-03    3.20      22.3  T
   6    -24.0077385 -0.648323E-08  0.834E-04    3.20      34.6  T
   7    -24.0077385 -0.271617E-08  0.483E-04    3.20      59.8  T
     SCC iter.                  ...        0 min,  0.002 sec
     gradient                   ...        0 min,  0.002 sec
 * total energy  :   -23.7128622 Eh     change       -0.1183950E-05 Eh
   gradient norm :     0.0003724 Eh/α   predicted    -0.8617470E-06 ( -27.21%)
   displ. norm   :     0.0017725 α      lambda       -0.2104242E-06
   maximum displ.:     0.0012506 α      in ANC's #14, #8, #10, ...

   *** GEOMETRY OPTIMIZATION CONVERGED AFTER 7 ITERATIONS ***

------------------------------------------------------------------------
 total energy gain   :        -0.0270722 Eh      -16.9881 kcal/mol
 total RMSD          :         0.1373761 a0        0.0727 Å
 total power (kW/mol):       -10.1540172 (step)-1781.9041 (real)
------------------------------------------------------------------------

 ANCopt (total)                0 d,  0 h,  0 min,  0.040 sec
 optimizer setup                ...        0 min,  0.000 sec (  0.622%)
 model hessian                  ...        0 min,  0.001 sec (  2.160%)
 ANC generation                 ...        0 min,  0.000 sec (  0.442%)
 coordinate transformation      ...        0 min,  0.000 sec (  0.110%)
 single point calculation       ...        0 min,  0.038 sec ( 94.141%)
 optimization log               ...        0 min,  0.000 sec (  0.830%)
 hessian update                 ...        0 min,  0.000 sec (  0.106%)
 rational function              ...        0 min,  0.000 sec (  0.889%)

================
 final structure:
================
12
 xtb: 6.7.1 (edcfbbe)
C           -4.06436390505794       -1.94157445376567        1.92698709487824
C           -3.77531524219651       -2.41936087893548        0.67478641334672
Cl          -7.42369475247641       -3.94846302970333        2.79152501013283
C           -5.20318993168537       -2.36212183350930        2.69046673250567
H           -3.41763802048304       -1.20655019383842        2.39189495020287
C           -4.58789598876024       -3.36188958466974        0.05623933006960
H           -2.89341865943486       -2.05470778399719        0.15412232944145
C           -5.70905216232573       -3.81465752918651        0.73773770509187
H           -4.35798711047452       -3.73789477503288       -0.93248106078598
C           -5.99370785225289       -3.33328982215946        1.99053777560607
H           -6.36536910292262       -4.54940704960794        0.28617136564878
O           -5.46659727192986       -1.92557806559408        3.83366935386188
 
 Bond Distances (Angstroems)
 ---------------------------
C1-C2=1.3711         C1-C4=1.4341         C1-H5=1.0838         C2-C1=1.3711         C2-C6=1.3897         C2-H7=1.0871         
Cl3-C10=1.7507       C4-C1=1.4341         C4-C10=1.4346        C4-O12=1.2517        H5-C1=1.0838         C6-C2=1.3897         
C6-C8=1.3880         C6-H9=1.0825         H7-C2=1.0871         C8-C6=1.3880         C8-C10=1.3720        C8-H11=1.0838        
H9-C6=1.0825         C10-Cl3=1.7507       C10-C4=1.4346        C10-C8=1.3720        H11-C8=1.0838        O12-C4=1.2517        
 C  H  Rav=1.0843 sigma=0.0017  Rmin=1.0825  Rmax=1.0871     4
 C  C  Rav=1.3982 sigma=0.0265  Rmin=1.3711  Rmax=1.4346     6
 O  C  Rav=1.2517 sigma=0.0000  Rmin=1.2517  Rmax=1.2517     1
 Cl C  Rav=1.7507 sigma=0.0000  Rmin=1.7507  Rmax=1.7507     1
 
 selected bond angles (degree)
 --------------------
C4-C1-C2=123.47                H5-C1-C2=120.15                H5-C1-C4=116.38                C6-C2-C1=121.30                
H7-C2-C1=119.44                H7-C2-C6=119.25                C10-C4-C1=112.11               O12-C4-C1=123.44               
O12-C4-C10=124.45              C8-C6-C2=118.36                H9-C6-C2=121.19                H9-C6-C8=120.45                
C10-C8-C6=120.10               H11-C8-C6=120.38               H11-C8-C10=119.52              C4-C10-Cl3=117.69              
C8-C10-Cl3=117.64              C8-C10-C4=124.66               
 
 selected dihedral angles (degree)
 ---------------------------------
C6-C2-C1-C4=  0.00            C6-C2-C1-H5=180.00            H7-C2-C1-C4=180.00            H7-C2-C1-H5=  0.00            
C10-C4-C1-C2=  0.00           C10-C4-C1-H5=180.00           O12-C4-C1-C2=180.00           O12-C4-C1-H5=  0.00           
C8-C6-C2-C1=  0.00            C8-C6-C2-H7=180.00            H9-C6-C2-C1=180.00            H9-C6-C2-H7=  0.00            
C10-C8-C6-C2=  0.00           C10-C8-C6-H9=180.00           H11-C8-C6-C2=180.00           H11-C8-C6-H9=  0.00           
Cl3-C10-C4-C1=180.00          Cl3-C10-C4-O12=  0.00         C8-C10-C4-C1=  0.00           C8-C10-C4-O12=180.00          
Cl3-C10-C8-C6=180.00          Cl3-C10-C8-H11=  0.00         C4-C10-C8-C6=  0.00           C4-C10-C8-H11=180.00          
           -------------------------------------------------
          |                Final Singlepoint                |
           -------------------------------------------------

          ...................................................
          :                      SETUP                      :
          :.................................................:
          :  # basis functions                  42          :
          :  # atomic orbitals                  41          :
          :  # shells                           21          :
          :  # electrons                        42          :
          :  max. iterations                   250          :
          :  Hamiltonian                  GFN2-xTB          :
          :  restarted?                      false          :
          :  GBSA solvation                  false          :
          :  PC potential                    false          :
          :  electronic temp.          300.0000000     K    :
          :  accuracy                    1.0000000          :
          :  -> integral cutoff          0.2500000E+02      :
          :  -> integral neglect         0.1000000E-07      :
          :  -> SCF convergence          0.1000000E-05 Eh   :
          :  -> wf. convergence          0.1000000E-03 e    :
          :  Broyden damping             0.4000000          :
          :  net charge                         -1          :
          :  unpaired electrons                  0          :
          ...................................................

 iter      E             dE          RMSdq      gap      omega  full diag
   1    -24.0077385 -0.240077E+02  0.117E-04    3.20       0.0  T
   2    -24.0077385 -0.323759E-10  0.762E-05    3.20     378.7  T
   3    -24.0077385 -0.167866E-10  0.576E-05    3.20     501.3  T

   *** convergence criteria satisfied after 3 iterations ***

         #    Occupation            Energy/Eh            Energy/eV
      -------------------------------------------------------------
         1        2.0000           -0.8952621             -24.3613
       ...           ...                  ...                  ...
        15        2.0000           -0.2772135              -7.5434
        16        2.0000           -0.2751041              -7.4860
        17        2.0000           -0.2744036              -7.4669
        18        2.0000           -0.2514753              -6.8430
        19        2.0000           -0.2301681              -6.2632
        20        2.0000           -0.1803453              -4.9074
        21        2.0000           -0.1715270              -4.6675 (HOMO)
        22                         -0.0538910              -1.4664 (LUMO)
        23                         -0.0275613              -0.7500
        24                          0.0237214               0.6455
        25                          0.0819331               2.2295
        26                          0.1875801               5.1043
       ...                                ...                  ...
        41                          0.8596447              23.3921
      -------------------------------------------------------------
                  HL-Gap            0.1176360 Eh            3.2010 eV
             Fermi-level           -0.1127090 Eh           -3.0670 eV

 SCC (total)                   0 d,  0 h,  0 min,  0.004 sec
 SCC setup                      ...        0 min,  0.000 sec (  1.947%)
 Dispersion                     ...        0 min,  0.000 sec (  0.890%)
 classical contributions        ...        0 min,  0.000 sec (  0.271%)
 integral evaluation            ...        0 min,  0.001 sec ( 22.120%)
 iterations                     ...        0 min,  0.001 sec ( 26.072%)
 molecular gradient             ...        0 min,  0.002 sec ( 46.380%)
 printout                       ...        0 min,  0.000 sec (  1.728%)

         :::::::::::::::::::::::::::::::::::::::::::::::::::::
         ::                     SUMMARY                     ::
         :::::::::::::::::::::::::::::::::::::::::::::::::::::
         :: total energy             -23.712862181407 Eh    ::
         :: gradient norm              0.000367551232 Eh/a0 ::
         :: HOMO-LUMO gap              3.201037722437 eV    ::
         ::.................................................::
         :: SCC energy               -24.007723957923 Eh    ::
         :: -> isotropic ES            0.144380890924 Eh    ::
         :: -> anisotropic ES          0.007987963739 Eh    ::
         :: -> anisotropic XC          0.001663065420 Eh    ::
         :: -> dispersion             -0.011616489447 Eh    ::
         :: repulsion energy           0.294861776516 Eh    ::
         :: add. restraining           0.000000000000 Eh    ::
         :: total charge              -1.000000000000 e     ::
         :::::::::::::::::::::::::::::::::::::::::::::::::::::

           ------------------------------------------------- 
          |                Numerical Hessian                |
           ------------------------------------------------- 
step length          :   0.00500
SCC accuracy         :   0.30000
Hessian scale factor :   1.00000
frozen atoms in %    :   0.00000    0
RMS gradient         :   0.00037
estimated CPU  time      0.02 min
estimated wall time      0.01 min

writing file <hessian>.

 projected vibrational frequencies (cm⁻¹)
eigval :       -0.00    -0.00    -0.00     0.00     0.00     0.00
eigval :      128.72   202.89   239.13   346.18   389.20   507.17
eigval :      511.83   531.87   646.39   660.47   746.32   809.62
eigval :      844.49   875.18   903.18   991.21  1077.52  1134.53
eigval :     1169.68  1210.81  1300.58  1377.85  1461.50  1515.15
eigval :     1566.98  1625.69  2978.38  3021.45  3032.57  3043.28
           -------------------------------------------------
          |                Property Printout                |
           -------------------------------------------------

    * Orbital Energies and Occupations

         #    Occupation            Energy/Eh            Energy/eV
      -------------------------------------------------------------
         1        2.0000           -0.8952617             -24.3613
       ...           ...                  ...                  ...
         9        2.0000           -0.3410521              -9.2805
        10        2.0000           -0.3376704              -9.1885
        11        2.0000           -0.3255119              -8.8576
        12        2.0000           -0.3200411              -8.7088
        13        2.0000           -0.3073376              -8.3631
        14        2.0000           -0.2783574              -7.5745
        15        2.0000           -0.2772131              -7.5434
        16        2.0000           -0.2751039              -7.4860
        17        2.0000           -0.2744033              -7.4669
        18        2.0000           -0.2514748              -6.8430
        19        2.0000           -0.2301677              -6.2632
        20        2.0000           -0.1803448              -4.9074
        21        2.0000           -0.1715265              -4.6675 (HOMO)
        22                         -0.0538906              -1.4664 (LUMO)
        23                         -0.0275610              -0.7500
        24                          0.0237226               0.6455
        25                          0.0819335               2.2295
        26                          0.1875806               5.1043
        27                          0.1903022               5.1784
        28                          0.1909071               5.1948
        29                          0.2036722               5.5422
        30                          0.2721334               7.4051
        31                          0.2901363               7.8950
        32                          0.3082403               8.3876
       ...                                ...                  ...
        41                          0.8596452              23.3921
      -------------------------------------------------------------
                  HL-Gap            0.1176359 Eh            3.2010 eV
             Fermi-level           -0.1127086 Eh           -3.0670 eV

     #   Z          covCN         q      C6AA      α(0)
     1   6 C        2.923    -0.101    30.551     9.064
     2   6 C        2.912    -0.050    29.240     8.867
     3  17 Cl       0.962    -0.280   108.086    15.905
     4   6 C        2.852     0.185    24.052     8.038
     5   1 H        0.925    -0.007     3.184     2.790
     6   6 C        2.920    -0.085    30.123     9.000
     7   1 H        0.925    -0.025     3.523     2.935
     8   6 C        2.956    -0.055    29.371     8.889
     9   1 H        0.925    -0.026     3.556     2.949
    10   6 C        2.891     0.025    27.439     8.588
    11   1 H        0.925    -0.004     3.128     2.766
    12   8 O        0.857    -0.577    25.554     6.778

 Mol. C6AA /au·bohr⁶  :       2988.812641
 Mol. C8AA /au·bohr⁸  :      82332.320239
 Mol. α(0) /au        :         86.569849


Wiberg/Mayer (AO) data.
largest (>0.10) Wiberg bond orders for each atom

 ---------------------------------------------------------------------------
     #   Z sym  total        # sym  WBO       # sym  WBO       # sym  WBO
 ---------------------------------------------------------------------------
     1   6 C    3.978 --     2 C    1.521     4 C    1.188     5 H    0.971
                            12 O    0.107
     2   6 C    3.988 --     1 C    1.521     6 C    1.383     7 H    0.969
     3  17 Cl   1.012 --    10 C    0.900
     4   6 C    3.974 --    12 O    1.497     1 C    1.188    10 C    1.181
     5   1 H    1.000 --     1 C    0.971
     6   6 C    3.969 --     8 C    1.391     2 C    1.383     9 H    0.972
     7   1 H    0.999 --     2 C    0.969
     8   6 C    3.988 --    10 C    1.481     6 C    1.391    11 H    0.969
     9   1 H    0.999 --     6 C    0.972
    10   6 C    3.852 --     8 C    1.481     4 C    1.181     3 Cl   0.900
                            12 O    0.112
    11   1 H    1.000 --     8 C    0.969
    12   8 O    1.833 --     4 C    1.497    10 C    0.112     1 C    0.107
 ---------------------------------------------------------------------------

Topologies differ in total number of bonds
Writing topology from bond orders to xtbtopo.mol

molecular dipole:
                 x           y           z       tot (Debye)
 q only:       10.694       5.073      -5.135
   full:       10.968       5.149      -5.363      33.679
molecular quadrupole (traceless):
                xx          xy          yy          xz          yz          zz
 q only:      -88.287     -85.640      48.222      86.490      35.224      40.065
  q+dip:      -93.324     -88.803      50.738      91.465      38.663      42.586
   full:      -93.029     -89.770      51.114      91.662      37.471      41.914

           -------------------------------------------------
          |                Geometry Summary                 |
           -------------------------------------------------

      molecular mass/u    :      127.5485209
   center of mass at/Å    :       -5.6460254      -3.0530227       2.0324028
  moments of inertia/u·Å² :        0.1661867E+03   0.3234564E+03   0.4896430E+03
rotational constants/cm⁻¹ :        0.1014379E+00   0.5211717E-01   0.3442841E-01

 * 11 selected distances

     #   Z          #   Z                                           value/Å
     1   6 C        2   6 C                                       1.3710711
     1   6 C        4   6 C                                       1.4341152
     1   6 C        5   1 H                                       1.0838148
     2   6 C        6   6 C                                       1.3896937
     2   6 C        7   1 H                                       1.0871084
     6   6 C        8   6 C                                       1.3879591
     6   6 C        9   1 H                                       1.0825000 (min)
     3  17 Cl      10   6 C                                       1.7506804 (max)
     4   6 C       10   6 C                                       1.4345685
     8   6 C       10   6 C                                       1.3719519
     8   6 C       11   1 H                                       1.0837533

 * 3 distinct bonds (by element types)

   Z      Z             #   av. dist./Å        max./Å        min./Å
   1 H    6 C           4     1.0842941     1.0871084     1.0825000
   6 C    6 C           6     1.3982266     1.4345685     1.3710711
   6 C   17 Cl          1     1.7506804     1.7506804     1.7506804

           -------------------------------------------------
          |               Frequency Printout                |
           -------------------------------------------------
 projected vibrational frequencies (cm⁻¹)
eigval :       -0.00    -0.00    -0.00     0.00     0.00     0.00
eigval :      128.72   202.89   239.13   346.18   389.20   507.17
eigval :      511.83   531.87   646.39   660.47   746.32   809.62
eigval :      844.49   875.18   903.18   991.21  1077.52  1134.53
eigval :     1169.68  1210.81  1300.58  1377.85  1461.50  1515.15
eigval :     1566.98  1625.69  2978.38  3021.45  3032.57  3043.28
 reduced masses (amu)
   1: 12.67   2: 17.50   3: 23.00   4: 20.88   5: 23.22   6: 14.34   7: 15.14   8: 22.87
   9: 12.35  10: 23.84  11:  9.80  12: 10.32  13: 13.02  14: 13.54  15: 13.66  16: 11.38
  17:  3.23  18:  4.33  19: 11.95  20:  3.28  21:  2.92  22: 11.60  23:  6.61  24:  6.94
  25:  2.16  26:  4.33  27:  6.68  28:  7.91  29: 10.59  30: 11.07  31: 11.99  32: 12.23
  33:  1.77  34:  1.77  35:  1.83  36:  1.89
 IR intensities (km·mol⁻¹)
   1:  3.95   2:  5.99   3:  5.59   4:  1.59   5:  2.59   6:  7.89   7:  2.05   8:  2.85
   9:  3.05  10:  4.04  11:  0.08  12:  0.06  13:  7.46  14:  4.17  15:  7.82  16: 11.92
  17: 19.83  18:  9.76  19:  2.48  20:  1.43  21:  0.15  22: 60.54  23:  1.97  24: 12.70
  25:  2.35  26:  1.43  27: 16.66  28: 23.99  29: 47.97  30: 11.64  31: 88.81  32:510.09
  33:130.41  34: 62.87  35:213.32  36:100.44
 Raman intensities (Ä⁴*amu⁻¹)
   1:  0.00   2:  0.00   3:  0.00   4:  0.00   5:  0.00   6:  0.00   7:  0.00   8:  0.00
   9:  0.00  10:  0.00  11:  0.00  12:  0.00  13:  0.00  14:  0.00  15:  0.00  16:  0.00
  17:  0.00  18:  0.00  19:  0.00  20:  0.00  21:  0.00  22:  0.00  23:  0.00  24:  0.00
  25:  0.00  26:  0.00  27:  0.00  28:  0.00  29:  0.00  30:  0.00  31:  0.00  32:  0.00
  33:  0.00  34:  0.00  35:  0.00  36:  0.00
 output can be read by thermo (or use thermo option).
 writing <g98.out> molden fake output.
 recommended (thermochemical) frequency scaling factor: 1.0
           -------------------------------------------------
          |             Thermodynamic Functions             |
           -------------------------------------------------

Molecule has the following symmetry elements: (sigma) 
It seems to be the Cs point group
cs  symmetry found (for desy threshold:  0.10E+00) used in thermo

          ...................................................
          :                      SETUP                      :
          :.................................................:
          :  # frequencies                          30      :
          :  # imaginary freq.                       0      :
          :  linear?                             false      :
          :  only rotor calc.                    false      :
          :  symmetry                               cs      :
          :  rotational number                       1      :
          :  scaling factor                  1.0000000      :
          :  rotor cutoff                   50.0000000 cm⁻¹ :
          :  imag. cutoff                  -20.0000000 cm⁻¹ :
          :.................................................:

    mode    ω/cm⁻¹     T·S(HO)/kcal·mol⁻¹    T·S(FR)/kcal·mol⁻¹   T·S(vib)
   ------------------------------------------------------------------------
       1    128.72    -0.88402 ( 97.77%)    -0.77629 (  2.23%)    -0.88163
       2    202.89    -0.62812 ( 99.63%)    -0.64154 (  0.37%)    -0.62816
       3    239.13    -0.53946 ( 99.81%)    -0.59288 (  0.19%)    -0.53957
   ------------------------------------------------------------------------

   temp. (K)  partition function   enthalpy   heat capacity  entropy
                                   cal/mol     cal/K/mol   cal/K/mol   J/K/mol
 298.15  VIB   11.8                 2406.601     18.949     12.962
         ROT  0.392E+06              888.752      2.981     28.574
         INT  0.461E+07             3295.353     21.930     41.536
         TR   0.139E+28             1481.254      4.968     40.425
         TOT                        4776.6068    26.8977    81.9609   342.9245

       T/K    H(0)-H(T)+PV         H(T)/Eh          T*S/Eh         G(T)/Eh
   ------------------------------------------------------------------------
    298.15    0.761201E-02    0.870057E-01    0.389423E-01    0.480635E-01
   ------------------------------------------------------------------------

         :::::::::::::::::::::::::::::::::::::::::::::::::::::
         ::                  THERMODYNAMIC                  ::
         :::::::::::::::::::::::::::::::::::::::::::::::::::::
         :: total free energy         -23.664798707933 Eh   ::
         ::.................................................::
         :: total energy              -23.712862181426 Eh   ::
         :: zero point energy           0.079393742352 Eh   ::
         :: G(RRHO) w/o ZPVE           -0.031330268859 Eh   ::
         :: G(RRHO) contrib.            0.048063473493 Eh   ::
         :::::::::::::::::::::::::::::::::::::::::::::::::::::

optimized geometry written to: xtbopt.xyz


           -------------------------------------------------
          | TOTAL ENERGY              -23.712862181426 Eh   |
          | TOTAL ENTHALPY            -23.625856431583 Eh   |
          | TOTAL FREE ENERGY         -23.664798707933 Eh   |
          | GRADIENT NORM               0.000367444080 Eh/α |
          | HOMO-LUMO GAP               3.201036658763 eV   |
           -------------------------------------------------

------------------------------------------------------------------------
 * finished run on 2025/10/18 at 06:27:23.813     
------------------------------------------------------------------------
 total:
 * wall-time:     0 d,  0 h,  0 min,  0.536 sec
 *  cpu-time:     0 d,  0 h,  0 min,  0.855 sec
 * ratio c/w:     1.597 speedup
 SCF:
 * wall-time:     0 d,  0 h,  0 min,  0.047 sec
 *  cpu-time:     0 d,  0 h,  0 min,  0.062 sec
 * ratio c/w:     1.324 speedup
 ANC optimizer:
 * wall-time:     0 d,  0 h,  0 min,  0.127 sec
 *  cpu-time:     0 d,  0 h,  0 min,  0.171 sec
 * ratio c/w:     1.349 speedup
 analytical hessian:
 * wall-time:     0 d,  0 h,  0 min,  0.302 sec
 *  cpu-time:     0 d,  0 h,  0 min,  0.556 sec
 * ratio c/w:     1.844 speedup

