12
 energy: -23.685789956835 gnorm: 0.157244437935 xtb: 6.7.1 (edcfbbe)
C           -4.02444900000000       -1.88427200000000        1.97729900000000
C           -3.71373800000000       -2.38953800000000        0.64632200000000
Cl          -7.50175900000000       -3.99084300000000        2.81925400000000
C           -5.20226300000000       -2.37050800000000        2.67406800000000
H           -3.38027200000000       -1.15004800000000        2.44415400000000
C           -4.58036800000000       -3.37640900000000        0.01987700000000
H           -2.83611900000000       -2.02404000000000        0.13289600000000
C           -5.76108200000000       -3.86108800000000        0.72335500000000
H           -4.34935000000000       -3.75062300000000       -0.96710000000000
C           -6.08499300000000       -3.36189300000000        2.06099700000000
H           -6.40321300000000       -4.59377700000000        0.25653300000000
O           -5.42062400000000       -1.90245600000000        3.81400200000000
12
 energy: -23.710347436853 gnorm: 0.051261082369 xtb: 6.7.1 (edcfbbe)
C           -4.05032778410999       -1.92517861945462        1.93788149034049
C           -3.75611529812344       -2.40946974728819        0.66697284734747
Cl          -7.44799453789823       -3.96757127161496        2.78940931541430
C           -5.20115937455460       -2.36865825648772        2.67594154600687
H           -3.40790263274406       -1.19155419347843        2.40599913160843
C           -4.58965530417435       -3.36101013907289        0.06019384702002
H           -2.87644780729146       -2.04669866097632        0.14587680379311
C           -5.72490189239839       -3.82651269325102        0.73750380332797
H           -4.36072906174555       -3.73781864744656       -0.92866775799640
C           -6.03101974985049       -3.34766180930857        2.01448535409046
H           -6.37146157692643       -4.56127340517586        0.27286544412722
O           -5.44051498018301       -1.91208755644484        3.82319517492007
12
 energy: -23.712658411884 gnorm: 0.014598708742 xtb: 6.7.1 (edcfbbe)
C           -4.06436312158884       -1.94352752510046        1.92344611391076
C           -3.77654666775609       -2.41939203473077        0.67637013235952
Cl          -7.41880111622862       -3.94833634150990        2.78517677747630
C           -5.20233964539085       -2.36540462418881        2.68340127985058
H           -3.42323787318906       -1.20904553645375        2.39486484204365
C           -4.59046648558073       -3.35927402652110        0.06441997266617
H           -2.89537355636983       -2.05649238455688        0.15349962572394
C           -5.70751795922013       -3.81151910876317        0.74136487510567
H           -4.36202349100225       -3.73717645556807       -0.92576339796147
C           -5.99929749048798       -3.33721257419149        1.99092015090715
H           -6.36027416454391       -4.54700746245637        0.28370033332146
O           -5.45798842864170       -1.92110692595923        3.83025629459627
12
 energy: -23.712818657656 gnorm: 0.006248126618 xtb: 6.7.1 (edcfbbe)
C           -4.06490873848573       -1.94235736617323        1.92629348100347
C           -3.77492173577053       -2.41923390974906        0.67448079336806
Cl          -7.41945416259891       -3.94593921134308        2.79040432195908
C           -5.20336223560561       -2.36373512741620        2.68779675974847
H           -3.42251298868485       -1.20771971019611        2.39629120692618
C           -4.58840612617440       -3.36151777618863        0.05759636397475
H           -2.89338719331202       -2.05544158706731        0.15275291128966
C           -5.70868233940501       -3.81386450910896        0.73867157821107
H           -4.35926096865509       -3.73848821854534       -0.93183701434623
C           -5.99760534770126       -3.33517668031383        1.99234109228301
H           -6.36321883015043       -4.54914744851060        0.28376093130914
O           -5.46250933345615       -1.92287345538765        3.83310457427334
12
 energy: -23.712853109963 gnorm: 0.002628665699 xtb: 6.7.1 (edcfbbe)
C           -4.06478379358209       -1.94194456883072        1.92687597040759
C           -3.77481534892320       -2.41916581921930        0.67446534342479
Cl          -7.42061543709540       -3.94601924998438        2.79182304353229
C           -5.20350941205773       -2.36277341509087        2.68972704260314
H           -3.41999113956016       -1.20697060573818        2.39427673482979
C           -4.58782075238909       -3.36205915025319        0.05583082921295
H           -2.89293706174873       -2.05462233614620        0.15363605041079
C           -5.70921765965450       -3.81476746483588        0.73775593023302
H           -4.35821444067478       -3.73830355405748       -0.93291081547462
C           -5.99519437976631       -3.33394999661606        1.99133307483100
H           -6.36528495383024       -4.54979124681365        0.28536148337773
O           -5.46584562071778       -1.92512759241409        3.83348231261153
12
 energy: -23.712860995419 gnorm: 0.001080808375 xtb: 6.7.1 (edcfbbe)
C           -4.06450945280561       -1.94165118572557        1.92703964698109
C           -3.77518684086854       -2.41931597034607        0.67468662996907
Cl          -7.42228771617693       -3.94722826312363        2.79186883234322
C           -5.20336448717542       -2.36224920783609        2.69049169236302
H           -3.41813925462992       -1.20654713353072        2.39256175293753
C           -4.58778994732417       -3.36205378299079        0.05579820571961
H           -2.89326159723227       -2.05463511222524        0.15404802954862
C           -5.70915380142222       -3.81482097134264        0.73757064620578
H           -4.35794053415408       -3.73802547221781       -0.93277193937641
C           -5.99396840065287       -3.33341401627934        1.99066486247518
H           -6.36560063256728       -4.54963149652270        0.28607504911382
O           -5.46702733499068       -1.92592238785939        3.83362359171947
12
 energy: -23.712862179369 gnorm: 0.000372435660 xtb: 6.7.1 (edcfbbe)
C           -4.06436390505794       -1.94157445376567        1.92698709487824
C           -3.77531524219651       -2.41936087893548        0.67478641334672
Cl          -7.42369475247641       -3.94846302970333        2.79152501013283
C           -5.20318993168537       -2.36212183350930        2.69046673250567
H           -3.41763802048304       -1.20655019383842        2.39189495020287
C           -4.58789598876024       -3.36188958466974        0.05623933006960
H           -2.89341865943486       -2.05470778399719        0.15412232944145
C           -5.70905216232573       -3.81465752918651        0.73773770509187
H           -4.35798711047452       -3.73789477503288       -0.93248106078598
C           -5.99370785225289       -3.33328982215946        1.99053777560607
H           -6.36536910292262       -4.54940704960794        0.28617136564878
O           -5.46659727192986       -1.92557806559408        3.83366935386188
