12
 energy: -23.712862181407 gnorm: 0.000367551232 xtb: 6.7.1 (edcfbbe)
C           -4.06436734455420       -1.94154980958473        1.92700467085668
C           -3.77532555439586       -2.41933993368211        0.67480381425915
Cl          -7.42370568212342       -3.94841928718912        2.79155781506282
C           -5.20319290808379       -2.36208989393343        2.69048901772470
H           -3.41763598857975       -1.20652812450871        2.39190898581922
C           -4.58791339514881       -3.36186546429620        0.05626121245156
H           -2.89342887980002       -2.05469236506982        0.15413601551832
C           -5.70906956049243       -3.81462634901948        0.73776429127110
H           -4.35800993691819       -3.73787358407823       -0.93245932467702
C           -5.99371835687280       -3.33325496502034        1.99056451526643
H           -6.36539192447935       -4.54937322108594        0.28620152518960
O           -5.46659397204750       -1.92554275158317        3.83369179662466
