 Entering Gaussian System
 *********************************************
 Gaussian 98:
 frequency output generated by the xtb code
 *********************************************
                         Standard orientation:
 --------------------------------------------------------------------
  Center     Atomic     Atomic              Coordinates (Angstroms)
  Number     Number      Type              X           Y           Z
 --------------------------------------------------------------------
    1          6             0       -3.786964   -1.771524    1.771825
    2         16             0       -5.274487   -2.418344    2.563246
    3          1             0       -4.016609   -1.403549    0.764994
    4          1             0       -3.370035   -0.943181    2.356522
    5          1             0       -3.024539   -2.554880    1.688677
 --------------------------------------------------------------------
     1 basis functions        1 primitive gaussians
     1 alpha electrons        1 beta electrons
 
 Harmonic frequencies (cm**-1), IR intensities (km*mol⁻¹),
 Raman scattering activities (A**4/amu), Raman depolarization ratios,
 reduced masses (AMU), force constants (mDyne/A) and normal coordinates:
                      1                      2                      3
                        a                      a                      a 
 Frequencies --   717.5431               928.4151               928.4450
 Red. masses --    17.5496                 3.0347                 3.0347
 Frc consts  --     0.0000                 0.0000                 0.0000
 IR Inten    --     6.1534                 0.1820                 0.1858
 Raman Activ --     0.0000                 0.0000                 0.0000
 Depolar     --     0.0000                 0.0000                 0.0000
 Atom AN      X      Y      Z        X      Y      Z        X      Y      Z
   1   6    -0.65  -0.28   0.34    -0.03  -0.26  -0.26     0.21  -0.23   0.21
   2  16     0.46   0.20  -0.25     0.01   0.09   0.09    -0.07   0.08  -0.07
   3   1    -0.12  -0.06   0.07     0.26   0.28  -0.01    -0.61  -0.10   0.20
   4   1    -0.13  -0.06   0.06    -0.57  -0.14   0.42    -0.09   0.15  -0.14
   5   1    -0.13  -0.05   0.07     0.34   0.26  -0.01     0.38   0.30  -0.38
                      4                      5                      6
                        a                      a                      a 
 Frequencies --  1329.5541              1501.5763              1501.5900
 Red. masses --     2.4272                 1.7242                 1.7241
 Frc consts  --     0.0000                 0.0000                 0.0000
 IR Inten    --    86.7471                 2.8453                 2.8487
 Raman Activ --     0.0000                 0.0000                 0.0000
 Depolar     --     0.0000                 0.0000                 0.0000
 Atom AN      X      Y      Z        X      Y      Z        X      Y      Z
   1   6     0.28   0.12  -0.15     0.11   0.01   0.23    -0.09   0.24   0.03
   2  16     0.05   0.02  -0.03     0.00   0.00   0.01    -0.00   0.01   0.00
   3   1    -0.51  -0.15   0.09     0.33  -0.12  -0.12     0.05  -0.65  -0.25
   4   1    -0.41  -0.07   0.35    -0.44   0.29  -0.10     0.14  -0.37   0.42
   5   1    -0.35  -0.34   0.24    -0.30  -0.23  -0.60     0.13   0.15  -0.28
                      7                      8                      9
                        a                      a                      a 
 Frequencies --  2859.7191              2859.7461              2899.3063
 Red. masses --     1.9536                 1.9536                 1.1577
 Frc consts  --     0.0000                 0.0000                 0.0000
 IR Inten    --   101.8579               101.8514                94.1321
 Raman Activ --     0.0000                 0.0000                 0.0000
 Depolar     --     0.0000                 0.0000                 0.0000
 Atom AN      X      Y      Z        X      Y      Z        X      Y      Z
   1   6     0.01   0.22   0.19     0.17  -0.16   0.18     0.09   0.04  -0.05
   2  16    -0.00  -0.00  -0.00    -0.00   0.00  -0.00     0.01   0.01  -0.01
   3   1    -0.08   0.15  -0.25    -0.17   0.21  -0.66     0.16  -0.18   0.52
   4   1    -0.28  -0.58  -0.43     0.00  -0.11  -0.02    -0.18  -0.43  -0.34
   5   1     0.34  -0.33   0.02    -0.40   0.46   0.07    -0.37   0.44   0.02
