      -----------------------------------------------------------      
     |                   =====================                   |     
     |                           x T B                           |     
     |                   =====================                   |     
     |                         S. Grimme                         |     
     |          Mulliken Center for Theoretical Chemistry        |     
     |                    University of Bonn                     |     
      -----------------------------------------------------------      

   * xtb version 6.7.1 (edcfbbe) compiled by 'albert@albert-system' on 2024-07-22

   xtb is free software: you can redistribute it and/or modify it under
   the terms of the GNU Lesser General Public License as published by
   the Free Software Foundation, either version 3 of the License, or
   (at your option) any later version.
   
   xtb is distributed in the hope that it will be useful,
   but WITHOUT ANY WARRANTY; without even the implied warranty of
   MERCHANTABILITY or FITNESS FOR A PARTICULAR PURPOSE.  See the
   GNU Lesser General Public License for more details.
   
   Cite this work as:
   * C. Bannwarth, E. Caldeweyher, S. Ehlert, A. Hansen, P. Pracht,
     J. Seibert, S. Spicher, S. Grimme, WIREs Comput. Mol. Sci., 2020, 11,
     e01493. DOI: 10.1002/wcms.1493
   
   for GFN2-xTB:
   * C. Bannwarth, S. Ehlert and S. Grimme., J. Chem. Theory Comput., 2019,
     15, 1652-1671. DOI: 10.1021/acs.jctc.8b01176
   for GFN1-xTB:
   * S. Grimme, C. Bannwarth, P. Shushkov, J. Chem. Theory Comput., 2017,
     13, 1989-2009. DOI: 10.1021/acs.jctc.7b00118
   for GFN0-xTB:
   * P. Pracht, E. Caldeweyher, S. Ehlert, S. Grimme, ChemRxiv, 2019, preprint.
     DOI: 10.26434/chemrxiv.8326202.v1
   for GFN-FF:
   * S. Spicher and S. Grimme, Angew. Chem. Int. Ed., 2020, 59, 15665-15673.
     DOI: 10.1002/anie.202004239
   
   for ALPB and GBSA implicit solvation:
   * S. Ehlert, M. Stahn, S. Spicher, S. Grimme, J. Chem. Theory Comput.,
     2021, 17, 4250-4261. DOI: 10.1021/acs.jctc.1c00471
   
   for ddCOSMO and CPCM-X implicit solvation:
   * M. Stahn, S. Ehlert, S. Grimme, J. Phys. Chem. A,
     2023, XX, XXXX-XXXX. DOI: 10.1021/acs.jpca.3c04382
   
   for DFT-D4:
   * E. Caldeweyher, C. Bannwarth and S. Grimme, J. Chem. Phys., 2017,
     147, 034112. DOI: 10.1063/1.4993215
   * E. Caldeweyher, S. Ehlert, A. Hansen, H. Neugebauer, S. Spicher,
     C. Bannwarth and S. Grimme, J. Chem. Phys., 2019, 150, 154122.
     DOI: 10.1063/1.5090222
   * E. Caldeweyher, J.-M. Mewes, S. Ehlert and S. Grimme, Phys. Chem. Chem. Phys.
     2020, 22, 8499-8512. DOI: 10.1039/D0CP00502A
   
   for sTDA-xTB:
   * S. Grimme and C. Bannwarth, J. Chem. Phys., 2016, 145, 054103.
     DOI: 10.1063/1.4959605
   
   in the mass-spec context:
   * V. Asgeirsson, C. Bauer and S. Grimme, Chem. Sci., 2017, 8, 4879.
     DOI: 10.1039/c7sc00601b
   * J. Koopman and S. Grimme, ACS Omega 2019, 4, 12, 15120-15133.
     DOI: 10.1021/acsomega.9b02011
   
   for metadynamics refer to:
   * S. Grimme, J. Chem. Theory Comput., 2019, 155, 2847-2862
     DOI: 10.1021/acs.jctc.9b00143
   
   for SPH calculations refer to:
   * S. Spicher and S. Grimme, J. Chem. Theory Comput., 2021, 17, 1701-1714
     DOI: 10.1021/acs.jctc.0c01306
   
   for ONIOM refer to:
   * C. Plett, A. Katbashev, S. Ehlert, S. Grimme, M. Bursch,
     Phys. Chem. Chem. Phys., 2023, 25, 17860-17868. DOI: 10.1039/D3CP02178E
   
   for DIPRO refer to:
   * J. Kohn, N. Gildemeister, S. Grimme, D. Fazzi, A. Hansen,
     J. Chem. Phys., 2023, just accepted.
   
   for PTB refer to:
   * S. Grimme, M. Mueller, A. Hansen, J. Chem. Phys., 2023, 158, 124111.
     DOI: 10.1063/5.0137838
   
   with help from (in alphabetical order)
   P. Atkinson, C. Bannwarth, F. Bohle, G. Brandenburg, E. Caldeweyher
   M. Checinski, S. Dohm, S. Ehlert, S. Ehrlich, I. Gerasimov, C. Hölzer
   A. Katbashev, J. Kohn, J. Koopman, C. Lavigne, S. Lehtola, F. März, M. Müller,
   F. Musil, H. Neugebauer, J. Pisarek, C. Plett, P. Pracht, F. Pultar,
   J. Seibert, P. Shushkov, S. Spicher, M. Stahn, M. Steiner, T. Strunk,
   J. Stückrath, T. Rose, and J. Unsleber
   
 * started run on 2025/10/18 at 05:34:22.573     
   ID    Z sym.   atoms
    1    6 C      1
    2   16 S      2
    3    1 H      3-5

           -------------------------------------------------
          |                Calculation Setup                |
           -------------------------------------------------

          program call               : xtb xyz.xyz --charge -1 --ohess
          hostname                   : m003
          coordinate file            : xyz.xyz
          omp threads                :                     2


           -------------------------------------------------
          |                 G F N 2 - x T B                 |
           -------------------------------------------------

        Reference                      10.1021/acs.jctc.8b01176
      * Hamiltonian:
        H0-scaling (s, p, d)           1.850000    2.230000    2.230000
        zeta-weighting                 0.500000
      * Dispersion:
        s8                             2.700000
        a1                             0.520000
        a2                             5.000000
        s9                             5.000000
      * Repulsion:
        kExp                           1.500000    1.000000
        rExp                           1.000000
      * Coulomb:
        alpha                          2.000000
        third order                    shell-resolved
        anisotropic                    true
        a3                             3.000000
        a5                             4.000000
        cn-shift                       1.200000
        cn-exp                         4.000000
        max-rad                        5.000000


          ...................................................
          :                      SETUP                      :
          :.................................................:
          :  # basis functions                  17          :
          :  # atomic orbitals                  16          :
          :  # shells                            8          :
          :  # electrons                        14          :
          :  max. iterations                   250          :
          :  Hamiltonian                  GFN2-xTB          :
          :  restarted?                      false          :
          :  GBSA solvation                  false          :
          :  PC potential                    false          :
          :  electronic temp.          300.0000000     K    :
          :  accuracy                    1.0000000          :
          :  -> integral cutoff          0.2500000E+02      :
          :  -> integral neglect         0.1000000E-07      :
          :  -> SCF convergence          0.1000000E-05 Eh   :
          :  -> wf. convergence          0.1000000E-03 e    :
          :  Broyden damping             0.4000000          :
          :  net charge                         -1          :
          :  unpaired electrons                  0          :
          ...................................................

 iter      E             dE          RMSdq      gap      omega  full diag
   1     -7.0379667 -0.703797E+01  0.714E+00    5.95       0.0  T
   2     -7.1500479 -0.112081E+00  0.474E+00    4.48       1.0  T
   3     -7.1570146 -0.696664E-02  0.222E+00    4.44       1.0  T
   4     -7.1575878 -0.573235E-03  0.542E-01    4.15       1.0  T
   5     -7.1575768  0.110165E-04  0.192E-01    4.14       1.0  T
   6     -7.1576189 -0.420734E-04  0.826E-02    4.14       1.0  T
   7     -7.1576248 -0.598875E-05  0.253E-02    4.15       1.8  T
   8     -7.1576255 -0.639981E-06  0.295E-03    4.15      15.2  T
   9     -7.1576255 -0.405641E-08  0.477E-04    4.15      93.8  T
  10     -7.1576255 -0.420188E-10  0.175E-05    4.15    2551.6  T

   *** convergence criteria satisfied after 10 iterations ***

         #    Occupation            Energy/Eh            Energy/eV
      -------------------------------------------------------------
         1        2.0000           -0.4334221             -11.7940
         2        2.0000           -0.3965353             -10.7903
         3        2.0000           -0.2939435              -7.9986
         4        2.0000           -0.2939434              -7.9986
         5        2.0000           -0.2289031              -6.2288
         6        2.0000           -0.0908103              -2.4711
         7        2.0000           -0.0908103              -2.4711 (HOMO)
         8                          0.0615383               1.6745 (LUMO)
         9                          0.2379709               6.4755
        10                          0.2379711               6.4755
        11                          0.2632010               7.1621
        12                          0.2632010               7.1621
       ...                                ...                  ...
        16                          0.5265535              14.3283
      -------------------------------------------------------------
                  HL-Gap            0.1523486 Eh            4.1456 eV
             Fermi-level           -0.0146360 Eh           -0.3983 eV

 SCC (total)                   0 d,  0 h,  0 min,  0.042 sec
 SCC setup                      ...        0 min,  0.000 sec (  0.331%)
 Dispersion                     ...        0 min,  0.000 sec (  0.120%)
 classical contributions        ...        0 min,  0.000 sec (  0.056%)
 integral evaluation            ...        0 min,  0.039 sec ( 94.153%)
 iterations                     ...        0 min,  0.002 sec (  4.048%)
 molecular gradient             ...        0 min,  0.000 sec (  0.999%)
 printout                       ...        0 min,  0.000 sec (  0.199%)

         :::::::::::::::::::::::::::::::::::::::::::::::::::::
         ::                     SUMMARY                     ::
         :::::::::::::::::::::::::::::::::::::::::::::::::::::
         :: total energy              -7.102268738673 Eh    ::
         :: gradient norm              0.016596532064 Eh/a0 ::
         :: HOMO-LUMO gap              4.145616171445 eV    ::
         ::.................................................::
         :: SCC energy                -7.157625452469 Eh    ::
         :: -> isotropic ES            0.144346191952 Eh    ::
         :: -> anisotropic ES          0.003069526867 Eh    ::
         :: -> anisotropic XC          0.007070322344 Eh    ::
         :: -> dispersion             -0.001961186255 Eh    ::
         :: repulsion energy           0.055356713796 Eh    ::
         :: add. restraining           0.000000000000 Eh    ::
         :: total charge              -1.000000000000 e     ::
         :::::::::::::::::::::::::::::::::::::::::::::::::::::

      ----------------------------------------------------------- 
     |                   =====================                   |
     |                        A N C O P T                        |
     |                   =====================                   |
     |               Approximate Normal Coordinate               |
     |                Rational Function Optimizer                |
      ----------------------------------------------------------- 
      ----------------------------------------------------------- 
     |                   =====================                   |
     |                        A N C O P T                        |
     |                   =====================                   |
     |               Approximate Normal Coordinate               |
     |                Rational Function Optimizer                |
      ----------------------------------------------------------- 

          ...................................................
          :                      SETUP                      :
          :.................................................:
          :   optimization level            normal          :
          :   max. optcycles                   200          :
          :   ANC micro-cycles                  20          :
          :   degrees of freedom                 9          :
          :.................................................:
          :   RF solver                   davidson          :
          :   write xtbopt.log                true          :
          :   linear?                        false          :
          :   energy convergence         0.5000000E-05 Eh   :
          :   grad. convergence          0.1000000E-02 Eh/α :
          :   maxmium RF displ.          1.0000000          :
          :   Hlow (freq-cutoff)         0.1000000E-01      :
          :   Hmax (freq-cutoff)         5.0000000          :
          :   S6 in model hess.         20.0000000          :
          ...................................................

generating ANC from exact Hessian ...
Using Lindh-Hessian (1995)
 Shifting diagonal of input Hessian by   0.000000000000000E+000
 Lowest  eigenvalues of input Hessian
    0.000000    0.000000    0.000000    0.000000    0.000000    0.000000
    0.058764    0.058764    0.105814    0.105815    0.121825    0.390525
    1.026218    1.026221    1.055513
 Highest eigenvalues
    0.105815    0.121825    0.390525    1.026218    1.026221    1.055513
 

........................................................................
.............................. CYCLE    1 ..............................
........................................................................

 iter      E             dE          RMSdq      gap      omega  full diag
   1     -7.1576255 -0.715763E+01  0.361E-06    4.15       0.0  T
   2     -7.1576255 -0.355271E-14  0.225E-06    4.15   19878.8  T
   3     -7.1576255  0.266454E-14  0.766E-07    4.15   58390.5  T
     SCC iter.                  ...        0 min,  0.000 sec
     gradient                   ...        0 min,  0.000 sec
 * total energy  :    -7.1022687 Eh     change       -0.3428369E-12 Eh
   gradient norm :     0.0165965 Eh/α   predicted     0.0000000E+00 (-100.00%)
   displ. norm   :     0.1268575 α      lambda       -0.2037871E-02
   maximum displ.:     0.1262892 α      in ANC's #5, #6, #9, ...

........................................................................
.............................. CYCLE    2 ..............................
........................................................................

 iter      E             dE          RMSdq      gap      omega  full diag
   1     -7.1584475 -0.715845E+01  0.470E-01    4.32       0.0  T
   2     -7.1584819 -0.343999E-04  0.286E-01    4.30       1.0  T
   3     -7.1584797  0.219809E-05  0.692E-02    4.29       1.0  T
   4     -7.1584862 -0.652706E-05  0.163E-02    4.29       2.7  T
   5     -7.1584863 -0.574384E-07  0.109E-03    4.29      41.1  T
   6     -7.1584863 -0.149652E-09  0.215E-04    4.29     208.1  T
   7     -7.1584863 -0.619949E-12  0.720E-05    4.29     621.3  T
     SCC iter.                  ...        0 min,  0.001 sec
     gradient                   ...        0 min,  0.000 sec
 * total energy  :    -7.1032478 Eh     change       -0.9790982E-03 Eh
   gradient norm :     0.0028898 Eh/α   predicted    -0.1035334E-02 (   5.74%)
   displ. norm   :     0.0091933 α      lambda       -0.2441320E-04
   maximum displ.:     0.0067646 α      in ANC's #6, #5, #9, ...

........................................................................
.............................. CYCLE    3 ..............................
........................................................................

 iter      E             dE          RMSdq      gap      omega  full diag
   1     -7.1593022 -0.715930E+01  0.237E-02    4.30       0.0  T
   2     -7.1593022 -0.673682E-07  0.141E-02    4.30       3.2  T
   3     -7.1593023 -0.129946E-07  0.251E-03    4.30      17.8  T
   4     -7.1593023 -0.231167E-08  0.103E-03    4.30      43.2  T
   5     -7.1593023 -0.560430E-09  0.302E-04    4.30     147.9  T
   6     -7.1593023 -0.960032E-11  0.468E-05    4.30     955.5  T
     SCC iter.                  ...        0 min,  0.000 sec
     gradient                   ...        0 min,  0.000 sec
 * total energy  :    -7.1032622 Eh     change       -0.1437607E-04 Eh
   gradient norm :     0.0006491 Eh/α   predicted    -0.1220787E-04 ( -15.08%)
   displ. norm   :     0.0030102 α      lambda       -0.1254125E-05
   maximum displ.:     0.0029170 α      in ANC's #6, #5, #9, ...

........................................................................
.............................. CYCLE    4 ..............................
........................................................................

 iter      E             dE          RMSdq      gap      omega  full diag
   1     -7.1595941 -0.715959E+01  0.107E-02    4.31       0.0  T
   2     -7.1595941 -0.560000E-07  0.682E-03    4.31       6.6  T
   3     -7.1595941 -0.448119E-08  0.265E-03    4.31      16.8  T
   4     -7.1595941 -0.219925E-08  0.434E-04    4.31     102.9  T
   5     -7.1595941 -0.435527E-10  0.137E-04    4.31     325.9  T
     SCC iter.                  ...        0 min,  0.000 sec
     gradient                   ...        0 min,  0.000 sec
 * total energy  :    -7.1032628 Eh     change       -0.5492641E-06 Eh
   gradient norm :     0.0003535 Eh/α   predicted    -0.6253738E-06 (  13.86%)
   displ. norm   :     0.0009147 α      lambda       -0.1967761E-06
   maximum displ.:     0.0008897 α      in ANC's #6, #9, #5, ...

   *** GEOMETRY OPTIMIZATION CONVERGED AFTER 4 ITERATIONS ***

------------------------------------------------------------------------
 total energy gain   :        -0.0009940 Eh       -0.6238 kcal/mol
 total RMSD          :         0.0543009 a0        0.0287 Å
 total power (kW/mol):        -0.6524521 (step) -458.2739 (real)
------------------------------------------------------------------------

 ANCopt (total)                0 d,  0 h,  0 min,  0.006 sec
 optimizer setup                ...        0 min,  0.000 sec (  3.763%)
 model hessian                  ...        0 min,  0.000 sec (  2.259%)
 ANC generation                 ...        0 min,  0.000 sec (  1.332%)
 coordinate transformation      ...        0 min,  0.000 sec (  0.480%)
 single point calculation       ...        0 min,  0.005 sec ( 82.397%)
 optimization log               ...        0 min,  0.000 sec (  2.614%)
 hessian update                 ...        0 min,  0.000 sec (  0.401%)
 rational function              ...        0 min,  0.000 sec (  3.224%)

================
 final structure:
================
5
 xtb: 6.7.1 (edcfbbe)
C           -3.78696072880459       -1.77154693234131        1.77180872623828
S           -5.27448259757913       -2.41837543724448        2.56322332321305
H           -4.01660372378007       -1.40357091707617        0.76497724122446
H           -3.37003749684147       -0.94320291687092        2.35650789654488
H           -3.02453145299475       -2.55489879646712        1.68866181277933
 
 Bond Distances (Angstroems)
 ---------------------------
C1-S2=1.8048         C1-H3=1.0963         C1-H4=1.0963         C1-H5=1.0963         S2-C1=1.8048         H3-C1=1.0963         
H4-C1=1.0963         H5-C1=1.0963         
 C  H  Rav=1.0963 sigma=0.0000  Rmin=1.0963  Rmax=1.0963     3
 S  C  Rav=1.8048 sigma=0.0000  Rmin=1.8048  Rmax=1.8048     1
 
 selected bond angles (degree)
 --------------------
H3-C1-S2=110.51                H4-C1-S2=110.51                H4-C1-H3=108.41                H5-C1-S2=110.51                
H5-C1-H3=108.41                H5-C1-H4=108.41                
 
 selected dihedral angles (degree)
 ---------------------------------

           -------------------------------------------------
          |                Final Singlepoint                |
           -------------------------------------------------

          ...................................................
          :                      SETUP                      :
          :.................................................:
          :  # basis functions                  17          :
          :  # atomic orbitals                  16          :
          :  # shells                            8          :
          :  # electrons                        14          :
          :  max. iterations                   250          :
          :  Hamiltonian                  GFN2-xTB          :
          :  restarted?                      false          :
          :  GBSA solvation                  false          :
          :  PC potential                    false          :
          :  electronic temp.          300.0000000     K    :
          :  accuracy                    1.0000000          :
          :  -> integral cutoff          0.2500000E+02      :
          :  -> integral neglect         0.1000000E-07      :
          :  -> SCF convergence          0.1000000E-05 Eh   :
          :  -> wf. convergence          0.1000000E-03 e    :
          :  Broyden damping             0.4000000          :
          :  net charge                         -1          :
          :  unpaired electrons                  0          :
          ...................................................

 iter      E             dE          RMSdq      gap      omega  full diag
   1     -7.1595941 -0.715959E+01  0.242E-05    4.31       0.0  T
   2     -7.1595941 -0.941469E-13  0.162E-05    4.31    2767.5  T
   3     -7.1595941 -0.470735E-13  0.768E-06    4.31    5822.5  T

   *** convergence criteria satisfied after 3 iterations ***

         #    Occupation            Energy/Eh            Energy/eV
      -------------------------------------------------------------
         1        2.0000           -0.4341736             -11.8145
         2        2.0000           -0.3950980             -10.7512
         3        2.0000           -0.2961523              -8.0587
         4        2.0000           -0.2961523              -8.0587
         5        2.0000           -0.2276510              -6.1947
         6        2.0000           -0.0891452              -2.4258
         7        2.0000           -0.0891452              -2.4258 (HOMO)
         8                          0.0690762               1.8797 (LUMO)
         9                          0.2405747               6.5464
        10                          0.2405747               6.5464
        11                          0.2636209               7.1735
        12                          0.2636209               7.1735
       ...                                ...                  ...
        16                          0.5536035              15.0643
      -------------------------------------------------------------
                  HL-Gap            0.1582214 Eh            4.3054 eV
             Fermi-level           -0.0100345 Eh           -0.2731 eV

 SCC (total)                   0 d,  0 h,  0 min,  0.001 sec
 SCC setup                      ...        0 min,  0.000 sec (  6.684%)
 Dispersion                     ...        0 min,  0.000 sec (  1.272%)
 classical contributions        ...        0 min,  0.000 sec (  0.671%)
 integral evaluation            ...        0 min,  0.000 sec ( 28.908%)
 iterations                     ...        0 min,  0.000 sec ( 26.295%)
 molecular gradient             ...        0 min,  0.000 sec ( 28.330%)
 printout                       ...        0 min,  0.000 sec (  5.319%)

         :::::::::::::::::::::::::::::::::::::::::::::::::::::
         ::                     SUMMARY                     ::
         :::::::::::::::::::::::::::::::::::::::::::::::::::::
         :: total energy              -7.103262762216 Eh    ::
         :: gradient norm              0.000353421074 Eh/a0 ::
         :: HOMO-LUMO gap              4.305424075906 eV    ::
         ::.................................................::
         :: SCC energy                -7.159594102581 Eh    ::
         :: -> isotropic ES            0.145757315842 Eh    ::
         :: -> anisotropic ES          0.001857912487 Eh    ::
         :: -> anisotropic XC          0.007402917848 Eh    ::
         :: -> dispersion             -0.001954068274 Eh    ::
         :: repulsion energy           0.056331340365 Eh    ::
         :: add. restraining           0.000000000000 Eh    ::
         :: total charge              -1.000000000000 e     ::
         :::::::::::::::::::::::::::::::::::::::::::::::::::::

           ------------------------------------------------- 
          |                Numerical Hessian                |
           ------------------------------------------------- 
step length          :   0.00500
SCC accuracy         :   0.30000
Hessian scale factor :   1.00000
frozen atoms in %    :   0.00000    0
RMS gradient         :   0.00035
estimated CPU  time      0.00 min
estimated wall time      0.00 min

writing file <hessian>.

 projected vibrational frequencies (cm⁻¹)
eigval :       -0.00    -0.00    -0.00     0.00     0.00     0.00
eigval :      717.54   928.42   928.44  1329.55  1501.58  1501.59
eigval :     2859.72  2859.75  2899.31
           -------------------------------------------------
          |                Property Printout                |
           -------------------------------------------------

    * Orbital Energies and Occupations

         #    Occupation            Energy/Eh            Energy/eV
      -------------------------------------------------------------
         1        2.0000           -0.4341737             -11.8145
         2        2.0000           -0.3950980             -10.7512
         3        2.0000           -0.2961523              -8.0587
         4        2.0000           -0.2961523              -8.0587
         5        2.0000           -0.2276510              -6.1947
         6        2.0000           -0.0891452              -2.4258
         7        2.0000           -0.0891452              -2.4258 (HOMO)
         8                          0.0690762               1.8797 (LUMO)
         9                          0.2405746               6.5464
        10                          0.2405746               6.5464
        11                          0.2636209               7.1735
        12                          0.2636209               7.1735
        13                          0.3355369               9.1304
        14                          0.4092986              11.1376
        15                          0.4092986              11.1376
        16                          0.5536035              15.0643
      -------------------------------------------------------------
                  HL-Gap            0.1582214 Eh            4.3054 eV
             Fermi-level           -0.0100345 Eh           -0.2731 eV

     #   Z          covCN         q      C6AA      α(0)
     1   6 C        3.741     0.058    19.683     6.330
     2  16 S        0.971    -0.920   183.682    22.923
     3   1 H        0.924    -0.046     3.996     3.126
     4   1 H        0.924    -0.046     3.996     3.126
     5   1 H        0.924    -0.046     3.996     3.126

 Mol. C6AA /au·bohr⁶  :        573.045210
 Mol. C8AA /au·bohr⁸  :      19403.862845
 Mol. α(0) /au        :         38.631509


Wiberg/Mayer (AO) data.
largest (>0.10) Wiberg bond orders for each atom

 ---------------------------------------------------------------------------
     #   Z sym  total        # sym  WBO       # sym  WBO       # sym  WBO
 ---------------------------------------------------------------------------
     1   6 C    3.986 --     2 S    1.024     4 H    0.987     3 H    0.987
                             5 H    0.987
     2  16 S    1.056 --     1 C    1.024
     3   1 H    0.998 --     1 C    0.987
     4   1 H    0.998 --     1 C    0.987
     5   1 H    0.998 --     1 C    0.987
 ---------------------------------------------------------------------------

Topologies differ in total number of bonds
Writing topology from bond orders to xtbtopo.mol

molecular dipole:
                 x           y           z       tot (Debye)
 q only:        9.658       4.436      -4.679
   full:       10.229       4.684      -4.983      31.275
molecular quadrupole (traceless):
                xx          xy          yy          xz          yz          zz
 q only:      -73.169     -64.835      38.313      68.495      31.440      34.856
  q+dip:      -81.875     -72.401      43.165      77.113      35.294      38.710
   full:      -81.264     -71.879      42.803      76.474      35.017      38.461

           -------------------------------------------------
          |                Geometry Summary                 |
           -------------------------------------------------

      molecular mass/u    :       47.0993456
   center of mass at/Å    :       -4.7793314      -2.2030352       2.2998039
  moments of inertia/u·Å² :        0.3188073E+01   0.3820691E+02   0.3820691E+02
rotational constants/cm⁻¹ :        0.5287718E+01   0.4412194E+00   0.4412194E+00

 * 3 selected distances

     #   Z          #   Z                                           value/Å
     1   6 C        3   1 H                                       1.0962902 (min)
     1   6 C        4   1 H                                       1.0962902
     1   6 C        5   1 H                                       1.0962902 (max)

 * 1 distinct bonds (by element types)

   Z      Z             #   av. dist./Å        max./Å        min./Å
   1 H    6 C           3     1.0962902     1.0962902     1.0962902

           -------------------------------------------------
          |               Frequency Printout                |
           -------------------------------------------------
 projected vibrational frequencies (cm⁻¹)
eigval :       -0.00    -0.00    -0.00     0.00     0.00     0.00
eigval :      717.54   928.42   928.44  1329.55  1501.58  1501.59
eigval :     2859.72  2859.75  2899.31
 reduced masses (amu)
   1:  2.67   2: 22.24   3: 27.19   4: 16.23   5: 23.05   6: 15.35   7: 17.55   8:  3.03
   9:  3.03  10:  2.43  11:  1.72  12:  1.72  13:  1.95  14:  1.95  15:  1.16
 IR intensities (km·mol⁻¹)
   1:  0.51   2: 19.10   3: 25.89   4: 14.27   5: 24.61   6:  7.96   7:  6.15   8:  0.18
   9:  0.19  10: 86.75  11:  2.85  12:  2.85  13:101.86  14:101.85  15: 94.13
 Raman intensities (Ä⁴*amu⁻¹)
   1:  0.00   2:  0.00   3:  0.00   4:  0.00   5:  0.00   6:  0.00   7:  0.00   8:  0.00
   9:  0.00  10:  0.00  11:  0.00  12:  0.00  13:  0.00  14:  0.00  15:  0.00
 output can be read by thermo (or use thermo option).
 writing <g98.out> molden fake output.
 recommended (thermochemical) frequency scaling factor: 1.0
           -------------------------------------------------
          |             Thermodynamic Functions             |
           -------------------------------------------------

Refinement of some symmetry elements was terminated before convergence was reached.
Some symmetry elements may remain unidentified.
Molecule has the following symmetry elements: (C3) 3*(sigma) 
It seems to be the C3v point group
c3v symmetry found (for desy threshold:  0.10E+00) used in thermo

          ...................................................
          :                      SETUP                      :
          :.................................................:
          :  # frequencies                           9      :
          :  # imaginary freq.                       0      :
          :  linear?                             false      :
          :  only rotor calc.                    false      :
          :  symmetry                              c3v      :
          :  rotational number                       3      :
          :  scaling factor                  1.0000000      :
          :  rotor cutoff                   50.0000000 cm⁻¹ :
          :  imag. cutoff                  -20.0000000 cm⁻¹ :
          :.................................................:

    mode    ω/cm⁻¹     T·S(HO)/kcal·mol⁻¹    T·S(FR)/kcal·mol⁻¹   T·S(vib)
   ------------------------------------------------------------------------
   ------------------------------------------------------------------------

   temp. (K)  partition function   enthalpy   heat capacity  entropy
                                   cal/mol     cal/K/mol   cal/K/mol   J/K/mol
 298.15  VIB   1.06                  139.611      2.005      0.583
         ROT  0.174E+04              888.752      2.981     17.806
         INT  0.184E+04             1028.363      4.986     18.389
         TR   0.313E+27             1481.254      4.968     37.457
         TOT                        2509.6169     9.9541    55.8455   233.6575

       T/K    H(0)-H(T)+PV         H(T)/Eh          T*S/Eh         G(T)/Eh
   ------------------------------------------------------------------------
    298.15    0.399933E-02    0.393699E-01    0.265340E-01    0.128359E-01
   ------------------------------------------------------------------------

         :::::::::::::::::::::::::::::::::::::::::::::::::::::
         ::                  THERMODYNAMIC                  ::
         :::::::::::::::::::::::::::::::::::::::::::::::::::::
         :: total free energy          -7.090426835501 Eh   ::
         ::.................................................::
         :: total energy               -7.103262762216 Eh   ::
         :: zero point energy           0.035370591603 Eh   ::
         :: G(RRHO) w/o ZPVE           -0.022534664888 Eh   ::
         :: G(RRHO) contrib.            0.012835926716 Eh   ::
         :::::::::::::::::::::::::::::::::::::::::::::::::::::

optimized geometry written to: xtbopt.xyz


           -------------------------------------------------
          | TOTAL ENERGY               -7.103262762216 Eh   |
          | TOTAL ENTHALPY             -7.063892841443 Eh   |
          | TOTAL FREE ENERGY          -7.090426835501 Eh   |
          | GRADIENT NORM               0.000353435394 Eh/α |
          | HOMO-LUMO GAP               4.305424201284 eV   |
           -------------------------------------------------

------------------------------------------------------------------------
 * finished run on 2025/10/18 at 05:34:22.757     
------------------------------------------------------------------------
 total:
 * wall-time:     0 d,  0 h,  0 min,  0.183 sec
 *  cpu-time:     0 d,  0 h,  0 min,  0.226 sec
 * ratio c/w:     1.235 speedup
 SCF:
 * wall-time:     0 d,  0 h,  0 min,  0.042 sec
 *  cpu-time:     0 d,  0 h,  0 min,  0.047 sec
 * ratio c/w:     1.122 speedup
 ANC optimizer:
 * wall-time:     0 d,  0 h,  0 min,  0.029 sec
 *  cpu-time:     0 d,  0 h,  0 min,  0.037 sec
 * ratio c/w:     1.252 speedup
 analytical hessian:
 * wall-time:     0 d,  0 h,  0 min,  0.029 sec
 *  cpu-time:     0 d,  0 h,  0 min,  0.056 sec
 * ratio c/w:     1.899 speedup

