5
 energy: -7.102268738673 gnorm: 0.016596496051 xtb: 6.7.1 (edcfbbe)
C           -3.80325600000000       -1.77863300000000        1.78047900000000
S           -5.30859300000000       -2.43320800000000        2.58137100000000
H           -3.99123600000000       -1.39987700000000        0.76918600000000
H           -3.35480900000000       -0.94672800000000        2.33575800000000
H           -3.01472200000000       -2.53314900000000        1.67838500000000
5
 energy: -7.103247836875 gnorm: 0.002889768892 xtb: 6.7.1 (edcfbbe)
C           -3.78557245816087       -1.77094344133513        1.77107017905473
S           -5.27533141068221       -2.41874450898862        2.56367493587980
H           -4.01860468520399       -1.40288112863413        0.76227746832776
H           -3.36988269865741       -0.94097831395759        2.35911456500528
H           -3.02322474729552       -2.55804760708452        1.68904185173244
5
 energy: -7.103262212949 gnorm: 0.000649051330 xtb: 6.7.1 (edcfbbe)
C           -3.78662510129586       -1.77140102340298        1.77163020304340
S           -5.27515930996810       -2.41866976036114        2.56358337563272
H           -4.01688331885227       -1.40335557522744        0.76431295557803
H           -3.36985149897700       -0.94265604526802        2.35698971506033
H           -3.02409677090678       -2.55551259574041        1.68866275068551
5
 energy: -7.103262762213 gnorm: 0.000353546707 xtb: 6.7.1 (edcfbbe)
C           -3.78696072880459       -1.77154693234131        1.77180872623828
S           -5.27448259757913       -2.41837543724448        2.56322332321305
H           -4.01660372378007       -1.40357091707617        0.76497724122446
H           -3.37003749684147       -0.94320291687092        2.35650789654488
H           -3.02453145299475       -2.55489879646712        1.68866181277933
