      -----------------------------------------------------------      
     |                   =====================                   |     
     |                           x T B                           |     
     |                   =====================                   |     
     |                         S. Grimme                         |     
     |          Mulliken Center for Theoretical Chemistry        |     
     |                    University of Bonn                     |     
      -----------------------------------------------------------      

   * xtb version 6.7.1 (edcfbbe) compiled by 'albert@albert-system' on 2024-07-22

   xtb is free software: you can redistribute it and/or modify it under
   the terms of the GNU Lesser General Public License as published by
   the Free Software Foundation, either version 3 of the License, or
   (at your option) any later version.
   
   xtb is distributed in the hope that it will be useful,
   but WITHOUT ANY WARRANTY; without even the implied warranty of
   MERCHANTABILITY or FITNESS FOR A PARTICULAR PURPOSE.  See the
   GNU Lesser General Public License for more details.
   
   Cite this work as:
   * C. Bannwarth, E. Caldeweyher, S. Ehlert, A. Hansen, P. Pracht,
     J. Seibert, S. Spicher, S. Grimme, WIREs Comput. Mol. Sci., 2020, 11,
     e01493. DOI: 10.1002/wcms.1493
   
   for GFN2-xTB:
   * C. Bannwarth, S. Ehlert and S. Grimme., J. Chem. Theory Comput., 2019,
     15, 1652-1671. DOI: 10.1021/acs.jctc.8b01176
   for GFN1-xTB:
   * S. Grimme, C. Bannwarth, P. Shushkov, J. Chem. Theory Comput., 2017,
     13, 1989-2009. DOI: 10.1021/acs.jctc.7b00118
   for GFN0-xTB:
   * P. Pracht, E. Caldeweyher, S. Ehlert, S. Grimme, ChemRxiv, 2019, preprint.
     DOI: 10.26434/chemrxiv.8326202.v1
   for GFN-FF:
   * S. Spicher and S. Grimme, Angew. Chem. Int. Ed., 2020, 59, 15665-15673.
     DOI: 10.1002/anie.202004239
   
   for ALPB and GBSA implicit solvation:
   * S. Ehlert, M. Stahn, S. Spicher, S. Grimme, J. Chem. Theory Comput.,
     2021, 17, 4250-4261. DOI: 10.1021/acs.jctc.1c00471
   
   for ddCOSMO and CPCM-X implicit solvation:
   * M. Stahn, S. Ehlert, S. Grimme, J. Phys. Chem. A,
     2023, XX, XXXX-XXXX. DOI: 10.1021/acs.jpca.3c04382
   
   for DFT-D4:
   * E. Caldeweyher, C. Bannwarth and S. Grimme, J. Chem. Phys., 2017,
     147, 034112. DOI: 10.1063/1.4993215
   * E. Caldeweyher, S. Ehlert, A. Hansen, H. Neugebauer, S. Spicher,
     C. Bannwarth and S. Grimme, J. Chem. Phys., 2019, 150, 154122.
     DOI: 10.1063/1.5090222
   * E. Caldeweyher, J.-M. Mewes, S. Ehlert and S. Grimme, Phys. Chem. Chem. Phys.
     2020, 22, 8499-8512. DOI: 10.1039/D0CP00502A
   
   for sTDA-xTB:
   * S. Grimme and C. Bannwarth, J. Chem. Phys., 2016, 145, 054103.
     DOI: 10.1063/1.4959605
   
   in the mass-spec context:
   * V. Asgeirsson, C. Bauer and S. Grimme, Chem. Sci., 2017, 8, 4879.
     DOI: 10.1039/c7sc00601b
   * J. Koopman and S. Grimme, ACS Omega 2019, 4, 12, 15120-15133.
     DOI: 10.1021/acsomega.9b02011
   
   for metadynamics refer to:
   * S. Grimme, J. Chem. Theory Comput., 2019, 155, 2847-2862
     DOI: 10.1021/acs.jctc.9b00143
   
   for SPH calculations refer to:
   * S. Spicher and S. Grimme, J. Chem. Theory Comput., 2021, 17, 1701-1714
     DOI: 10.1021/acs.jctc.0c01306
   
   for ONIOM refer to:
   * C. Plett, A. Katbashev, S. Ehlert, S. Grimme, M. Bursch,
     Phys. Chem. Chem. Phys., 2023, 25, 17860-17868. DOI: 10.1039/D3CP02178E
   
   for DIPRO refer to:
   * J. Kohn, N. Gildemeister, S. Grimme, D. Fazzi, A. Hansen,
     J. Chem. Phys., 2023, just accepted.
   
   for PTB refer to:
   * S. Grimme, M. Mueller, A. Hansen, J. Chem. Phys., 2023, 158, 124111.
     DOI: 10.1063/5.0137838
   
   with help from (in alphabetical order)
   P. Atkinson, C. Bannwarth, F. Bohle, G. Brandenburg, E. Caldeweyher
   M. Checinski, S. Dohm, S. Ehlert, S. Ehrlich, I. Gerasimov, C. Hölzer
   A. Katbashev, J. Kohn, J. Koopman, C. Lavigne, S. Lehtola, F. März, M. Müller,
   F. Musil, H. Neugebauer, J. Pisarek, C. Plett, P. Pracht, F. Pultar,
   J. Seibert, P. Shushkov, S. Spicher, M. Stahn, M. Steiner, T. Strunk,
   J. Stückrath, T. Rose, and J. Unsleber
   
 * started run on 2025/10/17 at 21:01:27.389     
   ID    Z sym.   atoms
    1    7 N      1
    2    6 C      2

           -------------------------------------------------
          |                Calculation Setup                |
           -------------------------------------------------

          program call               : xtb tb_lite_results_shiftn0p3_gp19_b0_rot0_complex.xyz --alpb water --charge -1 --ohess
          hostname                   : m003
          coordinate file            : tb_lite_results_shiftn0p3_gp19_b0_rot0_complex.xyz
          omp threads                :                     2


           -------------------------------------------------
          |                 G F N 2 - x T B                 |
           -------------------------------------------------

        Reference                      10.1021/acs.jctc.8b01176
      * Hamiltonian:
        H0-scaling (s, p, d)           1.850000    2.230000    2.230000
        zeta-weighting                 0.500000
      * Dispersion:
        s8                             2.700000
        a1                             0.520000
        a2                             5.000000
        s9                             5.000000
      * Repulsion:
        kExp                           1.500000    1.000000
        rExp                           1.000000
      * Coulomb:
        alpha                          2.000000
        third order                    shell-resolved
        anisotropic                    true
        a3                             3.000000
        a5                             4.000000
        cn-shift                       1.200000
        cn-exp                         4.000000
        max-rad                        5.000000

      * Solvation model:               ALPB
        Solvent                        water
        Parameter file                 internal GFN2-xTB/ALPB
        Dielectric constant                8.0200E+01
        Reference state                gsolv [1 M gas/solution]
        Free energy shift                  1.0808E-03 Eh       6.7819E-01 kcal/mol
        Temperature                        2.9815E+02 K
        Density                            1.0000E+00 kg/L
        Solvent mass                       1.8000E+01 g/mol
        Interaction kernel             P16
        Born radius scaling (c1)           1.4744E+00
        Born radii integrator          GBOBC
        Born offset                        0.0000E+00 a0       0.0000E+00 AA
        H-bond correction              true
        Ion screening                  false
        Surface tension                    1.0000E-05 Eh       1.5569E+01 dyn/cm
        Grid points                               230 per atom

          ...................................................
          :                      SETUP                      :
          :.................................................:
          :  # basis functions                   8          :
          :  # atomic orbitals                   8          :
          :  # shells                            4          :
          :  # electrons                        10          :
          :  max. iterations                   250          :
          :  Hamiltonian                  GFN2-xTB          :
          :  restarted?                      false          :
          :  GBSA solvation                   true          :
          :  PC potential                    false          :
          :  electronic temp.          300.0000000     K    :
          :  accuracy                    1.0000000          :
          :  -> integral cutoff          0.2500000E+02      :
          :  -> integral neglect         0.1000000E-07      :
          :  -> SCF convergence          0.1000000E-05 Eh   :
          :  -> wf. convergence          0.1000000E-03 e    :
          :  Broyden damping             0.4000000          :
          :  net charge                         -1          :
          :  unpaired electrons                  0          :
          ...................................................

 iter      E             dE          RMSdq      gap      omega  full diag
   1     -5.1463827 -0.514638E+01  0.140E+01    3.42       0.0  T
   2     -5.0896638  0.567189E-01  0.888E+00    3.23       1.0  T
   3     -4.9228662  0.166798E+00  0.126E+01    3.55       1.0  T
   4     -5.1754144 -0.252548E+00  0.217E+00    3.09       1.0  T
   5     -5.1796246 -0.421020E-02  0.824E-01    3.05       1.0  T
   6     -5.1759121  0.371243E-02  0.133E+00    3.15       1.0  T
   7     -5.1781666 -0.225443E-02  0.853E-01    3.08       1.0  T
   8     -5.1796659 -0.149929E-02  0.619E-02    3.11       1.1  T
   9     -5.1796725 -0.664057E-05  0.160E-02    3.11       4.4  T
  10     -5.1796727 -0.195320E-06  0.129E-02    3.11       5.5  T
  11     -5.1796731 -0.354269E-06  0.440E-04    3.11     160.5  T
  12     -5.1796731 -0.377928E-09  0.818E-05    3.11     864.6  T

   *** convergence criteria satisfied after 12 iterations ***

         #    Occupation            Energy/Eh            Energy/eV
      -------------------------------------------------------------
         1        2.0000           -0.5132959             -13.9675
         2        2.0000           -0.4149231             -11.2906
         3        2.0000           -0.3117694              -8.4837
         4        2.0000           -0.3117694              -8.4837
         5        2.0000           -0.2950579              -8.0289 (HOMO)
         6                         -0.1808720              -4.9218 (LUMO)
         7                         -0.1808720              -4.9218
         8                          0.1951501               5.3103
      -------------------------------------------------------------
                  HL-Gap            0.1141859 Eh            3.1072 eV
             Fermi-level           -0.2379650 Eh           -6.4754 eV

 SCC (total)                   0 d,  0 h,  0 min,  0.024 sec
 SCC setup                      ...        0 min,  0.000 sec (  0.810%)
 Dispersion                     ...        0 min,  0.000 sec (  0.118%)
 classical contributions        ...        0 min,  0.000 sec (  0.092%)
 integral evaluation            ...        0 min,  0.000 sec (  0.689%)
 iterations                     ...        0 min,  0.023 sec ( 97.121%)
 molecular gradient             ...        0 min,  0.000 sec (  0.806%)
 printout                       ...        0 min,  0.000 sec (  0.256%)

         :::::::::::::::::::::::::::::::::::::::::::::::::::::
         ::                     SUMMARY                     ::
         :::::::::::::::::::::::::::::::::::::::::::::::::::::
         :: total energy              -5.168625187206 Eh    ::
         :: total w/o Gsasa/hb        -5.161439549630 Eh    ::
         :: gradient norm              0.310923320157 Eh/a0 ::
         :: HOMO-LUMO gap              3.107156196453 eV    ::
         ::.................................................::
         :: SCC energy                -5.179673059851 Eh    ::
         :: -> isotropic ES            0.170902530857 Eh    ::
         :: -> anisotropic ES          0.009125064790 Eh    ::
         :: -> anisotropic XC          0.010993808682 Eh    ::
         :: -> dispersion             -0.000475255310 Eh    ::
         :: -> Gsolv                  -0.123912553842 Eh    ::
         ::    -> Gelec               -0.116726916265 Eh    ::
         ::    -> Gsasa               -0.006279414754 Eh    ::
         ::    -> Ghb                 -0.001986982521 Eh    ::
         ::    -> Gshift               0.001080759698 Eh    ::
         :: repulsion energy           0.011047872644 Eh    ::
         :: add. restraining           0.000000000000 Eh    ::
         :: total charge              -1.000000000000 e     ::
         :::::::::::::::::::::::::::::::::::::::::::::::::::::

      ----------------------------------------------------------- 
     |                   =====================                   |
     |                        A N C O P T                        |
     |                   =====================                   |
     |               Approximate Normal Coordinate               |
     |                Rational Function Optimizer                |
      ----------------------------------------------------------- 
      ----------------------------------------------------------- 
     |                   =====================                   |
     |                        A N C O P T                        |
     |                   =====================                   |
     |               Approximate Normal Coordinate               |
     |                Rational Function Optimizer                |
      ----------------------------------------------------------- 

          ...................................................
          :                      SETUP                      :
          :.................................................:
          :   optimization level            normal          :
          :   max. optcycles                   200          :
          :   ANC micro-cycles                  20          :
          :   degrees of freedom                 1          :
          :.................................................:
          :   RF solver                   davidson          :
          :   write xtbopt.log                true          :
          :   linear (good luck)              true          :
          :   energy convergence         0.5000000E-05 Eh   :
          :   grad. convergence          0.1000000E-02 Eh/α :
          :   maxmium RF displ.          1.0000000          :
          :   Hlow (freq-cutoff)         0.1000000E-01      :
          :   Hmax (freq-cutoff)         5.0000000          :
          :   S6 in model hess.         20.0000000          :
          ...................................................

generating ANC from exact Hessian ...
Using Lindh-Hessian (1995)
 Shifting diagonal of input Hessian by   0.000000000000000E+000
 Lowest  eigenvalues of input Hessian
    0.000000    0.000000    0.000000    0.000000    0.000000    0.971806
 Highest eigenvalues
    0.000000    0.000000    0.000000    0.000000    0.000000    0.971806
 

........................................................................
.............................. CYCLE    1 ..............................
........................................................................

 iter      E             dE          RMSdq      gap      omega  full diag
   1     -5.1796731 -0.517967E+01  0.725E-06    3.11       0.0  T
   2     -5.1796731  0.658140E-12  0.189E-05    3.11    3740.1  T
   3     -5.1796731 -0.754063E-12  0.124E-06    3.11   57076.6  T
     SCC iter.                  ...        0 min,  0.000 sec
     gradient                   ...        0 min,  0.000 sec
 * total energy  :    -5.1686252 Eh     change       -0.1094236E-10 Eh
   gradient norm :     0.3109238 Eh/α   predicted     0.0000000E+00 (-100.00%)
   displ. norm   :     0.2925597 α      lambda       -0.9096378E-01
   maximum displ.:     0.2925597 α      in ANC's #1, #1, #1, ...

........................................................................
.............................. CYCLE    2 ..............................
........................................................................

 iter      E             dE          RMSdq      gap      omega  full diag
   1     -5.2861222 -0.528612E+01  0.238E+00    4.23       0.0  T
   2     -5.2833805  0.274169E-02  0.249E+00    4.34       1.0  T
   3     -5.2912978 -0.791724E-02  0.939E-01    4.26       1.0  T
   4     -5.2913110 -0.131992E-04  0.356E-01    4.23       1.0  T
   5     -5.2913791 -0.681021E-04  0.137E-01    4.23       1.0  T
   6     -5.2914131 -0.340693E-04  0.215E-02    4.22       3.3  T
   7     -5.2914138 -0.707596E-06  0.287E-03    4.22      24.6  T
   8     -5.2914138 -0.957356E-08  0.512E-05    4.22    1380.9  T
   9     -5.2914138 -0.353673E-11  0.477E-06    4.22   14817.9  T
     SCC iter.                  ...        0 min,  0.000 sec
     gradient                   ...        0 min,  0.000 sec
 * total energy  :    -5.2369186 Eh     change       -0.6829337E-01 Eh
   gradient norm :     0.0894870 Eh/α   predicted    -0.4937474E-01 ( -27.70%)
   displ. norm   :     0.1166213 α      lambda       -0.1043609E-01
   maximum displ.:     0.1166213 α      in ANC's #1, #1, #1, ...

........................................................................
.............................. CYCLE    3 ..............................
........................................................................

 iter      E             dE          RMSdq      gap      omega  full diag
   1     -5.3334012 -0.533340E+01  0.112E+00    4.81       0.0  T
   2     -5.3336609 -0.259631E-03  0.837E-01    4.84       1.0  T
   3     -5.3341799 -0.519079E-03  0.446E-01    4.82       1.0  T
   4     -5.3342194 -0.394912E-04  0.120E-01    4.81       1.0  T
   5     -5.3342228 -0.339891E-05  0.250E-02    4.80       2.8  T
   6     -5.3342239 -0.102481E-05  0.127E-03    4.80      55.7  T
   7     -5.3342239 -0.145943E-09  0.462E-04    4.80     153.2  T
   8     -5.3342239 -0.306825E-09  0.330E-05    4.80    2141.1  T
     SCC iter.                  ...        0 min,  0.000 sec
     gradient                   ...        0 min,  0.000 sec
 * total energy  :    -5.2338290 Eh     change        0.3089589E-02 Eh
   gradient norm :     0.1678219 Eh/α   predicted    -0.5289015E-02 (-271.19%)
   displ. norm   :     0.0756276 α      lambda       -0.1269197E-01
   maximum displ.:     0.0756276 α      in ANC's #1, #1, #1, ...

........................................................................
.............................. CYCLE    4 ..............................
........................................................................

 iter      E             dE          RMSdq      gap      omega  full diag
   1     -5.3063619 -0.530636E+01  0.762E-01    4.41       0.0  T
   2     -5.3063468  0.151169E-04  0.650E-01    4.39       1.0  T
   3     -5.3067679 -0.421067E-03  0.314E-01    4.41       1.0  T
   4     -5.3067945 -0.266312E-04  0.721E-02    4.41       1.0  T
   5     -5.3067947 -0.164458E-06  0.187E-02    4.41       3.8  T
   6     -5.3067952 -0.527048E-06  0.125E-03    4.41      56.4  T
   7     -5.3067952 -0.423956E-09  0.147E-04    4.41     480.7  T
   8     -5.3067952 -0.279607E-10  0.256E-05    4.41    2765.2  T
     SCC iter.                  ...        0 min,  0.000 sec
     gradient                   ...        0 min,  0.000 sec
 * total energy  :    -5.2391335 Eh     change       -0.5304536E-02 Eh
   gradient norm :     0.0159378 Eh/α   predicted    -0.6382280E-02 (  20.32%)
   displ. norm   :     0.0065590 α      lambda       -0.1045373E-03
   maximum displ.:     0.0065590 α      in ANC's #1, #1, #1, ...

........................................................................
.............................. CYCLE    5 ..............................
........................................................................

 iter      E             dE          RMSdq      gap      omega  full diag
   1     -5.3092256 -0.530923E+01  0.639E-02    4.45       0.0  T
   2     -5.3092255  0.106932E-06  0.550E-02    4.45       1.3  T
   3     -5.3092285 -0.305075E-05  0.260E-02    4.45       2.7  T
   4     -5.3092287 -0.152548E-06  0.660E-03    4.45      10.7  T
   5     -5.3092287 -0.113843E-07  0.208E-04    4.45     340.1  T
   6     -5.3092287 -0.115019E-10  0.969E-05    4.45     730.0  T
     SCC iter.                  ...        0 min,  0.000 sec
     gradient                   ...        0 min,  0.000 sec
 * total energy  :    -5.2391947 Eh     change       -0.6116712E-04 Eh
   gradient norm :     0.0026373 Eh/α   predicted    -0.5227037E-04 ( -14.54%)
   displ. norm   :     0.0013006 α      lambda       -0.3432806E-05
   maximum displ.:     0.0013006 α      in ANC's #1, #1, #1, ...

........................................................................
.............................. CYCLE    6 ..............................
........................................................................

 iter      E             dE          RMSdq      gap      omega  full diag
   1     -5.3097100 -0.530971E+01  0.127E-02    4.45       0.0  T
   2     -5.3097100  0.277299E-08  0.109E-02    4.45       6.5  T
   3     -5.3097102 -0.118396E-06  0.517E-03    4.45      13.7  T
   4     -5.3097102 -0.613571E-08  0.130E-03    4.45      54.2  T
   5     -5.3097102 -0.426054E-09  0.327E-05    4.45    2159.6  T
   6     -5.3097102 -0.112799E-12  0.145E-05    4.45    4879.7  T
     SCC iter.                  ...        0 min,  0.000 sec
     gradient                   ...        0 min,  0.000 sec
 * total energy  :    -5.2391964 Eh     change       -0.1682506E-05 Eh
   gradient norm :     0.0000536 Eh/α   predicted    -0.1714989E-05 (   1.93%)
   displ. norm   :     0.0000388 α      lambda       -0.1538615E-08
   maximum displ.:     0.0000388 α      in ANC's #1, #1, #1, ...

   *** GEOMETRY OPTIMIZATION CONVERGED AFTER 6 ITERATIONS ***

------------------------------------------------------------------------
 total energy gain   :        -0.0705712 Eh      -44.2841 kcal/mol
 total RMSD          :         0.2414154 a0        0.1278 Å
 total power (kW/mol):       -30.8807628 (step)********** (real)
------------------------------------------------------------------------

 ANCopt (total)                0 d,  0 h,  0 min,  0.005 sec
 optimizer setup                ...        0 min,  0.000 sec (  3.816%)
 model hessian                  ...        0 min,  0.000 sec (  0.489%)
 ANC generation                 ...        0 min,  0.000 sec (  0.891%)
 coordinate transformation      ...        0 min,  0.000 sec (  0.726%)
 single point calculation       ...        0 min,  0.004 sec ( 82.735%)
 optimization log               ...        0 min,  0.000 sec (  3.027%)
 hessian update                 ...        0 min,  0.000 sec (  0.731%)
 rational function              ...        0 min,  0.000 sec (  2.441%)

================
 final structure:
================
2
 xtb: 6.7.1 (edcfbbe)
N           -5.00286455293398       -1.58288612606279       -2.59001365612134
C           -5.23759849747443       -2.75617589536490       -2.64499136995190
 
 Bond Distances (Angstroems)
 ---------------------------
N1-C2=1.1978         C2-N1=1.1978         
 N  C  Rav=1.1978 sigma=0.0000  Rmin=1.1978  Rmax=1.1978     1
 
 selected bond angles (degree)
 --------------------

 
 selected dihedral angles (degree)
 ---------------------------------

           -------------------------------------------------
          |                Final Singlepoint                |
           -------------------------------------------------

          ...................................................
          :                      SETUP                      :
          :.................................................:
          :  # basis functions                   8          :
          :  # atomic orbitals                   8          :
          :  # shells                            4          :
          :  # electrons                        10          :
          :  max. iterations                   250          :
          :  Hamiltonian                  GFN2-xTB          :
          :  restarted?                      false          :
          :  GBSA solvation                   true          :
          :  PC potential                    false          :
          :  electronic temp.          300.0000000     K    :
          :  accuracy                    1.0000000          :
          :  -> integral cutoff          0.2500000E+02      :
          :  -> integral neglect         0.1000000E-07      :
          :  -> SCF convergence          0.1000000E-05 Eh   :
          :  -> wf. convergence          0.1000000E-03 e    :
          :  Broyden damping             0.4000000          :
          :  net charge                         -1          :
          :  unpaired electrons                  0          :
          ...................................................

 iter      E             dE          RMSdq      gap      omega  full diag
   1     -5.3097102 -0.530971E+01  0.661E-07    4.45       0.0  T
   2     -5.3097102  0.888178E-15  0.365E-07    4.45  100000.0  T
   3     -5.3097102 -0.355271E-14  0.321E-07    4.45  100000.0  T

   *** convergence criteria satisfied after 3 iterations ***

         #    Occupation            Energy/Eh            Energy/eV
      -------------------------------------------------------------
         1        2.0000           -0.5170012             -14.0683
         2        2.0000           -0.3811065             -10.3704
         3        2.0000           -0.3260505              -8.8723
         4        2.0000           -0.3260505              -8.8723
         5        2.0000           -0.2471962              -6.7266 (HOMO)
         6                         -0.0835679              -2.2740 (LUMO)
         7                         -0.0835679              -2.2740
         8                          0.8048919              21.9022
      -------------------------------------------------------------
                  HL-Gap            0.1636283 Eh            4.4526 eV
             Fermi-level           -0.1653820 Eh           -4.5003 eV

 SCC (total)                   0 d,  0 h,  0 min,  0.001 sec
 SCC setup                      ...        0 min,  0.000 sec ( 12.815%)
 Dispersion                     ...        0 min,  0.000 sec (  2.245%)
 classical contributions        ...        0 min,  0.000 sec (  0.968%)
 integral evaluation            ...        0 min,  0.000 sec ( 17.693%)
 iterations                     ...        0 min,  0.000 sec ( 31.204%)
 molecular gradient             ...        0 min,  0.000 sec ( 23.190%)
 printout                       ...        0 min,  0.000 sec (  6.659%)

         :::::::::::::::::::::::::::::::::::::::::::::::::::::
         ::                     SUMMARY                     ::
         :::::::::::::::::::::::::::::::::::::::::::::::::::::
         :: total energy              -5.239196355341 Eh    ::
         :: total w/o Gsasa/hb        -5.232453708151 Eh    ::
         :: gradient norm              0.000067583820 Eh/a0 ::
         :: HOMO-LUMO gap              4.452553891707 eV    ::
         ::.................................................::
         :: SCC energy                -5.309710160688 Eh    ::
         :: -> isotropic ES            0.195035517239 Eh    ::
         :: -> anisotropic ES          0.005310958060 Eh    ::
         :: -> anisotropic XC          0.010572006529 Eh    ::
         :: -> dispersion             -0.000475527740 Eh    ::
         :: -> Gsolv                  -0.125912681223 Eh    ::
         ::    -> Gelec               -0.119170034033 Eh    ::
         ::    -> Gsasa               -0.005933782878 Eh    ::
         ::    -> Ghb                 -0.001889624010 Eh    ::
         ::    -> Gshift               0.001080759698 Eh    ::
         :: repulsion energy           0.070513805347 Eh    ::
         :: add. restraining           0.000000000000 Eh    ::
         :: total charge              -1.000000000000 e     ::
         :::::::::::::::::::::::::::::::::::::::::::::::::::::

           ------------------------------------------------- 
          |                Numerical Hessian                |
           ------------------------------------------------- 
step length          :   0.00500
SCC accuracy         :   0.30000
Hessian scale factor :   1.00000
frozen atoms in %    :   0.00000    0
RMS gradient         :   0.00007

writing file <hessian>.

 vibrational frequencies (cm⁻¹)
eigval :        0.00     0.00     0.00     0.00     0.00  2059.80
           -------------------------------------------------
          |                Property Printout                |
           -------------------------------------------------

    * Orbital Energies and Occupations

         #    Occupation            Energy/Eh            Energy/eV
      -------------------------------------------------------------
         1        2.0000           -0.5170012             -14.0683
         2        2.0000           -0.3811065             -10.3704
         3        2.0000           -0.3260505              -8.8723
         4        2.0000           -0.3260505              -8.8723
         5        2.0000           -0.2471962              -6.7266 (HOMO)
         6                         -0.0835679              -2.2740 (LUMO)
         7                         -0.0835679              -2.2740
         8                          0.8048919              21.9022
      -------------------------------------------------------------
                  HL-Gap            0.1636283 Eh            4.4526 eV
             Fermi-level           -0.1653820 Eh           -4.5003 eV

     #   Z          covCN         q      C6AA      α(0)
     1   7 N        0.910    -0.651    38.388     8.961
     2   6 C        0.910    -0.349    48.015    11.596

 Mol. C6AA /au·bohr⁶  :        171.531105
 Mol. C8AA /au·bohr⁸  :       4385.832366
 Mol. α(0) /au        :         20.557425


Wiberg/Mayer (AO) data.
largest (>0.10) Wiberg bond orders for each atom

 ---------------------------------------------------------------------------
     #   Z sym  total        # sym  WBO       # sym  WBO       # sym  WBO
 ---------------------------------------------------------------------------
     1   7 N    2.831 --     2 C    2.831
     2   6 C    2.831 --     1 N    2.831
 ---------------------------------------------------------------------------

Topologies differ in total number of bonds
Writing topology from bond orders to xtbtopo.mol

molecular dipole:
                 x           y           z       tot (Debye)
 q only:        9.609       3.764       4.931
   full:        9.627       3.853       4.935      29.188
molecular quadrupole (traceless):
                xx          xy          yy          xz          yz          zz
 q only:      -72.573     -54.585      43.059     -71.080     -27.916      29.514
  q+dip:      -72.325     -56.126      42.080     -71.280     -28.636      30.245
   full:      -71.657     -56.561      40.663     -71.300     -28.738      30.995

           -------------------------------------------------
          |                Geometry Summary                 |
           -------------------------------------------------

      molecular mass/u    :       26.0174391
   center of mass at/Å    :       -5.1112483      -2.1245037      -2.6153724
  moments of inertia/u·Å² :        0.1746435E-16   0.9277088E+01   0.9277088E+01
rotational constants/cm⁻¹ :        0.9652596E+18   0.1817125E+01   0.1817125E+01

 * 1 selected distances

     #   Z          #   Z                                           value/Å
     0   0          0   0                                         0.0000000 (max)

 * 0 distinct bonds (by element types)

   Z      Z             #   av. dist./Å        max./Å        min./Å

           -------------------------------------------------
          |               Frequency Printout                |
           -------------------------------------------------
 vibrational frequencies (cm⁻¹)
eigval :        0.00     0.00     0.00     0.00     0.00  2059.80
 reduced masses (amu)
   1: 13.09   2: 13.09   3: 13.09   4: 12.93   5: 12.93   6: 12.93
 IR intensities (km·mol⁻¹)
   1: 37.47   2: 37.47   3: 37.47   4:  0.80   5:  0.80   6: 29.66
 Raman intensities (Ä⁴*amu⁻¹)
   1:  0.00   2:  0.00   3:  0.00   4:  0.00   5:  0.00   6:  0.00
 output can be read by thermo (or use thermo option).
 writing <g98.out> molden fake output.
 recommended (thermochemical) frequency scaling factor: 1.0
           -------------------------------------------------
          |             Thermodynamic Functions             |
           -------------------------------------------------

Molecule has the following symmetry elements: (Cinf) (sigma) 
It seems to be the Cinfv point group
cin symmetry found (for desy threshold:  0.10E+00) used in thermo

          ...................................................
          :                      SETUP                      :
          :.................................................:
          :  # frequencies                           1      :
          :  # imaginary freq.                       0      :
          :  linear?                              true      :
          :  only rotor calc.                    false      :
          :  symmetry                              cin      :
          :  rotational number                       1      :
          :  scaling factor                  1.0000000      :
          :  rotor cutoff                   50.0000000 cm⁻¹ :
          :  imag. cutoff                  -20.0000000 cm⁻¹ :
          :.................................................:

    mode    ω/cm⁻¹     T·S(HO)/kcal·mol⁻¹    T·S(FR)/kcal·mol⁻¹   T·S(vib)
   ------------------------------------------------------------------------
   ------------------------------------------------------------------------

   temp. (K)  partition function   enthalpy   heat capacity  entropy
                                   cal/mol     cal/K/mol   cal/K/mol   J/K/mol
 298.15  VIB   1.00                    0.284      0.009      0.001
         ROT   114.                  592.502      1.987     11.400
         INT   114.                  592.786      1.997     11.401
         TR   0.128E+27             1481.254      4.968     35.688
         TOT                        2074.0394     6.9649    47.0895   197.0226

       T/K    H(0)-H(T)+PV         H(T)/Eh          T*S/Eh         G(T)/Eh
   ------------------------------------------------------------------------
    298.15    0.330519E-02    0.799776E-02    0.223738E-01   -0.143760E-01
   ------------------------------------------------------------------------

         :::::::::::::::::::::::::::::::::::::::::::::::::::::
         ::                  THERMODYNAMIC                  ::
         :::::::::::::::::::::::::::::::::::::::::::::::::::::
         :: total free energy          -5.253572344535 Eh   ::
         ::.................................................::
         :: total energy               -5.239196354957 Eh   ::
         :: zero point energy           0.004692570566 Eh   ::
         :: G(RRHO) w/o ZPVE           -0.019068560143 Eh   ::
         :: G(RRHO) contrib.           -0.014375989578 Eh   ::
         :::::::::::::::::::::::::::::::::::::::::::::::::::::

optimized geometry written to: xtbopt.xyz


           -------------------------------------------------
          | TOTAL ENERGY               -5.239196354957 Eh   |
          | TOTAL ENTHALPY             -5.231198592170 Eh   |
          | TOTAL FREE ENERGY          -5.253572344535 Eh   |
          | GRADIENT NORM               0.000067581110 Eh/α |
          | HOMO-LUMO GAP               4.452553880055 eV   |
           -------------------------------------------------

------------------------------------------------------------------------
 * finished run on 2025/10/17 at 21:01:27.664     
------------------------------------------------------------------------
 total:
 * wall-time:     0 d,  0 h,  0 min,  0.275 sec
 *  cpu-time:     0 d,  0 h,  0 min,  0.292 sec
 * ratio c/w:     1.062 speedup
 SCF:
 * wall-time:     0 d,  0 h,  0 min,  0.024 sec
 *  cpu-time:     0 d,  0 h,  0 min,  0.028 sec
 * ratio c/w:     1.174 speedup
 ANC optimizer:
 * wall-time:     0 d,  0 h,  0 min,  0.058 sec
 *  cpu-time:     0 d,  0 h,  0 min,  0.064 sec
 * ratio c/w:     1.109 speedup
 analytical hessian:
 * wall-time:     0 d,  0 h,  0 min,  0.088 sec
 *  cpu-time:     0 d,  0 h,  0 min,  0.093 sec
 * ratio c/w:     1.053 speedup

