2
 energy: -5.168625187217 gnorm: 0.310923795288 xtb: 6.7.1 (edcfbbe)
N           -4.97782902438577       -1.45774900721872       -2.58415001280884
C           -5.26263402602264       -2.88131301420897       -2.65085501326440
2
 energy: -5.236918558857 gnorm: 0.089487038782 xtb: 6.7.1 (edcfbbe)
N           -4.99928218516342       -1.56498008582943       -2.58917461943871
C           -5.24118086524499       -2.77408193559827       -2.64583040663452
2
 energy: -5.233828970027 gnorm: 0.167821859442 xtb: 6.7.1 (edcfbbe)
N           -5.00783392631102       -1.60772494924423       -2.59117754738544
C           -5.23262912409739       -2.73133707218347       -2.64382747868779
2
 energy: -5.239133505711 gnorm: 0.015937842953 xtb: 6.7.1 (edcfbbe)
N           -5.00228821594815       -1.58000537402469       -2.58987867057445
C           -5.23817483446026       -2.75905664740301       -2.64512635549879
2
 energy: -5.239194672835 gnorm: 0.002637647770 xtb: 6.7.1 (edcfbbe)
N           -5.00276918379119       -1.58240943471861       -2.58999131943948
C           -5.23769386661722       -2.75665258670908       -2.64501370663376
2
 energy: -5.239196355341 gnorm: 0.000067639352 xtb: 6.7.1 (edcfbbe)
N           -5.00286455293398       -1.58288612606279       -2.59001365612134
C           -5.23759849747443       -2.75617589536490       -2.64499136995190
