2
 energy: -5.239196355341 gnorm: 0.000067583820 xtb: 6.7.1 (edcfbbe)
N           -5.00288188167452       -1.58286445148040       -2.58999343015246
C           -5.23762216144296       -2.75615308765379       -2.64496827682961
