 Entering Gaussian System
 *********************************************
 Gaussian 98:
 frequency output generated by the xtb code
 *********************************************
                         Standard orientation:
 --------------------------------------------------------------------
  Center     Atomic     Atomic              Coordinates (Angstroms)
  Number     Number      Type              X           Y           Z
 --------------------------------------------------------------------
    1          6             0       -3.055692    1.726324   -0.000003
    2          6             0       -3.031251    0.351888    0.000011
    3          1             0        0.276536    2.312696   -0.000043
    4          8             0       -1.878802    3.786558   -0.000036
    5          6             0       -1.830552   -0.342716    0.000006
    6          1             0       -3.968018   -0.193898    0.000026
    7          6             0       -0.646407    0.379745   -0.000014
    8          1             0       -1.817946   -1.423093    0.000017
    9          6             0       -0.654071    1.754382   -0.000027
   10          1             0        0.302842   -0.144036   -0.000018
   11          6             0       -1.863769    2.501090   -0.000022
   12          1             0       -3.999072    2.262767    0.000001
 --------------------------------------------------------------------
     1 basis functions        1 primitive gaussians
     1 alpha electrons        1 beta electrons
 
 Harmonic frequencies (cm**-1), IR intensities (km*mol⁻¹),
 Raman scattering activities (A**4/amu), Raman depolarization ratios,
 reduced masses (AMU), force constants (mDyne/A) and normal coordinates:
                      1                      2                      3
                        a                      a                      a 
 Frequencies --   200.7187               377.9772               430.9909
 Red. masses --    11.6299                 9.3404                12.7093
 Frc consts  --     0.0000                 0.0000                 0.0000
 IR Inten    --     7.5464                 0.0000                15.8496
 Raman Activ --     0.0000                 0.0000                 0.0000
 Depolar     --     0.0000                 0.0000                 0.0000
 Atom AN      X      Y      Z        X      Y      Z        X      Y      Z
   1   6    -0.00  -0.00  -0.43    -0.00  -0.00  -0.44     0.36   0.05  -0.00
   2   6    -0.00  -0.00  -0.01     0.00   0.00   0.43    -0.09   0.10  -0.00
   3   1    -0.00  -0.00  -0.18     0.00   0.00   0.23     0.16  -0.10  -0.00
   4   8     0.00   0.00   0.54    -0.00   0.00   0.00    -0.67  -0.01   0.00
   5   6     0.00   0.00   0.42    -0.00  -0.00  -0.00    -0.15  -0.00   0.00
   6   1     0.00   0.00   0.01     0.00   0.00   0.26    -0.06   0.09  -0.00
   7   6    -0.00  -0.00  -0.01    -0.00  -0.00  -0.43    -0.09  -0.10   0.00
   8   1     0.00   0.00   0.27     0.00  -0.00  -0.00    -0.06  -0.00   0.00
   9   6    -0.00  -0.00  -0.43     0.00   0.00   0.44     0.36  -0.04  -0.00
  10   1     0.00   0.00   0.01    -0.00  -0.00  -0.26    -0.06  -0.10   0.00
  11   6    -0.00  -0.00  -0.14     0.00   0.00  -0.00     0.35   0.00  -0.00
  12   1    -0.00  -0.00  -0.18    -0.00  -0.00  -0.23     0.16   0.11  -0.00
                      4                      5                      6
                        a                      a                      a 
 Frequencies --   477.1951               502.0905               590.0191
 Red. masses --     8.8938                12.4907                11.4548
 Frc consts  --     0.0000                 0.0000                 0.0000
 IR Inten    --     0.0380                10.7983                 1.6226
 Raman Activ --     0.0000                 0.0000                 0.0000
 Depolar     --     0.0000                 0.0000                 0.0000
 Atom AN      X      Y      Z        X      Y      Z        X      Y      Z
   1   6    -0.00  -0.00  -0.11    -0.27   0.07   0.00     0.20  -0.34   0.00
   2   6     0.00   0.00   0.31    -0.23   0.13   0.00    -0.33  -0.39   0.00
   3   1     0.00   0.00   0.22     0.01   0.12  -0.00     0.07   0.06  -0.00
   4   8     0.00   0.00   0.22     0.01  -0.51   0.00     0.24   0.00  -0.00
   5   6    -0.00  -0.00  -0.43    -0.01   0.49  -0.00    -0.15  -0.00   0.00
   6   1     0.00   0.00   0.31    -0.02  -0.04   0.00    -0.11  -0.07   0.00
   7   6     0.00   0.00   0.31     0.23   0.14  -0.00    -0.34   0.38  -0.00
   8   1    -0.00  -0.00  -0.09    -0.00   0.14  -0.00     0.13   0.00  -0.00
   9   6    -0.00  -0.00  -0.11     0.27   0.07  -0.00     0.20   0.34  -0.00
  10   1     0.00   0.00   0.31     0.02  -0.04   0.00    -0.11   0.07   0.00
  11   6    -0.00  -0.00  -0.50     0.00  -0.39   0.00     0.12   0.00  -0.00
  12   1     0.00   0.00   0.22    -0.02   0.12  -0.00     0.07  -0.06  -0.00
                      7                      8                      9
                        a                      a                      a 
 Frequencies --   656.6903               747.4722               820.1858
 Red. masses --     9.6246                 4.9905                 4.6573
 Frc consts  --     0.0000                 0.0000                 0.0000
 IR Inten    --     3.3375                45.0507                 5.1264
 Raman Activ --     0.0000                 0.0000                 0.0000
 Depolar     --     0.0000                 0.0000                 0.0000
 Atom AN      X      Y      Z        X      Y      Z        X      Y      Z
   1   6    -0.00  -0.00  -0.26     0.00   0.00   0.16     0.00   0.00   0.26
   2   6     0.00   0.00   0.37     0.00   0.00   0.12     0.00   0.00   0.04
   3   1    -0.00  -0.00  -0.29    -0.00  -0.00  -0.24    -0.00  -0.00  -0.41
   4   8    -0.00  -0.00  -0.10     0.00   0.00   0.14     0.00   0.00   0.07
   5   6    -0.00  -0.00  -0.33     0.00   0.00   0.21    -0.00  -0.00  -0.35
   6   1    -0.00  -0.00  -0.07    -0.00  -0.00  -0.27    -0.00  -0.00  -0.04
   7   6     0.00   0.00   0.37     0.00   0.00   0.12     0.00   0.00   0.04
   8   1    -0.00  -0.00  -0.21    -0.00  -0.00  -0.62     0.00   0.00   0.58
   9   6    -0.00  -0.00  -0.26     0.00   0.00   0.16     0.00   0.00   0.26
  10   1    -0.00  -0.00  -0.07    -0.00  -0.00  -0.27    -0.00  -0.00  -0.04
  11   6     0.00   0.00   0.50    -0.00  -0.00  -0.46    -0.00  -0.00  -0.24
  12   1    -0.00  -0.00  -0.29    -0.00  -0.00  -0.24    -0.00  -0.00  -0.41
                     10                     11                     12
                        a                      a                      a 
 Frequencies --   843.2598               847.5728               907.1510
 Red. masses --    11.9809                 3.2885                 2.2795
 Frc consts  --     0.0000                 0.0000                 0.0000
 IR Inten    --    20.2239                 0.0000                 0.0468
 Raman Activ --     0.0000                 0.0000                 0.0000
 Depolar     --     0.0000                 0.0000                 0.0000
 Atom AN      X      Y      Z        X      Y      Z        X      Y      Z
   1   6     0.16   0.17  -0.00    -0.00  -0.00  -0.25    -0.00  -0.00  -0.09
   2   6     0.39   0.29  -0.00    -0.00  -0.00  -0.20     0.00   0.00   0.21
   3   1    -0.05   0.05  -0.00    -0.00  -0.00  -0.52     0.00   0.00   0.30
   4   8     0.01  -0.48   0.00    -0.00   0.00   0.00     0.00   0.00   0.00
   5   6     0.00  -0.27   0.00    -0.00   0.00  -0.00    -0.00  -0.00  -0.10
   6   1     0.05   0.18  -0.00     0.00   0.00   0.35    -0.00  -0.00  -0.56
   7   6    -0.40   0.28   0.00     0.00   0.00   0.20     0.00   0.00   0.20
   8   1     0.00  -0.07   0.00    -0.00   0.00   0.00     0.00   0.00   0.31
   9   6    -0.16   0.16   0.00     0.00   0.00   0.25    -0.00  -0.00  -0.08
  10   1    -0.05   0.18  -0.00    -0.00  -0.00  -0.35    -0.00  -0.00  -0.53
  11   6     0.00  -0.18   0.00     0.00   0.00  -0.00    -0.00  -0.00  -0.10
  12   1     0.05   0.05   0.00     0.00   0.00   0.52     0.00   0.00   0.32
                     13                     14                     15
                        a                      a                      a 
 Frequencies --   907.6179               962.1162              1075.7977
 Red. masses --     3.7192                10.5826                 6.8059
 Frc consts  --     0.0000                 0.0000                 0.0000
 IR Inten    --     0.0000                 7.1993                 1.8059
 Raman Activ --     0.0000                 0.0000                 0.0000
 Depolar     --     0.0000                 0.0000                 0.0000
 Atom AN      X      Y      Z        X      Y      Z        X      Y      Z
   1   6     0.00   0.00   0.20     0.56  -0.14  -0.00    -0.04   0.17  -0.00
   2   6    -0.00  -0.00  -0.28    -0.15  -0.02   0.00    -0.34  -0.05   0.00
   3   1     0.00   0.00   0.36    -0.21   0.06   0.00    -0.15   0.32  -0.00
   4   8    -0.00   0.00   0.00     0.00  -0.11   0.00    -0.00   0.00  -0.00
   5   6    -0.00   0.00  -0.00    -0.00   0.37  -0.00     0.01  -0.48   0.00
   6   1     0.00   0.00   0.49    -0.08   0.08  -0.00    -0.23   0.21   0.00
   7   6     0.00   0.00   0.29     0.15  -0.02  -0.00     0.34  -0.05  -0.00
   8   1     0.00   0.00   0.01    -0.00   0.10  -0.00     0.00  -0.14   0.00
   9   6    -0.00  -0.00  -0.21    -0.56  -0.15   0.00     0.03   0.17  -0.00
  10   1    -0.00  -0.00  -0.52     0.08   0.08  -0.00     0.23   0.22  -0.00
  11   6     0.00  -0.00  -0.00     0.00  -0.02  -0.00     0.00  -0.03   0.00
  12   1    -0.00  -0.00  -0.34     0.21   0.07  -0.00     0.14   0.33  -0.00
                     16                     17                     18
                        a                      a                      a 
 Frequencies --  1103.9408              1173.8545              1189.5478
 Red. masses --     4.5171                 1.5957                 1.8605
 Frc consts  --     0.0000                 0.0000                 0.0000
 IR Inten    --     1.1486                 0.2071                42.2352
 Raman Activ --     0.0000                 0.0000                 0.0000
 Depolar     --     0.0000                 0.0000                 0.0000
 Atom AN      X      Y      Z        X      Y      Z        X      Y      Z
   1   6    -0.20   0.17   0.00    -0.03  -0.11   0.00    -0.03  -0.07   0.00
   2   6    -0.15  -0.08   0.00     0.03  -0.02  -0.00    -0.13   0.08   0.00
   3   1     0.16  -0.40   0.00     0.06  -0.08   0.00     0.24  -0.41   0.00
   4   8    -0.03  -0.00   0.00     0.01   0.00  -0.00     0.00  -0.09   0.00
   5   6     0.24   0.00  -0.00    -0.08  -0.00   0.00    -0.00   0.02  -0.00
   6   1     0.09  -0.26   0.00     0.22  -0.37   0.00    -0.26   0.41  -0.00
   7   6    -0.16   0.08   0.00     0.03   0.02  -0.00     0.13   0.09  -0.00
   8   1     0.40   0.00  -0.00    -0.75  -0.01   0.00    -0.00   0.00  -0.00
   9   6    -0.20  -0.17   0.00    -0.03   0.11  -0.00     0.03  -0.07   0.00
  10   1     0.09   0.27  -0.00     0.21   0.37  -0.00     0.25   0.42  -0.00
  11   6     0.25   0.00  -0.00     0.13   0.00  -0.00    -0.00   0.07  -0.00
  12   1     0.15   0.40  -0.00     0.06   0.08  -0.00    -0.23  -0.41   0.00
                     19                     20                     21
                        a                      a                      a 
 Frequencies --  1257.7533              1321.8328              1354.7743
 Red. masses --     6.5163                 7.5596                 9.8784
 Frc consts  --     0.0000                 0.0000                 0.0000
 IR Inten    --     1.7833                10.2144               484.6630
 Raman Activ --     0.0000                 0.0000                 0.0000
 Depolar     --     0.0000                 0.0000                 0.0000
 Atom AN      X      Y      Z        X      Y      Z        X      Y      Z
   1   6     0.13   0.00  -0.00     0.25   0.30  -0.00    -0.14  -0.26   0.00
   2   6     0.14  -0.16   0.00     0.05  -0.08   0.00     0.23   0.01  -0.00
   3   1     0.26  -0.38   0.00    -0.07   0.14  -0.00    -0.12   0.17  -0.00
   4   8     0.06   0.00  -0.00    -0.01  -0.00   0.00    -0.01   0.45  -0.00
   5   6    -0.05  -0.00   0.00    -0.43  -0.01   0.00    -0.00   0.17  -0.00
   6   1    -0.07   0.15  -0.00     0.19  -0.32   0.00    -0.09   0.28  -0.00
   7   6     0.13   0.16  -0.00     0.04   0.08  -0.00    -0.23   0.01   0.00
   8   1    -0.15  -0.00   0.00     0.28   0.00  -0.00    -0.00   0.06  -0.00
   9   6     0.13  -0.00  -0.00     0.26  -0.30   0.00     0.15  -0.26   0.00
  10   1    -0.07  -0.15   0.00     0.18   0.33  -0.00     0.08   0.28  -0.00
  11   6    -0.61  -0.01   0.00    -0.30  -0.00   0.00     0.01  -0.47   0.00
  12   1     0.25   0.38  -0.00    -0.06  -0.15   0.00     0.11   0.17  -0.00
                     22                     23                     24
                        a                      a                      a 
 Frequencies --  1453.4435              1506.3377              1540.9530
 Red. masses --    10.0070                10.5071                11.1531
 Frc consts  --     0.0000                 0.0000                 0.0000
 IR Inten    --   108.3289               448.8207                14.9190
 Raman Activ --     0.0000                 0.0000                 0.0000
 Depolar     --     0.0000                 0.0000                 0.0000
 Atom AN      X      Y      Z        X      Y      Z        X      Y      Z
   1   6    -0.07   0.38  -0.00    -0.17  -0.11   0.00    -0.22  -0.17   0.00
   2   6     0.07  -0.47   0.00     0.20  -0.24   0.00     0.35  -0.09  -0.00
   3   1    -0.12   0.05   0.00    -0.08   0.20  -0.00     0.04  -0.11   0.00
   4   8    -0.06  -0.00   0.00     0.00  -0.33   0.00    -0.01  -0.00   0.00
   5   6     0.06   0.00  -0.00    -0.00   0.22  -0.00    -0.65  -0.01   0.00
   6   1    -0.14   0.13  -0.00    -0.09   0.18  -0.00     0.03   0.08  -0.00
   7   6     0.06   0.47  -0.00    -0.20  -0.25   0.00     0.34   0.10  -0.00
   8   1    -0.28  -0.00   0.00    -0.00   0.06  -0.00     0.20   0.00  -0.00
   9   6    -0.06  -0.39   0.00     0.17  -0.10  -0.00    -0.22   0.17   0.00
  10   1    -0.13  -0.13   0.00     0.08   0.18  -0.00     0.03  -0.08   0.00
  11   6     0.23   0.00  -0.00    -0.01   0.62  -0.00     0.31   0.00  -0.00
  12   1    -0.12  -0.06   0.00     0.07   0.20  -0.00     0.04   0.11  -0.00
                     25                     26                     27
                        a                      a                      a 
 Frequencies --  1610.3681              2990.5145              2995.8348
 Red. masses --    11.4770                 1.7572                 1.7292
 Frc consts  --     0.0000                 0.0000                 0.0000
 IR Inten    --   387.2078                69.4413               303.1177
 Raman Activ --     0.0000                 0.0000                 0.0000
 Depolar     --     0.0000                 0.0000                 0.0000
 Atom AN      X      Y      Z        X      Y      Z        X      Y      Z
   1   6    -0.08  -0.44   0.00     0.14  -0.08  -0.00     0.12  -0.07  -0.00
   2   6    -0.14   0.44  -0.00    -0.08  -0.05   0.00    -0.10  -0.05   0.00
   3   1    -0.09   0.07   0.00    -0.50  -0.30   0.00     0.46   0.27  -0.00
   4   8     0.00  -0.05   0.00    -0.00  -0.00   0.00    -0.00   0.00  -0.00
   5   6     0.00  -0.20   0.00    -0.01  -0.00   0.00    -0.00  -0.00   0.00
   6   1     0.07  -0.08   0.00     0.31   0.18  -0.00     0.37   0.21  -0.00
   7   6     0.13   0.44  -0.00    -0.08   0.05   0.00     0.10  -0.05  -0.00
   8   1     0.00  -0.05   0.00     0.00   0.00  -0.00     0.00  -0.04   0.00
   9   6     0.09  -0.44   0.00     0.13   0.09  -0.00    -0.12  -0.08   0.00
  10   1    -0.07  -0.08   0.00     0.31  -0.17  -0.00    -0.37   0.20   0.00
  11   6    -0.00   0.28  -0.00     0.01   0.00  -0.00     0.00  -0.01   0.00
  12   1     0.08   0.07  -0.00    -0.51   0.29   0.00    -0.46   0.26   0.00
                     28                     29                     30
                        a                      a                      a 
 Frequencies --  3006.7215              3017.9374              3057.0591
 Red. masses --     1.8710                 1.8107                 1.8799
 Frc consts  --     0.0000                 0.0000                 0.0000
 IR Inten    --   785.9459                33.9913               203.9096
 Raman Activ --     0.0000                 0.0000                 0.0000
 Depolar     --     0.0000                 0.0000                 0.0000
 Atom AN      X      Y      Z        X      Y      Z        X      Y      Z
   1   6     0.09  -0.05  -0.00     0.10  -0.05  -0.00     0.04  -0.02  -0.00
   2   6     0.14   0.09  -0.00     0.12   0.06  -0.00     0.06   0.04  -0.00
   3   1    -0.30  -0.18   0.00     0.34   0.20  -0.00     0.13   0.08  -0.00
   4   8     0.00   0.00  -0.00    -0.00   0.01  -0.00    -0.00   0.00  -0.00
   5   6    -0.00  -0.00   0.00     0.00  -0.10   0.00    -0.00   0.25  -0.00
   6   1    -0.50  -0.29   0.00    -0.42  -0.24   0.00    -0.19  -0.11   0.00
   7   6     0.15  -0.08  -0.00    -0.12   0.06   0.00    -0.07   0.04   0.00
   8   1     0.00   0.00  -0.00    -0.00   0.39  -0.00     0.01  -0.88   0.00
   9   6     0.09   0.05  -0.00    -0.10  -0.06   0.00    -0.04  -0.02   0.00
  10   1    -0.51   0.28   0.00     0.42  -0.23  -0.00     0.20  -0.11  -0.00
  11   6    -0.00  -0.00   0.00     0.00  -0.02   0.00     0.00  -0.01   0.00
  12   1    -0.30   0.17   0.00    -0.35   0.19   0.00    -0.13   0.08   0.00
