      -----------------------------------------------------------      
     |                   =====================                   |     
     |                           x T B                           |     
     |                   =====================                   |     
     |                         S. Grimme                         |     
     |          Mulliken Center for Theoretical Chemistry        |     
     |                    University of Bonn                     |     
      -----------------------------------------------------------      

   * xtb version 6.7.1 (edcfbbe) compiled by 'albert@albert-system' on 2024-07-22

   xtb is free software: you can redistribute it and/or modify it under
   the terms of the GNU Lesser General Public License as published by
   the Free Software Foundation, either version 3 of the License, or
   (at your option) any later version.
   
   xtb is distributed in the hope that it will be useful,
   but WITHOUT ANY WARRANTY; without even the implied warranty of
   MERCHANTABILITY or FITNESS FOR A PARTICULAR PURPOSE.  See the
   GNU Lesser General Public License for more details.
   
   Cite this work as:
   * C. Bannwarth, E. Caldeweyher, S. Ehlert, A. Hansen, P. Pracht,
     J. Seibert, S. Spicher, S. Grimme, WIREs Comput. Mol. Sci., 2020, 11,
     e01493. DOI: 10.1002/wcms.1493
   
   for GFN2-xTB:
   * C. Bannwarth, S. Ehlert and S. Grimme., J. Chem. Theory Comput., 2019,
     15, 1652-1671. DOI: 10.1021/acs.jctc.8b01176
   for GFN1-xTB:
   * S. Grimme, C. Bannwarth, P. Shushkov, J. Chem. Theory Comput., 2017,
     13, 1989-2009. DOI: 10.1021/acs.jctc.7b00118
   for GFN0-xTB:
   * P. Pracht, E. Caldeweyher, S. Ehlert, S. Grimme, ChemRxiv, 2019, preprint.
     DOI: 10.26434/chemrxiv.8326202.v1
   for GFN-FF:
   * S. Spicher and S. Grimme, Angew. Chem. Int. Ed., 2020, 59, 15665-15673.
     DOI: 10.1002/anie.202004239
   
   for ALPB and GBSA implicit solvation:
   * S. Ehlert, M. Stahn, S. Spicher, S. Grimme, J. Chem. Theory Comput.,
     2021, 17, 4250-4261. DOI: 10.1021/acs.jctc.1c00471
   
   for ddCOSMO and CPCM-X implicit solvation:
   * M. Stahn, S. Ehlert, S. Grimme, J. Phys. Chem. A,
     2023, XX, XXXX-XXXX. DOI: 10.1021/acs.jpca.3c04382
   
   for DFT-D4:
   * E. Caldeweyher, C. Bannwarth and S. Grimme, J. Chem. Phys., 2017,
     147, 034112. DOI: 10.1063/1.4993215
   * E. Caldeweyher, S. Ehlert, A. Hansen, H. Neugebauer, S. Spicher,
     C. Bannwarth and S. Grimme, J. Chem. Phys., 2019, 150, 154122.
     DOI: 10.1063/1.5090222
   * E. Caldeweyher, J.-M. Mewes, S. Ehlert and S. Grimme, Phys. Chem. Chem. Phys.
     2020, 22, 8499-8512. DOI: 10.1039/D0CP00502A
   
   for sTDA-xTB:
   * S. Grimme and C. Bannwarth, J. Chem. Phys., 2016, 145, 054103.
     DOI: 10.1063/1.4959605
   
   in the mass-spec context:
   * V. Asgeirsson, C. Bauer and S. Grimme, Chem. Sci., 2017, 8, 4879.
     DOI: 10.1039/c7sc00601b
   * J. Koopman and S. Grimme, ACS Omega 2019, 4, 12, 15120-15133.
     DOI: 10.1021/acsomega.9b02011
   
   for metadynamics refer to:
   * S. Grimme, J. Chem. Theory Comput., 2019, 155, 2847-2862
     DOI: 10.1021/acs.jctc.9b00143
   
   for SPH calculations refer to:
   * S. Spicher and S. Grimme, J. Chem. Theory Comput., 2021, 17, 1701-1714
     DOI: 10.1021/acs.jctc.0c01306
   
   for ONIOM refer to:
   * C. Plett, A. Katbashev, S. Ehlert, S. Grimme, M. Bursch,
     Phys. Chem. Chem. Phys., 2023, 25, 17860-17868. DOI: 10.1039/D3CP02178E
   
   for DIPRO refer to:
   * J. Kohn, N. Gildemeister, S. Grimme, D. Fazzi, A. Hansen,
     J. Chem. Phys., 2023, just accepted.
   
   for PTB refer to:
   * S. Grimme, M. Mueller, A. Hansen, J. Chem. Phys., 2023, 158, 124111.
     DOI: 10.1063/5.0137838
   
   with help from (in alphabetical order)
   P. Atkinson, C. Bannwarth, F. Bohle, G. Brandenburg, E. Caldeweyher
   M. Checinski, S. Dohm, S. Ehlert, S. Ehrlich, I. Gerasimov, C. Hölzer
   A. Katbashev, J. Kohn, J. Koopman, C. Lavigne, S. Lehtola, F. März, M. Müller,
   F. Musil, H. Neugebauer, J. Pisarek, C. Plett, P. Pracht, F. Pultar,
   J. Seibert, P. Shushkov, S. Spicher, M. Stahn, M. Steiner, T. Strunk,
   J. Stückrath, T. Rose, and J. Unsleber
   
 * started run on 2025/10/17 at 23:09:06.206     
   ID    Z sym.   atoms
    1    6 C      1, 2, 5, 7, 9, 11
    2    1 H      3, 6, 8, 10, 12
    3    8 O      4

           -------------------------------------------------
          |                Calculation Setup                |
           -------------------------------------------------

          program call               : xtb xyz.xyz --alpb water --charge -1 --ohess
          hostname                   : m003
          coordinate file            : xyz.xyz
          omp threads                :                     2


           -------------------------------------------------
          |                 G F N 2 - x T B                 |
           -------------------------------------------------

        Reference                      10.1021/acs.jctc.8b01176
      * Hamiltonian:
        H0-scaling (s, p, d)           1.850000    2.230000    2.230000
        zeta-weighting                 0.500000
      * Dispersion:
        s8                             2.700000
        a1                             0.520000
        a2                             5.000000
        s9                             5.000000
      * Repulsion:
        kExp                           1.500000    1.000000
        rExp                           1.000000
      * Coulomb:
        alpha                          2.000000
        third order                    shell-resolved
        anisotropic                    true
        a3                             3.000000
        a5                             4.000000
        cn-shift                       1.200000
        cn-exp                         4.000000
        max-rad                        5.000000

      * Solvation model:               ALPB
        Solvent                        water
        Parameter file                 internal GFN2-xTB/ALPB
        Dielectric constant                8.0200E+01
        Reference state                gsolv [1 M gas/solution]
        Free energy shift                  1.0808E-03 Eh       6.7819E-01 kcal/mol
        Temperature                        2.9815E+02 K
        Density                            1.0000E+00 kg/L
        Solvent mass                       1.8000E+01 g/mol
        Interaction kernel             P16
        Born radius scaling (c1)           1.4744E+00
        Born radii integrator          GBOBC
        Born offset                        0.0000E+00 a0       0.0000E+00 AA
        H-bond correction              true
        Ion screening                  false
        Surface tension                    1.0000E-05 Eh       1.5569E+01 dyn/cm
        Grid points                               230 per atom

          ...................................................
          :                      SETUP                      :
          :.................................................:
          :  # basis functions                  33          :
          :  # atomic orbitals                  33          :
          :  # shells                           19          :
          :  # electrons                        36          :
          :  max. iterations                   250          :
          :  Hamiltonian                  GFN2-xTB          :
          :  restarted?                      false          :
          :  GBSA solvation                   true          :
          :  PC potential                    false          :
          :  electronic temp.          300.0000000     K    :
          :  accuracy                    1.0000000          :
          :  -> integral cutoff          0.2500000E+02      :
          :  -> integral neglect         0.1000000E-07      :
          :  -> SCF convergence          0.1000000E-05 Eh   :
          :  -> wf. convergence          0.1000000E-03 e    :
          :  Broyden damping             0.4000000          :
          :  net charge                         -1          :
          :  unpaired electrons                  0          :
          ...................................................

 iter      E             dE          RMSdq      gap      omega  full diag
   1    -19.9526140 -0.199526E+02  0.554E+00    4.11       0.0  T
   2    -20.0047748 -0.521608E-01  0.279E+00    3.45       1.0  T
   3    -20.0033267  0.144808E-02  0.130E+00    3.31       1.0  T
   4    -20.0098063 -0.647962E-02  0.489E-01    3.28       1.0  T
   5    -20.0103862 -0.579858E-03  0.104E-01    3.33       1.0  T
   6    -20.0104314 -0.452540E-04  0.541E-02    3.33       1.0  T
   7    -20.0104333 -0.184135E-05  0.209E-02    3.32       1.4  T
   8    -20.0104346 -0.130777E-05  0.741E-03    3.33       3.9  T
   9    -20.0104348 -0.236356E-06  0.395E-03    3.33       7.3  T
  10    -20.0104349 -0.742453E-07  0.109E-03    3.33      26.4  T
  11    -20.0104349 -0.222667E-08  0.430E-04    3.33      67.1  T
  12    -20.0104349 -0.126730E-08  0.885E-05    3.33     326.2  T

   *** convergence criteria satisfied after 12 iterations ***

         #    Occupation            Energy/Eh            Energy/eV
      -------------------------------------------------------------
         1        2.0000           -0.6198554             -16.8671
       ...           ...                  ...                  ...
        12        2.0000           -0.4427092             -12.0467
        13        2.0000           -0.4070187             -11.0755
        14        2.0000           -0.4045121             -11.0073
        15        2.0000           -0.4028343             -10.9617
        16        2.0000           -0.3674785              -9.9996
        17        2.0000           -0.3262326              -8.8772
        18        2.0000           -0.3134629              -8.5298 (HOMO)
        19                         -0.1911749              -5.2021 (LUMO)
        20                         -0.1700345              -4.6269
        21                         -0.0606326              -1.6499
        22                          0.1257080               3.4207
        23                          0.1292724               3.5177
       ...                                ...                  ...
        33                          0.6594701              17.9451
      -------------------------------------------------------------
                  HL-Gap            0.1222880 Eh            3.3276 eV
             Fermi-level           -0.2523189 Eh           -6.8659 eV

 SCC (total)                   0 d,  0 h,  0 min,  0.088 sec
 SCC setup                      ...        0 min,  0.000 sec (  0.504%)
 Dispersion                     ...        0 min,  0.000 sec (  0.147%)
 classical contributions        ...        0 min,  0.000 sec (  0.037%)
 integral evaluation            ...        0 min,  0.001 sec (  1.042%)
 iterations                     ...        0 min,  0.084 sec ( 95.959%)
 molecular gradient             ...        0 min,  0.002 sec (  2.129%)
 printout                       ...        0 min,  0.000 sec (  0.136%)

         :::::::::::::::::::::::::::::::::::::::::::::::::::::
         ::                     SUMMARY                     ::
         :::::::::::::::::::::::::::::::::::::::::::::::::::::
         :: total energy             -19.734822042997 Eh    ::
         :: total w/o Gsasa/hb       -19.734889809988 Eh    ::
         :: gradient norm              0.032168356233 Eh/a0 ::
         :: HOMO-LUMO gap              3.327626505310 eV    ::
         ::.................................................::
         :: SCC energy               -20.010425815790 Eh    ::
         :: -> isotropic ES            0.180508057907 Eh    ::
         :: -> anisotropic ES          0.013850541278 Eh    ::
         :: -> anisotropic XC          0.007710498225 Eh    ::
         :: -> dispersion             -0.009604240758 Eh    ::
         :: -> Gsolv                  -0.097174867543 Eh    ::
         ::    -> Gelec               -0.097242634534 Eh    ::
         ::    -> Gsasa                0.001070007104 Eh    ::
         ::    -> Ghb                 -0.002082999811 Eh    ::
         ::    -> Gshift               0.001080759698 Eh    ::
         :: repulsion energy           0.275603772794 Eh    ::
         :: add. restraining           0.000000000000 Eh    ::
         :: total charge              -1.000000000000 e     ::
         :::::::::::::::::::::::::::::::::::::::::::::::::::::

      ----------------------------------------------------------- 
     |                   =====================                   |
     |                        A N C O P T                        |
     |                   =====================                   |
     |               Approximate Normal Coordinate               |
     |                Rational Function Optimizer                |
      ----------------------------------------------------------- 
      ----------------------------------------------------------- 
     |                   =====================                   |
     |                        A N C O P T                        |
     |                   =====================                   |
     |               Approximate Normal Coordinate               |
     |                Rational Function Optimizer                |
      ----------------------------------------------------------- 

          ...................................................
          :                      SETUP                      :
          :.................................................:
          :   optimization level            normal          :
          :   max. optcycles                   200          :
          :   ANC micro-cycles                  20          :
          :   degrees of freedom                30          :
          :.................................................:
          :   RF solver                   davidson          :
          :   write xtbopt.log                true          :
          :   linear?                        false          :
          :   energy convergence         0.5000000E-05 Eh   :
          :   grad. convergence          0.1000000E-02 Eh/α :
          :   maxmium RF displ.          1.0000000          :
          :   Hlow (freq-cutoff)         0.1000000E-01      :
          :   Hmax (freq-cutoff)         5.0000000          :
          :   S6 in model hess.         20.0000000          :
          ...................................................

generating ANC from exact Hessian ...
Using Lindh-Hessian (1995)
 Shifting diagonal of input Hessian by   0.000000000000000E+000
 Lowest  eigenvalues of input Hessian
    0.000000    0.000000    0.000000    0.000000    0.000000    0.000000
    0.011885    0.013181    0.021078    0.022809    0.059203    0.063819
    0.085613    0.087381    0.090573    0.090670    0.097342    0.113913
 Highest eigenvalues
    1.372755    1.475651    1.726383    1.733295    1.847465    2.056724
 

........................................................................
.............................. CYCLE    1 ..............................
........................................................................

 iter      E             dE          RMSdq      gap      omega  full diag
   1    -20.0104349 -0.200104E+02  0.127E-05    3.33       0.0  T
   2    -20.0104349 -0.369482E-12  0.711E-06    3.33    4060.2  T
   3    -20.0104349 -0.166978E-12  0.483E-06    3.33    5971.1  T
     SCC iter.                  ...        0 min,  0.001 sec
     gradient                   ...        0 min,  0.002 sec
 * total energy  :   -19.7348220 Eh     change       -0.1963585E-10 Eh
   gradient norm :     0.0321683 Eh/α   predicted     0.0000000E+00 (-100.00%)
   displ. norm   :     0.1356454 α      lambda       -0.4056850E-02
   maximum displ.:     0.1175610 α      in ANC's #17, #18, #13, ...

........................................................................
.............................. CYCLE    2 ..............................
........................................................................

 iter      E             dE          RMSdq      gap      omega  full diag
   1    -20.0383451 -0.200383E+02  0.216E-01    3.45       0.0  T
   2    -20.0383650 -0.199177E-04  0.131E-01    3.44       1.0  T
   3    -20.0383606  0.447462E-05  0.328E-02    3.44       1.0  T
   4    -20.0383669 -0.636309E-05  0.621E-03    3.44       4.6  T
   5    -20.0383672 -0.279039E-06  0.285E-03    3.44      10.1  T
   6    -20.0383672 -0.287582E-08  0.138E-03    3.44      20.9  T
   7    -20.0383672 -0.594853E-08  0.302E-04    3.44      95.4  T
   8    -20.0383672 -0.942926E-10  0.186E-04    3.44     155.6  T
     SCC iter.                  ...        0 min,  0.003 sec
     gradient                   ...        0 min,  0.002 sec
 * total energy  :   -19.7371385 Eh     change       -0.2316497E-02 Eh
   gradient norm :     0.0052386 Eh/α   predicted    -0.2065749E-02 ( -10.82%)
   displ. norm   :     0.0240924 α      lambda       -0.9809504E-04
   maximum displ.:     0.0187484 α      in ANC's #17, #7, #18, ...

........................................................................
.............................. CYCLE    3 ..............................
........................................................................

 iter      E             dE          RMSdq      gap      omega  full diag
   1    -20.0424778 -0.200425E+02  0.355E-02    3.45       0.0  T
   2    -20.0424795 -0.172127E-05  0.213E-02    3.45       1.4  T
   3    -20.0424795  0.536983E-07  0.971E-03    3.45       3.0  T
   4    -20.0424796 -0.127730E-06  0.275E-03    3.45      10.5  T
   5    -20.0424797 -0.446345E-07  0.485E-04    3.45      59.6  T
   6    -20.0424797 -0.149534E-10  0.198E-04    3.45     146.1  T
     SCC iter.                  ...        0 min,  0.002 sec
     gradient                   ...        0 min,  0.002 sec
 * total energy  :   -19.7371899 Eh     change       -0.5135628E-04 Eh
   gradient norm :     0.0019139 Eh/α   predicted    -0.4907630E-04 (  -4.44%)
   displ. norm   :     0.0080192 α      lambda       -0.4442031E-05
   maximum displ.:     0.0066451 α      in ANC's #7, #13, #30, ...

........................................................................
.............................. CYCLE    4 ..............................
........................................................................

 iter      E             dE          RMSdq      gap      omega  full diag
   1    -20.0424065 -0.200424E+02  0.134E-02    3.45       0.0  T
   2    -20.0424070 -0.511336E-06  0.697E-03    3.44       4.1  T
   3    -20.0424071 -0.810567E-07  0.405E-03    3.44       7.1  T
   4    -20.0424071 -0.194625E-07  0.107E-03    3.44      27.0  T
   5    -20.0424071 -0.217318E-08  0.251E-04    3.44     114.9  T
   6    -20.0424071 -0.334005E-09  0.126E-04    3.44     230.0  T
     SCC iter.                  ...        0 min,  0.002 sec
     gradient                   ...        0 min,  0.002 sec
 * total energy  :   -19.7371936 Eh     change       -0.3727842E-05 Eh
   gradient norm :     0.0003163 Eh/α   predicted    -0.2219565E-05 ( -40.46%)
   displ. norm   :     0.0018997 α      lambda       -0.2630744E-06
   maximum displ.:     0.0011141 α      in ANC's #13, #17, #10, ...

   *** GEOMETRY OPTIMIZATION CONVERGED AFTER 4 ITERATIONS ***

------------------------------------------------------------------------
 total energy gain   :        -0.0023716 Eh       -1.4882 kcal/mol
 total RMSD          :         0.0458265 a0        0.0243 Å
 total power (kW/mol):        -1.5566464 (step) -271.5233 (real)
------------------------------------------------------------------------

 ANCopt (total)                0 d,  0 h,  0 min,  0.023 sec
 optimizer setup                ...        0 min,  0.000 sec (  1.390%)
 model hessian                  ...        0 min,  0.002 sec (  7.263%)
 ANC generation                 ...        0 min,  0.000 sec (  1.084%)
 coordinate transformation      ...        0 min,  0.000 sec (  0.180%)
 single point calculation       ...        0 min,  0.020 sec ( 86.094%)
 optimization log               ...        0 min,  0.000 sec (  1.259%)
 hessian update                 ...        0 min,  0.000 sec (  0.164%)
 rational function              ...        0 min,  0.000 sec (  1.326%)

================
 final structure:
================
12
 xtb: 6.7.1 (edcfbbe)
C           -3.05570047386427        1.72630808425773       -0.00001053399065
C           -3.03125265039638        0.35187165937229        0.00000068819282
H            0.27652412318873        2.31269683048835       -0.00003777373518
O           -1.87882210703154        3.78654791286035       -0.00003569439095
C           -1.83055006175837       -0.34272513987158       -0.00000138879706
H           -3.96801672776917       -0.19391871583950        0.00001149419586
C           -0.64640892254569        0.37974149561359       -0.00001532966414
H           -1.81793815414938       -1.42310256447373        0.00000772900569
C           -0.65408047960285        1.75437888788466       -0.00002656022943
H            0.30284316750815       -0.14403440164967       -0.00001703857386
C           -1.86378151890650        2.50107999225934       -0.00002428064283
H           -3.99908330422065        2.26274602410922       -0.00000931098518
 
 Bond Distances (Angstroems)
 ---------------------------
C1-C2=1.3747         C1-C11=1.4216        C1-H12=1.0852        C2-C1=1.3747         C2-C5=1.3871         C2-H6=1.0842         
H3-C9=1.0852         O4-C11=1.2856        C5-C2=1.3871         C5-C7=1.3871         C5-H8=1.0805         H6-C2=1.0842         
C7-C5=1.3871         C7-C9=1.3747         C7-H10=1.0842        H8-C5=1.0805         C9-H3=1.0852         C9-C7=1.3747         
C9-C11=1.4216        H10-C7=1.0842        C11-C1=1.4216        C11-O4=1.2856        C11-C9=1.4216        H12-C1=1.0852        
 C  H  Rav=1.0839 sigma=0.0018  Rmin=1.0805  Rmax=1.0852     5
 C  C  Rav=1.3945 sigma=0.0199  Rmin=1.3747  Rmax=1.4216     6
 O  C  Rav=1.2856 sigma=0.0000  Rmin=1.2856  Rmax=1.2856     1
 
 selected bond angles (degree)
 --------------------
C11-C1-C2=122.01               H12-C1-C2=120.64               H12-C1-C11=117.35              C5-C2-C1=121.07                
H6-C2-C1=119.21                H6-C2-C5=119.72                C7-C5-C2=118.56                H8-C5-C2=120.72                
H8-C5-C7=120.72                C9-C7-C5=121.07                H10-C7-C5=119.72               H10-C7-C9=119.21               
C7-C9-H3=120.64                C11-C9-H3=117.35               C11-C9-C7=122.01               
 
 selected dihedral angles (degree)
 ---------------------------------
C5-C2-C1-C11=  0.00           C5-C2-C1-H12=180.00           H6-C2-C1-C11=180.00           H6-C2-C1-H12=  0.00           
C7-C5-C2-C1=  0.00            C7-C5-C2-H6=180.00            H8-C5-C2-C1=180.00            H8-C5-C2-H6=  0.00            
C9-C7-C5-C2=  0.00            C9-C7-C5-H8=180.00            H10-C7-C5-C2=180.00           H10-C7-C5-H8=  0.00           
H3-C9-C7-C5=180.00            H3-C9-C7-H10=  0.00           C11-C9-C7-C5=  0.00           C11-C9-C7-H10=180.00          
           -------------------------------------------------
          |                Final Singlepoint                |
           -------------------------------------------------

          ...................................................
          :                      SETUP                      :
          :.................................................:
          :  # basis functions                  33          :
          :  # atomic orbitals                  33          :
          :  # shells                           19          :
          :  # electrons                        36          :
          :  max. iterations                   250          :
          :  Hamiltonian                  GFN2-xTB          :
          :  restarted?                      false          :
          :  GBSA solvation                   true          :
          :  PC potential                    false          :
          :  electronic temp.          300.0000000     K    :
          :  accuracy                    1.0000000          :
          :  -> integral cutoff          0.2500000E+02      :
          :  -> integral neglect         0.1000000E-07      :
          :  -> SCF convergence          0.1000000E-05 Eh   :
          :  -> wf. convergence          0.1000000E-03 e    :
          :  Broyden damping             0.4000000          :
          :  net charge                         -1          :
          :  unpaired electrons                  0          :
          ...................................................

 iter      E             dE          RMSdq      gap      omega  full diag
   1    -20.0424071 -0.200424E+02  0.340E-05    3.44       0.0  T
   2    -20.0424071 -0.194333E-11  0.230E-05    3.44    1255.5  T
   3    -20.0424071 -0.532907E-12  0.152E-05    3.44    1902.5  T

   *** convergence criteria satisfied after 3 iterations ***

         #    Occupation            Energy/Eh            Energy/eV
      -------------------------------------------------------------
         1        2.0000           -0.6197832             -16.8652
       ...           ...                  ...                  ...
        12        2.0000           -0.4420856             -12.0298
        13        2.0000           -0.4085179             -11.1163
        14        2.0000           -0.4036767             -10.9846
        15        2.0000           -0.4010474             -10.9131
        16        2.0000           -0.3702631             -10.0754
        17        2.0000           -0.3238268              -8.8118
        18        2.0000           -0.3130397              -8.5182 (HOMO)
        19                         -0.1865123              -5.0753 (LUMO)
        20                         -0.1647938              -4.4843
        21                         -0.0491284              -1.3369
        22                          0.1394843               3.7956
        23                          0.1528173               4.1584
       ...                                ...                  ...
        33                          0.7092572              19.2999
      -------------------------------------------------------------
                  HL-Gap            0.1265274 Eh            3.4430 eV
             Fermi-level           -0.2497760 Eh           -6.7968 eV

 SCC (total)                   0 d,  0 h,  0 min,  0.004 sec
 SCC setup                      ...        0 min,  0.000 sec (  5.749%)
 Dispersion                     ...        0 min,  0.000 sec (  1.376%)
 classical contributions        ...        0 min,  0.000 sec (  0.316%)
 integral evaluation            ...        0 min,  0.001 sec ( 19.696%)
 iterations                     ...        0 min,  0.001 sec ( 27.722%)
 molecular gradient             ...        0 min,  0.002 sec ( 42.020%)
 printout                       ...        0 min,  0.000 sec (  2.330%)

         :::::::::::::::::::::::::::::::::::::::::::::::::::::
         ::                     SUMMARY                     ::
         :::::::::::::::::::::::::::::::::::::::::::::::::::::
         :: total energy             -19.737193624277 Eh    ::
         :: total w/o Gsasa/hb       -19.737240874444 Eh    ::
         :: gradient norm              0.000316799333 Eh/a0 ::
         :: HOMO-LUMO gap              3.442985132728 eV    ::
         ::.................................................::
         :: SCC energy               -20.042398498472 Eh    ::
         :: -> isotropic ES            0.182728310447 Eh    ::
         :: -> anisotropic ES          0.012503434352 Eh    ::
         :: -> anisotropic XC          0.006697875947 Eh    ::
         :: -> dispersion             -0.009678556521 Eh    ::
         :: -> Gsolv                  -0.097667329721 Eh    ::
         ::    -> Gelec               -0.097714579888 Eh    ::
         ::    -> Gsasa                0.001063177188 Eh    ::
         ::    -> Ghb                 -0.002096686719 Eh    ::
         ::    -> Gshift               0.001080759698 Eh    ::
         :: repulsion energy           0.305204874195 Eh    ::
         :: add. restraining           0.000000000000 Eh    ::
         :: total charge              -1.000000000000 e     ::
         :::::::::::::::::::::::::::::::::::::::::::::::::::::

           ------------------------------------------------- 
          |                Numerical Hessian                |
           ------------------------------------------------- 
step length          :   0.00500
SCC accuracy         :   0.30000
Hessian scale factor :   1.00000
frozen atoms in %    :   0.00000    0
RMS gradient         :   0.00032
estimated CPU  time      0.01 min
estimated wall time      0.01 min

writing file <hessian>.

 projected vibrational frequencies (cm⁻¹)
eigval :       -0.00     0.00     0.00     0.00     0.00     0.00
eigval :      200.72   377.98   430.99   477.20   502.09   590.02
eigval :      656.69   747.47   820.19   843.26   847.57   907.15
eigval :      907.62   962.12  1075.80  1103.94  1173.85  1189.55
eigval :     1257.75  1321.83  1354.77  1453.44  1506.34  1540.95
eigval :     1610.37  2990.51  2995.83  3006.72  3017.94  3057.06
           -------------------------------------------------
          |                Property Printout                |
           -------------------------------------------------

    * Orbital Energies and Occupations

         #    Occupation            Energy/Eh            Energy/eV
      -------------------------------------------------------------
         1        2.0000           -0.6197832             -16.8652
       ...           ...                  ...                  ...
         6        2.0000           -0.5328072             -14.4984
         7        2.0000           -0.4985521             -13.5663
         8        2.0000           -0.4732703             -12.8783
         9        2.0000           -0.4647727             -12.6471
        10        2.0000           -0.4514494             -12.2846
        11        2.0000           -0.4490460             -12.2192
        12        2.0000           -0.4420856             -12.0298
        13        2.0000           -0.4085179             -11.1163
        14        2.0000           -0.4036767             -10.9846
        15        2.0000           -0.4010473             -10.9131
        16        2.0000           -0.3702631             -10.0754
        17        2.0000           -0.3238268              -8.8118
        18        2.0000           -0.3130397              -8.5182 (HOMO)
        19                         -0.1865123              -5.0753 (LUMO)
        20                         -0.1647937              -4.4843
        21                         -0.0491284              -1.3369
        22                          0.1394844               3.7956
        23                          0.1528173               4.1584
        24                          0.1814511               4.9375
        25                          0.2141973               5.8286
        26                          0.2245470               6.1102
        27                          0.2675735               7.2810
        28                          0.4227803              11.5044
        29                          0.4565620              12.4237
       ...                                ...                  ...
        33                          0.7092573              19.2999
      -------------------------------------------------------------
                  HL-Gap            0.1265274 Eh            3.4430 eV
             Fermi-level           -0.2497760 Eh           -6.7968 eV

     #   Z          covCN         q      C6AA      α(0)
     1   6 C        2.918    -0.097    30.440     9.047
     2   6 C        2.915    -0.049    29.210     8.863
     3   1 H        0.925    -0.026     3.552     2.947
     4   8 O        0.857    -0.736    29.698     7.306
     5   6 C        2.917    -0.080    29.989     8.980
     6   1 H        0.925    -0.003     3.104     2.755
     7   6 C        2.915    -0.049    29.210     8.863
     8   1 H        0.926    -0.000     3.060     2.735
     9   6 C        2.918    -0.097    30.440     9.047
    10   1 H        0.925    -0.003     3.104     2.755
    11   6 C        2.832     0.164    24.455     8.104
    12   1 H        0.925    -0.026     3.552     2.947

 Mol. C6AA /au·bohr⁶  :       2178.239034
 Mol. C8AA /au·bohr⁸  :      52469.118445
 Mol. α(0) /au        :         74.350413


Wiberg/Mayer (AO) data.
largest (>0.10) Wiberg bond orders for each atom

 ---------------------------------------------------------------------------
     #   Z sym  total        # sym  WBO       # sym  WBO       # sym  WBO
 ---------------------------------------------------------------------------
     1   6 C    3.978 --     2 C    1.497    11 C    1.248    12 H    0.971
     2   6 C    3.990 --     1 C    1.497     5 C    1.402     6 H    0.971
     3   1 H    0.999 --     9 C    0.971
     4   8 O    1.660 --    11 C    1.366
     5   6 C    3.978 --     7 C    1.402     2 C    1.402     8 H    0.973
     6   1 H    1.000 --     2 C    0.971
     7   6 C    3.990 --     9 C    1.497     5 C    1.402    10 H    0.971
     8   1 H    1.000 --     5 C    0.973
     9   6 C    3.978 --     7 C    1.497    11 C    1.248     3 H    0.971
    10   1 H    1.000 --     7 C    0.971
    11   6 C    3.964 --     4 O    1.366     9 C    1.248     1 C    1.248
    12   1 H    0.999 --     1 C    0.971
 ---------------------------------------------------------------------------

Topologies differ in total number of bonds
Writing topology from bond orders to xtbtopo.mol

molecular dipole:
                 x           y           z       tot (Debye)
 q only:        3.529      -5.365       0.000
   full:        3.531      -5.462       0.000      16.530
molecular quadrupole (traceless):
                xx          xy          yy          xz          yz          zz
 q only:        3.687      28.508     -29.707      -0.000       0.001      26.020
  q+dip:        7.235      29.065     -30.733      -0.000       0.001      23.498
   full:        5.986      29.060     -31.624      -0.000       0.001      25.638

           -------------------------------------------------
          |                Geometry Summary                 |
           -------------------------------------------------

      molecular mass/u    :       93.1035241
   center of mass at/Å    :       -1.8521141       1.5030196      -0.0000128
  moments of inertia/u·Å² :        0.8721050E+02   0.1842620E+03   0.2714725E+03
rotational constants/cm⁻¹ :        0.1932982E+00   0.9148730E-01   0.6209702E-01

 * 11 selected distances

     #   Z          #   Z                                           value/Å
     1   6 C        2   6 C                                       1.3746540
     2   6 C        5   6 C                                       1.3871380
     2   6 C        6   1 H                                       1.0841652
     5   6 C        7   6 C                                       1.3871368
     5   6 C        8   1 H                                       1.0804511 (min)
     3   1 H        9   6 C                                       1.0852392
     7   6 C        9   6 C                                       1.3746589
     7   6 C       10   1 H                                       1.0841683
     1   6 C       11   6 C                                       1.4215986 (max)
     9   6 C       11   6 C                                       1.4215975
     1   6 C       12   1 H                                       1.0852359

 * 2 distinct bonds (by element types)

   Z      Z             #   av. dist./Å        max./Å        min./Å
   1 H    6 C           5     1.0838520     1.0852392     1.0804511
   6 C    6 C           6     1.3944640     1.4215986     1.3746540

           -------------------------------------------------
          |               Frequency Printout                |
           -------------------------------------------------
 projected vibrational frequencies (cm⁻¹)
eigval :       -0.00     0.00     0.00     0.00     0.00     0.00
eigval :      200.72   377.98   430.99   477.20   502.09   590.02
eigval :      656.69   747.47   820.19   843.26   847.57   907.15
eigval :      907.62   962.12  1075.80  1103.94  1173.85  1189.55
eigval :     1257.75  1321.83  1354.77  1453.44  1506.34  1540.95
eigval :     1610.37  2990.51  2995.83  3006.72  3017.94  3057.06
 reduced masses (amu)
   1: 11.76   2: 12.91   3: 13.31   4: 10.54   5: 11.60   6: 10.63   7: 11.63   8:  9.34
   9: 12.71  10:  8.89  11: 12.49  12: 11.45  13:  9.62  14:  4.99  15:  4.66  16: 11.98
  17:  3.29  18:  2.28  19:  3.72  20: 10.58  21:  6.81  22:  4.52  23:  1.60  24:  1.86
  25:  6.52  26:  7.56  27:  9.88  28: 10.01  29: 10.51  30: 11.15  31: 11.48  32:  1.76
  33:  1.73  34:  1.87  35:  1.81  36:  1.88
 IR intensities (km·mol⁻¹)
   1:  9.03   2: 15.98   3: 13.56   4:  2.74   5:  5.72   6:  1.66   7:  7.55   8:  0.00
   9: 15.85  10:  0.04  11: 10.80  12:  1.62  13:  3.34  14: 45.05  15:  5.13  16: 20.22
  17:  0.00  18:  0.05  19:  0.00  20:  7.20  21:  1.81  22:  1.15  23:  0.21  24: 42.24
  25:  1.78  26: 10.21  27:484.66  28:108.33  29:448.82  30: 14.92  31:387.21  32: 69.44
  33:303.12  34:785.95  35: 33.99  36:203.91
 Raman intensities (Ä⁴*amu⁻¹)
   1:  0.00   2:  0.00   3:  0.00   4:  0.00   5:  0.00   6:  0.00   7:  0.00   8:  0.00
   9:  0.00  10:  0.00  11:  0.00  12:  0.00  13:  0.00  14:  0.00  15:  0.00  16:  0.00
  17:  0.00  18:  0.00  19:  0.00  20:  0.00  21:  0.00  22:  0.00  23:  0.00  24:  0.00
  25:  0.00  26:  0.00  27:  0.00  28:  0.00  29:  0.00  30:  0.00  31:  0.00  32:  0.00
  33:  0.00  34:  0.00  35:  0.00  36:  0.00
 output can be read by thermo (or use thermo option).
 writing <g98.out> molden fake output.
 recommended (thermochemical) frequency scaling factor: 1.0
           -------------------------------------------------
          |             Thermodynamic Functions             |
           -------------------------------------------------

Molecule has the following symmetry elements: (C2) 2*(sigma) 
It seems to be the C2v point group
c2v symmetry found (for desy threshold:  0.10E+00) used in thermo

          ...................................................
          :                      SETUP                      :
          :.................................................:
          :  # frequencies                          30      :
          :  # imaginary freq.                       0      :
          :  linear?                             false      :
          :  only rotor calc.                    false      :
          :  symmetry                              c2v      :
          :  rotational number                       2      :
          :  scaling factor                  1.0000000      :
          :  rotor cutoff                   50.0000000 cm⁻¹ :
          :  imag. cutoff                  -20.0000000 cm⁻¹ :
          :.................................................:

    mode    ω/cm⁻¹     T·S(HO)/kcal·mol⁻¹    T·S(FR)/kcal·mol⁻¹   T·S(vib)
   ------------------------------------------------------------------------
       1    200.72    -0.63401 ( 99.62%)    -0.64467 (  0.38%)    -0.63406
   ------------------------------------------------------------------------

   temp. (K)  partition function   enthalpy   heat capacity  entropy
                                   cal/mol     cal/K/mol   cal/K/mol   J/K/mol
 298.15  VIB   3.42                 1580.649     14.908      7.744
         ROT  0.798E+05              888.752      2.981     25.411
         INT  0.273E+06             2469.401     17.889     33.155
         TR   0.869E+27             1481.254      4.968     39.487
         TOT                        3950.6553    22.8568    72.6423   303.9352

       T/K    H(0)-H(T)+PV         H(T)/Eh          T*S/Eh         G(T)/Eh
   ------------------------------------------------------------------------
    298.15    0.629577E-02    0.949797E-01    0.345147E-01    0.604650E-01
   ------------------------------------------------------------------------

         :::::::::::::::::::::::::::::::::::::::::::::::::::::
         ::                  THERMODYNAMIC                  ::
         :::::::::::::::::::::::::::::::::::::::::::::::::::::
         :: total free energy         -19.676728645987 Eh   ::
         ::.................................................::
         :: total energy              -19.737193624347 Eh   ::
         :: zero point energy           0.088683890460 Eh   ::
         :: G(RRHO) w/o ZPVE           -0.028218912100 Eh   ::
         :: G(RRHO) contrib.            0.060464978360 Eh   ::
         :::::::::::::::::::::::::::::::::::::::::::::::::::::

optimized geometry written to: xtbopt.xyz


           -------------------------------------------------
          | TOTAL ENERGY              -19.737193624347 Eh   |
          | TOTAL ENTHALPY            -19.642213963952 Eh   |
          | TOTAL FREE ENERGY         -19.676728645987 Eh   |
          | GRADIENT NORM               0.000316869646 Eh/α |
          | HOMO-LUMO GAP               3.442984658684 eV   |
           -------------------------------------------------

------------------------------------------------------------------------
 * finished run on 2025/10/17 at 23:09:06.968     
------------------------------------------------------------------------
 total:
 * wall-time:     0 d,  0 h,  0 min,  0.761 sec
 *  cpu-time:     0 d,  0 h,  0 min,  0.894 sec
 * ratio c/w:     1.174 speedup
 SCF:
 * wall-time:     0 d,  0 h,  0 min,  0.088 sec
 *  cpu-time:     0 d,  0 h,  0 min,  0.100 sec
 * ratio c/w:     1.139 speedup
 ANC optimizer:
 * wall-time:     0 d,  0 h,  0 min,  0.086 sec
 *  cpu-time:     0 d,  0 h,  0 min,  0.115 sec
 * ratio c/w:     1.328 speedup
 analytical hessian:
 * wall-time:     0 d,  0 h,  0 min,  0.275 sec
 *  cpu-time:     0 d,  0 h,  0 min,  0.456 sec
 * ratio c/w:     1.657 speedup

