12
 energy: -19.734822043016 gnorm: 0.032168337533 xtb: 6.7.1 (edcfbbe)
C           -3.06670216740208        1.73694560038718       -0.00001066344998
C           -3.04200667825507        0.34346525169058        0.00000095146063
H            0.30127519728873        2.31891772836055       -0.00003736573204
O           -1.87943006493464        3.82141390020846       -0.00003636347040
C           -1.83029420403238       -0.36563732120655       -0.00000133987670
H           -3.98868609584092       -0.20637053482539        0.00001193030022
C           -0.63540033467885        0.37153684752154       -0.00001492438488
H           -1.81763727523773       -1.45677998002679        0.00000739842659
C           -0.64322801500126        1.76524914676076       -0.00002663031396
H            0.32383286077545       -0.15607824761796       -0.00001694690018
C           -1.86409112844898        2.53057881977508       -0.00002567991169
H           -4.02389920378020        2.26834885398358       -0.00000836576253
12
 energy: -19.737138540113 gnorm: 0.005238648640 xtb: 6.7.1 (edcfbbe)
C           -3.05674604348517        1.72793517212961       -0.00001056896826
C           -3.03166237204194        0.35172933761698        0.00000073277532
H            0.28288545676074        2.30916543330915       -0.00003741239579
O           -1.87895198862982        3.79181474074516       -0.00003597428654
C           -1.83051688529234       -0.34589200720470       -0.00000146197092
H           -3.97091884978619       -0.19383568697154        0.00001159304193
C           -0.64598452417815        0.37959909236469       -0.00001522561643
H           -1.81791002749157       -1.42784668691534        0.00000750837143
C           -0.65303745032161        1.75602208304052       -0.00002664567671
H            0.30574545129604       -0.14389365226992       -0.00001692373624
C           -1.86384060926738        2.50772875813409       -0.00002482591577
H           -4.00532926711053        2.25906348103236       -0.00000879523695
12
 energy: -19.737189896396 gnorm: 0.001913865230 xtb: 6.7.1 (edcfbbe)
C           -3.05522049574542        1.72644460041734       -0.00001063863466
C           -3.03062606512613        0.35226538261533        0.00000065992598
H            0.27768185672466        2.31059025101187       -0.00003720923299
O           -1.87884657824508        3.78708678394267       -0.00003580738919
C           -1.83054633927225       -0.34311363116928       -0.00000145385429
H           -3.96802879352634       -0.19298687307188        0.00001153630703
C           -0.64704506351034        0.38012035668585       -0.00001516262579
H           -1.81793849953906       -1.42350990411070        0.00000761734567
C           -0.65455401481920        1.75450288071133       -0.00002650850702
H            0.30283104726993       -0.14310142577769       -0.00001710944688
C           -1.86379294511551        2.50267698043418       -0.00002526634982
H           -4.00018121864320        2.26061466332203       -0.00000865715298
12
 energy: -19.737193624238 gnorm: 0.000316317674 xtb: 6.7.1 (edcfbbe)
C           -3.05570047386427        1.72630808425773       -0.00001053399065
C           -3.03125265039638        0.35187165937229        0.00000068819282
H            0.27652412318873        2.31269683048835       -0.00003777373518
O           -1.87882210703154        3.78654791286035       -0.00003569439095
C           -1.83055006175837       -0.34272513987158       -0.00000138879706
H           -3.96801672776917       -0.19391871583950        0.00001149419586
C           -0.64640892254569        0.37974149561359       -0.00001532966414
H           -1.81793815414938       -1.42310256447373        0.00000772900569
C           -0.65408047960285        1.75437888788466       -0.00002656022943
H            0.30284316750815       -0.14403440164967       -0.00001703857386
C           -1.86378151890650        2.50107999225934       -0.00002428064283
H           -3.99908330422065        2.26274602410922       -0.00000931098518
