12
 energy: -19.737193624277 gnorm: 0.000316799333 xtb: 6.7.1 (edcfbbe)
C           -3.05569143492307        1.72632408382332       -0.00000288055980
C           -3.03125080794040        0.35188753096990        0.00001065512876
H            0.27653623228959        2.31269538251028       -0.00004277540389
O           -1.87880228082350        3.78655775022993       -0.00003574483742
C           -1.83055185622952       -0.34271555513107        0.00000559919629
H           -3.96801774300532       -0.19389793932948        0.00002568363920
C           -0.64640693426690        0.37974488017026       -0.00001373604528
H           -1.81794560542534       -1.42309304573665        0.00001655858950
C           -0.65407129378692        1.75438231256896       -0.00002733902664
H            0.30284241328119       -0.14403598736033       -0.00001784430849
C           -1.86376842334537        2.50108975091608       -0.00002214002609
H           -3.99907145647728        2.26276696320972        0.00000069921214
