
                                 *****************
                                 * O   R   C   A *
                                 *****************

                                            #,                                       
                                            ###                                      
                                            ####                                     
                                            #####                                    
                                            ######                                   
                                           ########,                                 
                                     ,,################,,,,,                         
                               ,,#################################,,                 
                          ,,##########################################,,             
                       ,#########################################, ''#####,          
                    ,#############################################,,   '####,        
                  ,##################################################,,,,####,       
                ,###########''''           ''''###############################       
              ,#####''   ,,,,##########,,,,          '''####'''          '####       
            ,##' ,,,,###########################,,,                        '##       
           ' ,,###''''                  '''############,,,                           
         ,,##''                                '''############,,,,        ,,,,,,###''
      ,#''                                            '''#######################'''  
     '                                                          ''''####''''         
             ,#######,   #######,   ,#######,      ##                                
            ,#'     '#,  ##    ##  ,#'     '#,    #''#        ######   ,####,        
            ##       ##  ##   ,#'  ##            #'  '#       #        #'  '#        
            ##       ##  #######   ##           ,######,      #####,   #    #        
            '#,     ,#'  ##    ##  '#,     ,#' ,#      #,         ##   #,  ,#        
             '#######'   ##     ##  '#######'  #'      '#     #####' # '####'        



                  #######################################################
                  #                        -***-                        #
                  #          Department of theory and spectroscopy      #
                  #    Directorship and core code : Frank Neese         #
                  #        Max Planck Institute fuer Kohlenforschung    #
                  #                Kaiser Wilhelm Platz 1               #
                  #                 D-45470 Muelheim/Ruhr               #
                  #                      Germany                        #
                  #                                                     #
                  #                  All rights reserved                #
                  #                        -***-                        #
                  #######################################################


                         Program Version 5.0.4 -  RELEASE  -


 With contributions from (in alphabetic order):
   Daniel Aravena         : Magnetic Suceptibility
   Michael Atanasov       : Ab Initio Ligand Field Theory (pilot matlab implementation)
   Alexander A. Auer      : GIAO ZORA, VPT2 properties, NMR spectrum
   Ute Becker             : Parallelization
   Giovanni Bistoni       : ED, misc. LED, open-shell LED, HFLD
   Martin Brehm           : Molecular dynamics
   Dmytro Bykov           : SCF Hessian
   Vijay G. Chilkuri      : MRCI spin determinant printing, contributions to CSF-ICE
   Dipayan Datta          : RHF DLPNO-CCSD density
   Achintya Kumar Dutta   : EOM-CC, STEOM-CC
   Dmitry Ganyushin       : Spin-Orbit,Spin-Spin,Magnetic field MRCI
   Miquel Garcia          : C-PCM and meta-GGA Hessian, CC/C-PCM, Gaussian charge scheme
   Yang Guo               : DLPNO-NEVPT2, F12-NEVPT2, CIM, IAO-localization
   Andreas Hansen         : Spin unrestricted coupled pair/coupled cluster methods
   Benjamin Helmich-Paris : MC-RPA, TRAH-SCF, COSX integrals
   Lee Huntington         : MR-EOM, pCC
   Robert Izsak           : Overlap fitted RIJCOSX, COSX-SCS-MP3, EOM
   Marcus Kettner         : VPT2
   Christian Kollmar      : KDIIS, OOCD, Brueckner-CCSD(T), CCSD density, CASPT2, CASPT2-K
   Simone Kossmann        : Meta GGA functionals, TD-DFT gradient, OOMP2, MP2 Hessian
   Martin Krupicka        : Initial AUTO-CI
   Lucas Lang             : DCDCAS
   Marvin Lechner         : AUTO-CI (C++ implementation), FIC-MRCC
   Dagmar Lenk            : GEPOL surface, SMD
   Dimitrios Liakos       : Extrapolation schemes; Compound Job, initial MDCI parallelization
   Dimitrios Manganas     : Further ROCIS development; embedding schemes
   Dimitrios Pantazis     : SARC Basis sets
   Anastasios Papadopoulos: AUTO-CI, single reference methods and gradients
   Taras Petrenko         : DFT Hessian,TD-DFT gradient, ASA, ECA, R-Raman, ABS, FL, XAS/XES, NRVS
   Peter Pinski           : DLPNO-MP2, DLPNO-MP2 Gradient
   Christoph Reimann      : Effective Core Potentials
   Marius Retegan         : Local ZFS, SOC
   Christoph Riplinger    : Optimizer, TS searches, QM/MM, DLPNO-CCSD(T), (RO)-DLPNO pert. Triples
   Tobias Risthaus        : Range-separated hybrids, TD-DFT gradient, RPA, STAB
   Michael Roemelt        : Original ROCIS implementation
   Masaaki Saitow         : Open-shell DLPNO-CCSD energy and density
   Barbara Sandhoefer     : DKH picture change effects
   Avijit Sen             : IP-ROCIS
   Kantharuban Sivalingam : CASSCF convergence, NEVPT2, FIC-MRCI
   Bernardo de Souza      : ESD, SOC TD-DFT
   Georgi Stoychev        : AutoAux, RI-MP2 NMR, DLPNO-MP2 response
   Willem Van den Heuvel  : Paramagnetic NMR
   Boris Wezisla          : Elementary symmetry handling
   Frank Wennmohs         : Technical directorship


 We gratefully acknowledge several colleagues who have allowed us to
 interface, adapt or use parts of their codes:
   Stefan Grimme, W. Hujo, H. Kruse, P. Pracht,  : VdW corrections, initial TS optimization,
                  C. Bannwarth, S. Ehlert          DFT functionals, gCP, sTDA/sTD-DF
   Ed Valeev, F. Pavosevic, A. Kumar             : LibInt (2-el integral package), F12 methods
   Garnet Chan, S. Sharma, J. Yang, R. Olivares  : DMRG
   Ulf Ekstrom                                   : XCFun DFT Library
   Mihaly Kallay                                 : mrcc  (arbitrary order and MRCC methods)
   Jiri Pittner, Ondrej Demel                    : Mk-CCSD
   Frank Weinhold                                : gennbo (NPA and NBO analysis)
   Christopher J. Cramer and Donald G. Truhlar   : smd solvation model
   Lars Goerigk                                  : TD-DFT with DH, B97 family of functionals
   V. Asgeirsson, H. Jonsson                     : NEB implementation
   FAccTs GmbH                                   : IRC, NEB, NEB-TS, DLPNO-Multilevel, CI-OPT
                                                   MM, QMMM, 2- and 3-layer-ONIOM, Crystal-QMMM,
                                                   LR-CPCM, SF, NACMEs, symmetry and pop. for TD-DFT,
                                                   nearIR, NL-DFT gradient (VV10), updates on ESD,
                                                   ML-optimized integration grids
   S Lehtola, MJT Oliveira, MAL Marques          : LibXC Library
   Liviu Ungur et al                             : ANISO software


 Your calculation uses the libint2 library for the computation of 2-el integrals
 For citations please refer to: http://libint.valeyev.net

 Your ORCA version has been built with support for libXC version: 5.1.0
 For citations please refer to: https://tddft.org/programs/libxc/

 This ORCA versions uses:
   CBLAS   interface :  Fast vector & matrix operations
   LAPACKE interface :  Fast linear algebra routines
   SCALAPACK package :  Parallel linear algebra routines
   Shared memory     :  Shared parallel matrices
   BLAS/LAPACK       :  OpenBLAS 0.3.15  USE64BITINT DYNAMIC_ARCH NO_AFFINITY Haswell SINGLE_THREADED
        Core in use  :  Haswell
   Copyright (c) 2011-2014, The OpenBLAS Project


Your calculation utilizes the atom-pairwise dispersion correction
with the Becke-Johnson damping scheme (D3BJ)
Cite in your paper:
S.Grimme, S.Ehrlich, L.Goerigk, J Comput Chem, (2011), 32, 1456–1465 
S.Grimme, J.Antony, S.Ehrlich and H.Krieg, J.Chem.Phys., 132, (2010), 154104 
   

================================================================================

----- Orbital basis set information -----
Your calculation utilizes the basis: def2-TZVP
   F. Weigend and R. Ahlrichs, Phys. Chem. Chem. Phys. 7, 3297 (2005).

----- AuxJ basis set information -----
Your calculation utilizes the auxiliary basis: def2/J
   F. Weigend, Phys. Chem. Chem. Phys. 8, 1057 (2006).

================================================================================
                                        WARNINGS
                       Please study these warnings very carefully!
================================================================================


WARNING: Geometry Optimization
  ===> : Switching off AutoStart
         For restart on a previous wavefunction, please use MOREAD

INFO   : the flag for use of the SHARK integral package has been found!

================================================================================
                                       INPUT FILE
================================================================================
NAME = inp.inp
|  1> !OPT PBE D3BJ def2-TZVP CPCM(water)
|  2> 
|  3> * xyz -1 1
|  4> O     -1.213355    4.368378   -1.357016
|  5> C     -1.478346    3.396874   -0.496545
|  6> H     -2.307236    2.712836   -0.745997
|  7> H     -0.672306    2.673214   -0.287238
|  8> H     -1.758880    3.692313    0.528740
|  9> *
| 10> 
| 11>                          ****END OF INPUT****
================================================================================

                       *****************************
                       * Geometry Optimization Run *
                       *****************************

Geometry optimization settings:
Update method            Update   .... BFGS
Choice of coordinates    CoordSys .... Z-matrix Internals
Initial Hessian          InHess   .... Almoef's Model

Convergence Tolerances:
Energy Change            TolE     ....  5.0000e-06 Eh
Max. Gradient            TolMAXG  ....  3.0000e-04 Eh/bohr
RMS Gradient             TolRMSG  ....  1.0000e-04 Eh/bohr
Max. Displacement        TolMAXD  ....  4.0000e-03 bohr
RMS Displacement         TolRMSD  ....  2.0000e-03 bohr
Strict Convergence                ....  False
------------------------------------------------------------------------------
                        ORCA OPTIMIZATION COORDINATE SETUP
------------------------------------------------------------------------------

The optimization will be done in new redundant internal coordinates
Making redundant internal coordinates   ...  (new redundants) done
Evaluating the initial hessian          ...  (Almloef) done
Evaluating the coordinates              ...  done
Calculating the B-matrix                .... done
Calculating the G-matrix                .... done
Diagonalizing the G-matrix              .... done
The first mode is                       ....    1
The number of degrees of freedom        ....    9

    -----------------------------------------------------------------
                    Redundant Internal Coordinates


    -----------------------------------------------------------------
         Definition                    Initial Value    Approx d2E/dq
    -----------------------------------------------------------------
      1. B(C   1,O   0)                  1.3246         0.711682   
      2. B(H   2,C   1)                  1.1033         0.342973   
      3. B(H   3,C   1)                  1.1033         0.342973   
      4. B(H   4,C   1)                  1.1033         0.342973   
      5. A(O   0,C   1,H   3)          117.2694         0.356074   
      6. A(H   2,C   1,H   3)          100.6678         0.286436   
      7. A(O   0,C   1,H   4)          117.2694         0.356074   
      8. A(H   2,C   1,H   4)          100.6678         0.286436   
      9. A(H   3,C   1,H   4)          100.6678         0.286436   
     10. A(O   0,C   1,H   2)          117.2694         0.356074   
    -----------------------------------------------------------------

Number of atoms                         .... 5
Number of degrees of freedom            .... 10

         *************************************************************
         *                GEOMETRY OPTIMIZATION CYCLE   1            *
         *************************************************************
---------------------------------
CARTESIAN COORDINATES (ANGSTROEM)
---------------------------------
  O     -1.213355    4.368378   -1.357016
  C     -1.478346    3.396874   -0.496545
  H     -2.307236    2.712836   -0.745997
  H     -0.672306    2.673214   -0.287238
  H     -1.758880    3.692313    0.528740

----------------------------
CARTESIAN COORDINATES (A.U.)
----------------------------
  NO LB      ZA    FRAG     MASS         X           Y           Z
   0 O     8.0000    0    15.999   -2.292909    8.255038   -2.564389
   1 C     6.0000    0    12.011   -2.793669    6.419162   -0.938334
   2 H     1.0000    0     1.008   -4.360044    5.126517   -1.409730
   3 H     1.0000    0     1.008   -1.270474    5.051642   -0.542801
   4 H     1.0000    0     1.008   -3.323802    6.977460    0.999174

--------------------------------
INTERNAL COORDINATES (ANGSTROEM)
--------------------------------
 O      0   0   0     0.000000000000     0.00000000     0.00000000
 C      1   0   0     1.324556753763     0.00000000     0.00000000
 H      2   1   0     1.103264663554   117.26940202     0.00000000
 H      2   1   3     1.103265016870   117.26939306   120.00003197
 H      2   1   3     1.103264636931   117.26935831   240.00003067

---------------------------
INTERNAL COORDINATES (A.U.)
---------------------------
 O      0   0   0     0.000000000000     0.00000000     0.00000000
 C      1   0   0     2.503049513447     0.00000000     0.00000000
 H      2   1   0     2.084868067351   117.26940202     0.00000000
 H      2   1   3     2.084868735020   117.26939306   120.00003197
 H      2   1   3     2.084868017039   117.26935831   240.00003067

---------------------
BASIS SET INFORMATION
---------------------
There are 3 groups of distinct atoms

 Group   1 Type O   : 11s6p2d1f contracted to 5s3p2d1f pattern {62111/411/11/1}
 Group   2 Type C   : 11s6p2d1f contracted to 5s3p2d1f pattern {62111/411/11/1}
 Group   3 Type H   : 5s1p contracted to 3s1p pattern {311/1}

Atom   0O    basis set group =>   1
Atom   1C    basis set group =>   2
Atom   2H    basis set group =>   3
Atom   3H    basis set group =>   3
Atom   4H    basis set group =>   3
---------------------------------
AUXILIARY/J BASIS SET INFORMATION
---------------------------------
There are 3 groups of distinct atoms

 Group   1 Type O   : 12s5p4d2f1g contracted to 6s4p3d1f1g pattern {711111/2111/211/2/1}
 Group   2 Type C   : 12s5p4d2f1g contracted to 6s4p3d1f1g pattern {711111/2111/211/2/1}
 Group   3 Type H   : 5s2p1d contracted to 3s1p1d pattern {311/2/1}

Atom   0O    basis set group =>   1
Atom   1C    basis set group =>   2
Atom   2H    basis set group =>   3
Atom   3H    basis set group =>   3
Atom   4H    basis set group =>   3
------------------------------------------------------------------------------
                           ORCA GTO INTEGRAL CALCULATION
                           -- RI-GTO INTEGRALS CHOSEN --
------------------------------------------------------------------------------
------------------------------------------------------------------------------
                   ___                                                        
                  /   \      - P O W E R E D   B Y -                         
                 /     \                                                     
                 |  |  |   _    _      __       _____    __    __             
                 |  |  |  | |  | |    /  \     |  _  \  |  |  /  |          
                  \  \/   | |  | |   /    \    | | | |  |  | /  /          
                 / \  \   | |__| |  /  /\  \   | |_| |  |  |/  /          
                |  |  |   |  __  | /  /__\  \  |    /   |      \           
                |  |  |   | |  | | |   __   |  |    \   |  |\   \          
                \     /   | |  | | |  |  |  |  | |\  \  |  | \   \       
                 \___/    |_|  |_| |__|  |__|  |_| \__\ |__|  \__/        
                                                                              
                      - O R C A' S   B I G   F R I E N D -                    
                                      &                                       
                       - I N T E G R A L  F E E D E R -                       
                                                                              
 v1 FN, 2020, v2 2021                                                         
------------------------------------------------------------------------------


Reading SHARK input file inp.SHARKINP.tmp ... ok
----------------------
SHARK INTEGRAL PACKAGE
----------------------

Number of atoms                             ...      5
Number of basis functions                   ...     80
Number of shells                            ...     34
Maximum angular momentum                    ...      3
Integral batch strategy                     ... SHARK/LIBINT Hybrid
RI-J (if used) integral strategy            ... SPLIT-RIJ (Revised 2003 algorithm where possible)
Printlevel                                  ...      1
Contraction scheme used                     ... SEGMENTED contraction
Coulomb Range Separation                    ... NOT USED
Exchange Range Separation                   ... NOT USED
Finite Nucleus Model                        ... NOT USED
Auxiliary Coulomb fitting basis             ... AVAILABLE
   # of basis functions in Aux-J            ...    131
   # of shells in Aux-J                     ...     45
   Maximum angular momentum in Aux-J        ...      4
Auxiliary J/K fitting basis                 ... NOT available
Auxiliary Correlation fitting basis         ... NOT available
Auxiliary 'external' fitting basis          ... NOT available
Integral threshold                          ...     2.500000e-11
Primitive cut-off                           ...     2.500000e-12
Primitive pair pre-selection threshold      ...     2.500000e-12

Calculating pre-screening integrals         ... done (  0.0 sec) Dimension = 34
Organizing shell pair data                  ... done (  0.0 sec)
Shell pair information
Total number of shell pairs                 ...       595
Shell pairs after pre-screening             ...       594
Total number of primitive shell pairs       ...      1764
Primitive shell pairs kept                  ...      1583
          la=0 lb=0:    189 shell pairs
          la=1 lb=0:    171 shell pairs
          la=1 lb=1:     45 shell pairs
          la=2 lb=0:     76 shell pairs
          la=2 lb=1:     36 shell pairs
          la=2 lb=2:     10 shell pairs
          la=3 lb=0:     38 shell pairs
          la=3 lb=1:     18 shell pairs
          la=3 lb=2:      8 shell pairs
          la=3 lb=3:      3 shell pairs

Calculating one electron integrals          ... done (  0.0 sec)
Calculating RI/J V-Matrix + Cholesky decomp.... done (  0.2 sec)
Calculating Nuclear repulsion               ... done (  0.0 sec) ENN=     34.861866569943 Eh

SHARK setup successfully completed in   0.9 seconds

Maximum memory used throughout the entire GTOINT-calculation: 14.3 MB
-------------------------------------------------------------------------------
                                 ORCA SCF
-------------------------------------------------------------------------------

------------
SCF SETTINGS
------------
Hamiltonian:
 Density Functional     Method          .... DFT(GTOs)
 Exchange Functional    Exchange        .... PBE
   PBE kappa parameter   XKappa         ....  0.804000
   PBE mue parameter    XMuePBE         ....  0.219520
 Correlation Functional Correlation     .... PBE
   PBE beta parameter  CBetaPBE         ....  0.066725
 LDA part of GGA corr.  LDAOpt          .... PW91-LDA
 Gradients option       PostSCFGGA      .... off
   Density functional embedding theory  .... OFF
   NL short-range parameter             ....  6.400000
 RI-approximation to the Coulomb term is turned on
   Number of AuxJ basis functions       .... 131


General Settings:
 Integral files         IntName         .... inp
 Hartree-Fock type      HFTyp           .... RHF
 Total Charge           Charge          ....   -1
 Multiplicity           Mult            ....    1
 Number of Electrons    NEL             ....   18
 Basis Dimension        Dim             ....   80
 Nuclear Repulsion      ENuc            ....     34.8618665699 Eh

Convergence Acceleration:
 DIIS                   CNVDIIS         .... on
   Start iteration      DIISMaxIt       ....    12
   Startup error        DIISStart       ....  0.200000
   # of expansion vecs  DIISMaxEq       ....     5
   Bias factor          DIISBfac        ....   1.050
   Max. coefficient     DIISMaxC        ....  10.000
 Trust-Rad. Augm. Hess. CNVTRAH         .... auto
   Auto Start mean grad. ratio tolernc. ....  1.125000
   Auto Start start iteration           ....    20
   Auto Start num. interpolation iter.  ....    10
   Max. Number of Micro iterations      ....    16
   Max. Number of Macro iterations      .... Maxiter - #DIIS iter
   Number of Davidson start vectors     ....     2
   Converg. threshold I  (grad. norm)   ....   1.000e-05
   Converg. threshold II (energy diff.) ....   1.000e-08
   Grad. Scal. Fac. for Micro threshold ....   0.100
   Minimum threshold for Micro iter.    ....   0.010
   NR start threshold (gradient norm)   ....   0.001
   Initial trust radius                 ....   0.400
   Minimum AH scaling param. (alpha)    ....   1.000
   Maximum AH scaling param. (alpha)    .... 1000.000
   Orbital update algorithm             .... Taylor
   White noise on init. David. guess    .... on
   Maximum white noise                  ....   0.010
   Quad. conv. algorithm                .... NR
 SOSCF                  CNVSOSCF        .... on
   Start iteration      SOSCFMaxIt      ....   150
   Startup grad/error   SOSCFStart      ....  0.003300
 Level Shifting         CNVShift        .... on
   Level shift para.    LevelShift      ....    0.2500
   Turn off err/grad.   ShiftErr        ....    0.0010
 Zerner damping         CNVZerner       .... off
 Static damping         CNVDamp         .... on
   Fraction old density DampFac         ....    0.7000
   Max. Damping (<1)    DampMax         ....    0.9800
   Min. Damping (>=0)   DampMin         ....    0.0000
   Turn off err/grad.   DampErr         ....    0.1000
 Fernandez-Rico         CNVRico         .... off

SCF Procedure:
 Maximum # iterations   MaxIter         ....   125
 SCF integral mode      SCFMode         .... Direct
   Integral package                     .... SHARK and LIBINT hybrid scheme
 Reset frequency        DirectResetFreq ....    20
 Integral Threshold     Thresh          ....  2.500e-11 Eh
 Primitive CutOff       TCut            ....  2.500e-12 Eh

Convergence Tolerance:
 Convergence Check Mode ConvCheckMode   .... Total+1el-Energy
 Convergence forced     ConvForced      .... 0
 Energy Change          TolE            ....  1.000e-08 Eh
 1-El. energy change                    ....  1.000e-05 Eh
 Orbital Gradient       TolG            ....  1.000e-05
 Orbital Rotation angle TolX            ....  1.000e-05
 DIIS Error             TolErr          ....  5.000e-07


Diagonalization of the overlap matrix:
Smallest eigenvalue                        ... 1.654e-03
Time for diagonalization                   ...    0.002 sec
Threshold for overlap eigenvalues          ... 1.000e-08
Number of eigenvalues below threshold      ... 0
Time for construction of square roots      ...    0.089 sec
Total time needed                          ...    0.091 sec

Time for model grid setup =    0.096 sec

------------------------------
INITIAL GUESS: MODEL POTENTIAL
------------------------------
Loading Hartree-Fock densities                     ... done
Calculating cut-offs                               ... done
Initializing the effective Hamiltonian             ... done
Setting up the integral package (SHARK)            ... done
Starting the Coulomb interaction                   ... done (   0.2 sec)
Reading the grid                                   ... done
Mapping shells                                     ... done
Starting the XC term evaluation                    ... done (   0.0 sec)
  promolecular density results
     # of electrons  =     16.998510376
     EX              =    -14.092983311
     EC              =     -0.541531706
     EX+EC           =    -14.634515017
Transforming the Hamiltonian                       ... done (   0.0 sec)
Diagonalizing the Hamiltonian                      ... done (   0.0 sec)
Back transforming the eigenvectors                 ... done (   0.0 sec)
Now organizing SCF variables                       ... done
                      ------------------
                      INITIAL GUESS DONE (   0.4 sec)
                      ------------------
-------------------
DFT GRID GENERATION
-------------------

General Integration Accuracy     IntAcc      ... 4.388
Radial Grid Type                 RadialGrid  ... OptM3 with GC (2021)
Angular Grid (max. ang.)         AngularGrid ... 4 (Lebedev-302)
Angular grid pruning method      GridPruning ... 4 (adaptive)
Weight generation scheme         WeightScheme... Becke
Basis function cutoff            BFCut       ... 1.0000e-11
Integration weight cutoff        WCut        ... 1.0000e-14
Angular grids for H and He will be reduced by one unit
Partially contracted basis set               ... off
Rotationally invariant grid construction     ... off

Total number of grid points                  ...    22088
Total number of batches                      ...      348
Average number of points per batch           ...       63
Average number of grid points per atom       ...     4418
Time for grid setup =    0.275 sec


--------------------
CPCM SOLVATION MODEL
--------------------
CPCM parameters:
  Epsilon                                         ...      80.4000
  Refrac                                          ...       1.3300
  Rsolv                                           ...       1.3000
  Surface type                                    ... GAUSSIAN VDW
  Epsilon function type                           ...         CPCM
Radii:
 Radius for O  used is    3.4469 Bohr (=   1.8240 Ang.)
 Radius for C  used is    3.8550 Bohr (=   2.0400 Ang.)
 Radius for H  used is    2.4944 Bohr (=   1.3200 Ang.)
Calculating surface                               ...        done! (  0.0s)
GEPOL surface points                              ...          346
GEPOL Volume                                      ...     329.3814
GEPOL Surface-area                                ...     242.6938
Calculating surface distance matrix               ...        done! (  0.0s)
Performing Cholesky decomposition & store         ...        done! (  0.1s)
Overall time for CPCM initialization              ...                 0.1s
--------------
SCF ITERATIONS
--------------
ITER       Energy         Delta-E        Max-DP      RMS-DP      [F,P]     Damp
               ***  Starting incremental Fock matrix formation  ***
  0   -114.8986323351   0.000000000000 0.14461546  0.00689044  0.4008981 0.7000
  1   -115.0156802360  -0.117047900890 0.12477160  0.00491250  0.1122327 0.7000
                               ***Turning on DIIS***
  2   -115.0436152183  -0.027934982232 0.11777652  0.00530497  0.0235852 0.0000
  3   -115.1111165296  -0.067501311364 0.11023291  0.00404381  0.0611785 0.0000
  4   -115.1189433034  -0.007826773785 0.03011452  0.00112606  0.0405448 0.0000
  5   -115.1210232879  -0.002079984542 0.01275657  0.00044681  0.0047841 0.0000
                      *** Initiating the SOSCF procedure ***
                           *** Shutting down DIIS ***
                      *** Re-Reading the Fockian *** 
                      *** Removing any level shift *** 
ITER      Energy       Delta-E        Grad      Rot      Max-DP    RMS-DP
  6   -115.12110073  -0.0000774411  0.000643  0.000643  0.004709  0.000170
               *** Restarting incremental Fock matrix formation ***
  7   -115.12111265  -0.0000119190  0.000238  0.000545  0.003150  0.000112
  8   -115.12111318  -0.0000005273  0.000246  0.000417  0.002011  0.000072
  9   -115.12111335  -0.0000001718  0.000119  0.000347  0.001735  0.000061
 10   -115.12111361  -0.0000002648  0.000028  0.000041  0.000132  0.000004
 11   -115.12111362  -0.0000000037  0.000024  0.000022  0.000054  0.000003
 12   -115.12111362  -0.0000000064  0.000006  0.000006  0.000018  0.000001
 13   -115.12111362  -0.0000000010  0.000004  0.000003  0.000004  0.000000
                 **** Energy Check signals convergence ****
              ***Rediagonalizing the Fockian in SOSCF/NRSCF***

               *****************************************************
               *                     SUCCESS                       *
               *           SCF CONVERGED AFTER  14 CYCLES          *
               *****************************************************


----------------
TOTAL SCF ENERGY
----------------

Total Energy       :         -115.12111362 Eh           -3132.60476 eV

Components:
Nuclear Repulsion  :           34.86186657 Eh             948.63962 eV
Electronic Energy  :         -149.98298019 Eh           -4081.24438 eV
One Electron Energy:         -231.01009692 Eh           -6286.10432 eV
Two Electron Energy:           81.02711673 Eh            2204.85994 eV
CPCM Dielectric    :           -0.12029665 Eh              -3.27344 eV

Virial components:
Potential Energy   :         -229.93814795 Eh           -6256.93510 eV
Kinetic Energy     :          114.81703433 Eh            3124.33034 eV
Virial Ratio       :            2.00264838


DFT components:
N(Alpha)           :        9.000008570202 electrons
N(Beta)            :        9.000008570202 electrons
N(Total)           :       18.000017140403 electrons
E(X)               :      -14.677118425327 Eh       
E(C)               :       -0.579224821559 Eh       
E(XC)              :      -15.256343246886 Eh       
DFET-embed. en.    :        0.000000000000 Eh       
CPCM Solvation Model Properties:
Surface-charge          :            0.96746600
Charge-correction       :           -0.00681245 Eh              -0.18538 eV
Free-energy (cav+disp)  :  This term is not implemented in the current solvation scheme

---------------
SCF CONVERGENCE
---------------

  Last Energy change         ...    6.3301e-10  Tolerance :   1.0000e-08
  Last MAX-Density change    ...    2.2029e-06  Tolerance :   1.0000e-07
  Last RMS-Density change    ...    8.0481e-08  Tolerance :   5.0000e-09
  Last Orbital Gradient      ...    2.0141e-07  Tolerance :   1.0000e-05
  Last Orbital Rotation      ...    3.7337e-07  Tolerance :   1.0000e-05

             **** THE GBW FILE WAS UPDATED (inp.gbw) ****
             **** DENSITY inp.scfp WAS UPDATED ****
             **** ENERGY FILE WAS UPDATED (inp.en.tmp) ****
             **** THE GBW FILE WAS UPDATED (inp.gbw) ****
             **** DENSITY inp.scfp WAS UPDATED ****
----------------
ORBITAL ENERGIES
----------------

  NO   OCC          E(Eh)            E(eV) 
   0   2.0000     -18.604865      -506.2641 
   1   2.0000      -9.859594      -268.2932 
   2   2.0000      -0.798971       -21.7411 
   3   2.0000      -0.529460       -14.4073 
   4   2.0000      -0.325087        -8.8461 
   5   2.0000      -0.325073        -8.8457 
   6   2.0000      -0.279849        -7.6151 
   7   2.0000      -0.119611        -3.2548 
   8   2.0000      -0.119590        -3.2542 
   9   0.0000       0.051532         1.4023 
  10   0.0000       0.105209         2.8629 
  11   0.0000       0.128381         3.4934 
  12   0.0000       0.128412         3.4943 
  13   0.0000       0.218976         5.9586 
  14   0.0000       0.219113         5.9624 
  15   0.0000       0.343525         9.3478 
  16   0.0000       0.385062        10.4781 
  17   0.0000       0.428893        11.6708 
  18   0.0000       0.428932        11.6718 
  19   0.0000       0.434897        11.8341 
  20   0.0000       0.513234        13.9658 
  21   0.0000       0.526017        14.3136 
  22   0.0000       0.526054        14.3147 
  23   0.0000       0.690349        18.7853 
  24   0.0000       0.690389        18.7864 
  25   0.0000       0.769367        20.9355 
  26   0.0000       0.926263        25.2049 
  27   0.0000       0.926310        25.2062 
  28   0.0000       1.034108        28.1395 
  29   0.0000       1.380241        37.5583 
  30   0.0000       1.380260        37.5588 
  31   0.0000       1.436210        39.0813 
  32   0.0000       1.547908        42.1207 
  33   0.0000       1.597616        43.4733 
  34   0.0000       1.597622        43.4735 
  35   0.0000       1.601331        43.5744 
  36   0.0000       1.660456        45.1833 
  37   0.0000       1.660463        45.1835 
  38   0.0000       1.959010        53.3074 
  39   0.0000       1.980749        53.8989 
  40   0.0000       1.980776        53.8997 
  41   0.0000       2.049726        55.7759 
  42   0.0000       2.234394        60.8009 
  43   0.0000       2.234403        60.8012 
  44   0.0000       2.294627        62.4400 
  45   0.0000       2.417850        65.7930 
  46   0.0000       2.417870        65.7936 
  47   0.0000       2.531369        68.8820 
  48   0.0000       2.531376        68.8823 
  49   0.0000       2.760437        75.1153 
  50   0.0000       2.760463        75.1160 
  51   0.0000       2.848086        77.5004 
  52   0.0000       2.912118        79.2428 
  53   0.0000       2.986023        81.2538 
  54   0.0000       2.986031        81.2540 
  55   0.0000       3.074784        83.6691 
  56   0.0000       3.147970        85.6606 
  57   0.0000       3.429571        93.3234 
  58   0.0000       3.429584        93.3237 
  59   0.0000       3.490067        94.9695 
  60   0.0000       3.574113        97.2566 
  61   0.0000       3.574133        97.2571 
  62   0.0000       4.096621       111.4747 
  63   0.0000       4.096623       111.4748 
  64   0.0000       4.152788       113.0031 
  65   0.0000       4.330707       117.8445 
  66   0.0000       5.165027       140.5475 
  67   0.0000       5.179976       140.9543 
  68   0.0000       5.427061       147.6778 
  69   0.0000       5.427065       147.6780 
  70   0.0000       5.884327       160.1207 
  71   0.0000       5.884346       160.1212 
  72   0.0000       5.990686       163.0148 
  73   0.0000       6.327118       172.1696 
  74   0.0000       6.327157       172.1707 
  75   0.0000       6.734428       183.2531 
  76   0.0000       6.734439       183.2534 
  77   0.0000       6.910507       188.0445 
  78   0.0000      22.278709       606.2345 
  79   0.0000      43.215710      1175.9593 

                    ********************************
                    * MULLIKEN POPULATION ANALYSIS *
                    ********************************

-----------------------
MULLIKEN ATOMIC CHARGES
-----------------------
   0 O :   -0.856218
   1 C :   -0.163927
   2 H :    0.006846
   3 H :    0.006596
   4 H :    0.006703
Sum of atomic charges:   -1.0000000

--------------------------------
MULLIKEN REDUCED ORBITAL CHARGES
--------------------------------
  0 O s       :     3.827544  s :     3.827544
      pz      :     1.627316  p :     5.004005
      px      :     1.802502
      py      :     1.574187
      dz2     :     0.004586  d :     0.023300
      dxz     :     0.002782
      dyz     :     0.008163
      dx2y2   :     0.003892
      dxy     :     0.003876
      f0      :     0.000156  f :     0.001368
      f+1     :     0.000055
      f-1     :     0.000350
      f+2     :     0.000312
      f-2     :     0.000253
      f+3     :     0.000128
      f-3     :     0.000115
  1 C s       :     3.205658  s :     3.205658
      pz      :     0.914154  p :     2.820956
      px      :     1.026474
      py      :     0.880328
      dz2     :     0.044523  d :     0.128997
      dxz     :     0.018796
      dyz     :     0.013856
      dx2y2   :     0.014855
      dxy     :     0.036967
      f0      :     0.000925  f :     0.008317
      f+1     :     0.000311
      f-1     :     0.002446
      f+2     :     0.001115
      f-2     :     0.001808
      f+3     :     0.000563
      f-3     :     0.001150
  2 H s       :     0.973114  s :     0.973114
      pz      :     0.004363  p :     0.020040
      px      :     0.008494
      py      :     0.007184
  3 H s       :     0.973355  s :     0.973355
      pz      :     0.004777  p :     0.020049
      px      :     0.007772
      py      :     0.007500
  4 H s       :     0.973250  s :     0.973250
      pz      :     0.010399  p :     0.020047
      px      :     0.005455
      py      :     0.004193


                     *******************************
                     * LOEWDIN POPULATION ANALYSIS *
                     *******************************

----------------------
LOEWDIN ATOMIC CHARGES
----------------------
   0 O :   -0.477955
   1 C :   -0.647552
   2 H :    0.041859
   3 H :    0.041807
   4 H :    0.041841

-------------------------------
LOEWDIN REDUCED ORBITAL CHARGES
-------------------------------
  0 O s       :     3.483895  s :     3.483895
      pz      :     1.619444  p :     4.927868
      px      :     1.719295
      py      :     1.589129
      dz2     :     0.013597  d :     0.061513
      dxz     :     0.007891
      dyz     :     0.018871
      dx2y2   :     0.010124
      dxy     :     0.011029
      f0      :     0.000559  f :     0.004679
      f+1     :     0.000196
      f-1     :     0.001187
      f+2     :     0.001000
      f-2     :     0.000884
      f+3     :     0.000471
      f-3     :     0.000381
  1 C s       :     2.860236  s :     2.860236
      pz      :     1.023900  p :     3.109893
      px      :     1.078669
      py      :     1.007324
      dz2     :     0.193236  d :     0.607594
      dxz     :     0.073330
      dyz     :     0.098456
      dx2y2   :     0.055621
      dxy     :     0.186951
      f0      :     0.007844  f :     0.069829
      f+1     :     0.005247
      f-1     :     0.017510
      f+2     :     0.011867
      f-2     :     0.012386
      f+3     :     0.005160
      f-3     :     0.009814
  2 H s       :     0.898176  s :     0.898176
      pz      :     0.012613  p :     0.059964
      px      :     0.026294
      py      :     0.021057
  3 H s       :     0.898230  s :     0.898230
      pz      :     0.013211  p :     0.059963
      px      :     0.024646
      py      :     0.022105
  4 H s       :     0.898197  s :     0.898197
      pz      :     0.032187  p :     0.059962
      px      :     0.015479
      py      :     0.012297


                      *****************************
                      * MAYER POPULATION ANALYSIS *
                      *****************************

  NA   - Mulliken gross atomic population
  ZA   - Total nuclear charge
  QA   - Mulliken gross atomic charge
  VA   - Mayer's total valence
  BVA  - Mayer's bonded valence
  FA   - Mayer's free valence

  ATOM       NA         ZA         QA         VA         BVA        FA
  0 O      8.8562     8.0000    -0.8562     1.4719     1.4719    -0.0000
  1 C      6.1639     6.0000    -0.1639     4.2115     4.2115     0.0000
  2 H      0.9932     1.0000     0.0068     0.8987     0.8987    -0.0000
  3 H      0.9934     1.0000     0.0066     0.8987     0.8987     0.0000
  4 H      0.9933     1.0000     0.0067     0.8987     0.8987     0.0000

  Mayer bond orders larger than 0.100000
B(  0-O ,  1-C ) :   1.4196 B(  1-C ,  2-H ) :   0.9306 B(  1-C ,  3-H ) :   0.9306 
B(  1-C ,  4-H ) :   0.9307 

-------
TIMINGS
-------

Total SCF time: 0 days 0 hours 0 min 11 sec 

Total time                  ....      11.306 sec
Sum of individual times     ....       9.463 sec  ( 83.7%)

Fock matrix formation       ....       8.301 sec  ( 73.4%)
  Split-RI-J                ....       0.357 sec  (  4.3% of F)
  XC integration            ....       4.288 sec  ( 51.7% of F)
    Basis function eval.    ....       0.789 sec  ( 18.4% of XC)
    Density eval.           ....       0.418 sec  (  9.8% of XC)
    XC-Functional eval.     ....       0.295 sec  (  6.9% of XC)
    XC-Potential eval.      ....       0.489 sec  ( 11.4% of XC)
Diagonalization             ....       0.008 sec  (  0.1%)
Density matrix formation    ....       0.001 sec  (  0.0%)
Population analysis         ....       0.030 sec  (  0.3%)
Initial guess               ....       0.280 sec  (  2.5%)
Orbital Transformation      ....       0.000 sec  (  0.0%)
Orbital Orthonormalization  ....       0.000 sec  (  0.0%)
DIIS solution               ....       0.198 sec  (  1.8%)
SOSCF solution              ....       0.273 sec  (  2.4%)
Grid generation             ....       0.372 sec  (  3.3%)

Maximum memory used throughout the entire SCF-calculation: 17.7 MB


-------------------------------------------------------------------------------
                          DFT DISPERSION CORRECTION                            
                                                                               
                              DFTD3 V3.1  Rev 1                                
                          USING Becke-Johnson damping                          
-------------------------------------------------------------------------------
The PBE functional is recognized
Active option DFTDOPT                   ...         4   

molecular C6(AA) [au] = 171.012548 


            DFT-D V3
 parameters
 s6 scaling factor         :     1.0000 
 a1 scaling factor         :     0.4289 
 s8 scaling factor         :     0.7875 
 a2 scaling factor         :     4.4407 
 ad hoc parameters k1-k3   :    16.0000     1.3333    -4.0000 

 Edisp/kcal,au: -0.921117997102  -0.001467894808 
 E6   /kcal   :  -0.678930641 
 E8   /kcal   :  -0.242187356 
 % E8         :  26.292761263 

-------------------------   ----------------
Dispersion correction           -0.001467895
-------------------------   ----------------


-------------------------   --------------------
FINAL SINGLE POINT ENERGY      -115.122581517226
-------------------------   --------------------

------------------------------------------------------------------------------
                         ORCA SCF GRADIENT CALCULATION
------------------------------------------------------------------------------

Gradient of the Kohn-Sham DFT energy:
Kohn-Sham wavefunction type      ... RKS
Hartree-Fock exchange scaling    ...    0.000
Number of operators              ...    1
Number of atoms                  ...    5
Basis set dimensions             ...   80
Integral neglect threshold       ... 2.5e-11
Integral primitive cutoff        ... 2.5e-12
SHARK Integral package           ... ON

Nuc. rep. gradient       (SHARK) ... done (  0.0 sec)
HCore & Overlap gradient (SHARK) ... done (  0.0 sec)
RI-J gradient            (SHARK) ... done (  0.2 sec)
Exchange-correlation gradient    ... done
Dispersion correction            ... done

------------------
CARTESIAN GRADIENT
------------------

   1   O   :   -0.006088338   -0.021957274    0.019198101
   2   C   :    0.002541201    0.009081604   -0.007748271
   3   H   :    0.016454613    0.010884479    0.008314654
   4   H   :   -0.017893369    0.011709000   -0.001313341
   5   H   :    0.004985893   -0.009717809   -0.018451143

Difference to translation invariance:
           :   -0.0000000000    0.0000000000   -0.0000000000

Difference to rotation invariance:
           :   -0.0003835714    0.0003552640    0.0001365609

Norm of the cartesian gradient     ...    0.0491306749
RMS gradient                       ...    0.0126854857
MAX gradient                       ...    0.0219572744

-------
TIMINGS
-------

Total SCF gradient time            ...        1.077 sec

One electron gradient       ....       0.017 sec  (  1.6%)
RI-J Coulomb gradient       ....       0.155 sec  ( 14.4%)
XC gradient                 ....       0.627 sec  ( 58.2%)
CPCM gradient               ....       0.073 sec  (  6.8%)
   A-Matrix (El+Nuc)        ....       0.007 sec  (  0.6%)
   Potential                ....       0.067 sec  (  6.2%)

Maximum memory used throughout the entire SCFGRAD-calculation: 32.7 MB
------------------------------------------------------------------------------
                         ORCA GEOMETRY RELAXATION STEP
------------------------------------------------------------------------------

Reading the OPT-File                    .... done
Getting information on internals        .... done
Copying old internal coords+grads       .... done
Making the new internal coordinates     .... (new redundants).... done
Validating the new internal coordinates .... (new redundants).... done
Calculating the B-matrix                .... done
Calculating the G,G- and P matrices     .... done
Transforming gradient to internals      .... done
Projecting the internal gradient        .... done
Number of atoms                         ....   5
Number of internal coordinates          ....  10
Current Energy                          ....  -115.122581517 Eh
Current gradient norm                   ....     0.049130675 Eh/bohr
Maximum allowed component of the step   ....  0.300
Current trust radius                    ....  0.300
Evaluating the initial hessian          ....  (Almloef) done
Projecting the Hessian                  .... done
Forming the augmented Hessian           .... done
Diagonalizing the augmented Hessian     .... done
Last element of RFO vector              ....  0.993299725
Lowest eigenvalues of augmented Hessian:
 -0.005325123  0.286435826  0.286435862  0.314044589  0.342972918
Length of the computed step             ....  0.116346222
The final length of the internal step   ....  0.116346222
Converting the step to cartesian space:
 Initial RMS(Int)=    0.0367919060
Transforming coordinates:
 Iter   0:  RMS(Cart)=    0.0306603991 RMS(Int)=    0.0367739351
 Iter   1:  RMS(Cart)=    0.0002211074 RMS(Int)=    0.0002985443
 Iter   2:  RMS(Cart)=    0.0000074610 RMS(Int)=    0.0000107929
 Iter   3:  RMS(Cart)=    0.0000002439 RMS(Int)=    0.0000003557
 Iter   4:  RMS(Cart)=    0.0000000079 RMS(Int)=    0.0000000115
done
Storing new coordinates                 .... done

                                .--------------------.
          ----------------------|Geometry convergence|-------------------------
          Item                value                   Tolerance       Converged
          ---------------------------------------------------------------------
          RMS gradient        0.0151751152            0.0001000000      NO
          MAX gradient        0.0297943772            0.0003000000      NO
          RMS step            0.0367919060            0.0020000000      NO
          MAX step            0.0603377382            0.0040000000      NO
          ........................................................
          Max(Bonds)      0.0319      Max(Angles)    0.78
          Max(Dihed)        0.00      Max(Improp)    0.00
          ---------------------------------------------------------------------

The optimization has not yet converged - more geometry cycles are needed


    ---------------------------------------------------------------------------
                         Redundant Internal Coordinates
                            (Angstroem and degrees)

        Definition                    Value    dE/dq     Step     New-Value
    ----------------------------------------------------------------------------
     1. B(C   1,O   0)                1.3246 -0.029794  0.0220    1.3465   
     2. B(H   2,C   1)                1.1033 -0.020993  0.0319    1.1352   
     3. B(H   3,C   1)                1.1033 -0.021001  0.0319    1.1352   
     4. B(H   4,C   1)                1.1033 -0.021016  0.0319    1.1352   
     5. A(O   0,C   1,H   3)          117.27  0.003511   -0.63    116.64   
     6. A(H   2,C   1,H   3)          100.67 -0.004349    0.78    101.45   
     7. A(O   0,C   1,H   4)          117.27  0.003626   -0.65    116.62   
     8. A(H   2,C   1,H   4)          100.67 -0.004285    0.77    101.44   
     9. A(H   3,C   1,H   4)          100.67 -0.004285    0.77    101.44   
    10. A(O   0,C   1,H   2)          117.27  0.003255   -0.59    116.68   
    ----------------------------------------------------------------------------

         *************************************************************
         *                GEOMETRY OPTIMIZATION CYCLE   2            *
         *************************************************************
---------------------------------
CARTESIAN COORDINATES (ANGSTROEM)
---------------------------------
  O     -1.209264    4.382986   -1.369661
  C     -1.478878    3.395118   -0.495241
  H     -2.333732    2.697537   -0.762064
  H     -0.642010    2.656772   -0.287599
  H     -1.766239    3.711202    0.556510

----------------------------
CARTESIAN COORDINATES (A.U.)
----------------------------
  NO LB      ZA    FRAG     MASS         X           Y           Z
   0 O     8.0000    0    15.999   -2.285178    8.282644   -2.588285
   1 C     6.0000    0    12.011   -2.794674    6.415843   -0.935870
   2 H     1.0000    0     1.008   -4.410114    5.097606   -1.440093
   3 H     1.0000    0     1.008   -1.213224    5.020571   -0.543483
   4 H     1.0000    0     1.008   -3.337708    7.013155    1.051651

--------------------------------
INTERNAL COORDINATES (ANGSTROEM)
--------------------------------
 O      0   0   0     0.000000000000     0.00000000     0.00000000
 C      1   0   0     1.346546082176     0.00000000     0.00000000
 H      2   1   0     1.135160295899   116.67811431     0.00000000
 H      2   1   3     1.135172890593   116.63758532   120.03432935
 H      2   1   3     1.135193992954   116.61924107   239.99949331

---------------------------
INTERNAL COORDINATES (A.U.)
---------------------------
 O      0   0   0     0.000000000000     0.00000000     0.00000000
 C      1   0   0     2.544603322017     0.00000000     0.00000000
 H      2   1   0     2.145142077350   116.67811431     0.00000000
 H      2   1   3     2.145165877873   116.63758532   120.03432935
 H      2   1   3     2.145205755556   116.61924107   239.99949331

------------------------------------------------------------------------------
                   ___                                                        
                  /   \      - P O W E R E D   B Y -                         
                 /     \                                                     
                 |  |  |   _    _      __       _____    __    __             
                 |  |  |  | |  | |    /  \     |  _  \  |  |  /  |          
                  \  \/   | |  | |   /    \    | | | |  |  | /  /          
                 / \  \   | |__| |  /  /\  \   | |_| |  |  |/  /          
                |  |  |   |  __  | /  /__\  \  |    /   |      \           
                |  |  |   | |  | | |   __   |  |    \   |  |\   \          
                \     /   | |  | | |  |  |  |  | |\  \  |  | \   \       
                 \___/    |_|  |_| |__|  |__|  |_| \__\ |__|  \__/        
                                                                              
                      - O R C A' S   B I G   F R I E N D -                    
                                      &                                       
                       - I N T E G R A L  F E E D E R -                       
                                                                              
 v1 FN, 2020, v2 2021                                                         
------------------------------------------------------------------------------


Reading SHARK input file inp.SHARKINP.tmp ... ok
----------------------
SHARK INTEGRAL PACKAGE
----------------------

Number of atoms                             ...      5
Number of basis functions                   ...     80
Number of shells                            ...     34
Maximum angular momentum                    ...      3
Integral batch strategy                     ... SHARK/LIBINT Hybrid
RI-J (if used) integral strategy            ... SPLIT-RIJ (Revised 2003 algorithm where possible)
Printlevel                                  ...      1
Contraction scheme used                     ... SEGMENTED contraction
Coulomb Range Separation                    ... NOT USED
Exchange Range Separation                   ... NOT USED
Finite Nucleus Model                        ... NOT USED
Auxiliary Coulomb fitting basis             ... AVAILABLE
   # of basis functions in Aux-J            ...    131
   # of shells in Aux-J                     ...     45
   Maximum angular momentum in Aux-J        ...      4
Auxiliary J/K fitting basis                 ... NOT available
Auxiliary Correlation fitting basis         ... NOT available
Auxiliary 'external' fitting basis          ... NOT available
Integral threshold                          ...     2.500000e-11
Primitive cut-off                           ...     2.500000e-12
Primitive pair pre-selection threshold      ...     2.500000e-12

Calculating pre-screening integrals         ... done (  0.0 sec) Dimension = 34
Organizing shell pair data                  ... done (  0.0 sec)
Shell pair information
Total number of shell pairs                 ...       595
Shell pairs after pre-screening             ...       594
Total number of primitive shell pairs       ...      1764
Primitive shell pairs kept                  ...      1576
          la=0 lb=0:    189 shell pairs
          la=1 lb=0:    171 shell pairs
          la=1 lb=1:     45 shell pairs
          la=2 lb=0:     76 shell pairs
          la=2 lb=1:     36 shell pairs
          la=2 lb=2:     10 shell pairs
          la=3 lb=0:     38 shell pairs
          la=3 lb=1:     18 shell pairs
          la=3 lb=2:      8 shell pairs
          la=3 lb=3:      3 shell pairs

Calculating one electron integrals          ... done (  0.0 sec)
Calculating RI/J V-Matrix + Cholesky decomp.... done (  0.0 sec)
Calculating Nuclear repulsion               ... done (  0.0 sec) ENN=     34.162865074665 Eh

SHARK setup successfully completed in   0.3 seconds

Maximum memory used throughout the entire GTOINT-calculation: 14.3 MB

Diagonalization of the overlap matrix:
Smallest eigenvalue                        ... 1.880e-03
Time for diagonalization                   ...    0.001 sec
Threshold for overlap eigenvalues          ... 1.000e-08
Number of eigenvalues below threshold      ... 0
Time for construction of square roots      ...    0.088 sec
Total time needed                          ...    0.089 sec

-------------------
DFT GRID GENERATION
-------------------

General Integration Accuracy     IntAcc      ... 4.388
Radial Grid Type                 RadialGrid  ... OptM3 with GC (2021)
Angular Grid (max. ang.)         AngularGrid ... 4 (Lebedev-302)
Angular grid pruning method      GridPruning ... 4 (adaptive)
Weight generation scheme         WeightScheme... Becke
Basis function cutoff            BFCut       ... 1.0000e-11
Integration weight cutoff        WCut        ... 1.0000e-14
Angular grids for H and He will be reduced by one unit
Partially contracted basis set               ... off
Rotationally invariant grid construction     ... off

Total number of grid points                  ...    22096
Total number of batches                      ...      347
Average number of points per batch           ...       63
Average number of grid points per atom       ...     4419
Time for grid setup =    0.154 sec


--------------------
CPCM SOLVATION MODEL
--------------------
CPCM parameters:
  Epsilon                                         ...      80.4000
  Refrac                                          ...       1.3300
  Rsolv                                           ...       1.3000
  Surface type                                    ... GAUSSIAN VDW
  Epsilon function type                           ...         CPCM
Radii:
 Radius for O  used is    3.4469 Bohr (=   1.8240 Ang.)
 Radius for C  used is    3.8550 Bohr (=   2.0400 Ang.)
 Radius for H  used is    2.4944 Bohr (=   1.3200 Ang.)
Calculating surface                               ...        done! (  0.0s)
GEPOL surface points                              ...          350
GEPOL Volume                                      ...     333.8432
GEPOL Surface-area                                ...     245.8905
Calculating surface distance matrix               ...        done! (  0.0s)
Performing Cholesky decomposition & store         ...        done! (  0.0s)
Overall time for CPCM initialization              ...                 0.0s
--------------
SCF ITERATIONS
--------------
ITER       Energy         Delta-E        Max-DP      RMS-DP      [F,P]     Damp
               ***  Starting incremental Fock matrix formation  ***
  0   -115.1235883106   0.000000000000 0.00394420  0.00012988  0.0099527 0.7000
                      *** Initiating the SOSCF procedure ***
                      *** Re-Reading the Fockian *** 
                      *** Removing any level shift *** 
ITER      Energy       Delta-E        Grad      Rot      Max-DP    RMS-DP
  1   -115.12375497  -0.0001666555  0.001246  0.001246  0.010737  0.000418
               *** Restarting incremental Fock matrix formation ***
  2   -115.12407447  -0.0003195000  0.001544  0.002939  0.009607  0.000343
  3   -115.12402895   0.0000455122  0.002344  0.001911  0.003671  0.000147
  4   -115.12410914  -0.0000801901  0.000068  0.000081  0.000211  0.000010
  5   -115.12410922  -0.0000000741  0.000045  0.000049  0.000175  0.000007
  6   -115.12410924  -0.0000000210  0.000047  0.000038  0.000066  0.000004
  7   -115.12410925  -0.0000000084  0.000021  0.000018  0.000023  0.000002
  8   -115.12410926  -0.0000000096  0.000003  0.000002  0.000006  0.000000
                 **** Energy Check signals convergence ****
              ***Rediagonalizing the Fockian in SOSCF/NRSCF***

               *****************************************************
               *                     SUCCESS                       *
               *           SCF CONVERGED AFTER   9 CYCLES          *
               *****************************************************

Total Energy       :         -115.12410926 Eh           -3132.68628 eV
  Last Energy change         ...    3.2837e-10  Tolerance :   1.0000e-08
  Last MAX-Density change    ...    6.8502e-07  Tolerance :   1.0000e-07
             **** THE GBW FILE WAS UPDATED (inp.gbw) ****
             **** DENSITY inp.scfp WAS UPDATED ****
             **** ENERGY FILE WAS UPDATED (inp.en.tmp) ****
             **** THE GBW FILE WAS UPDATED (inp.gbw) ****
             **** DENSITY inp.scfp WAS UPDATED ****
Total SCF time: 0 days 0 hours 0 min 6 sec 

Maximum memory used throughout the entire SCF-calculation: 17.6 MB


-------------------------------------------------------------------------------
                          DFT DISPERSION CORRECTION                            
                                                                               
                              DFTD3 V3.1  Rev 1                                
                          USING Becke-Johnson damping                          
-------------------------------------------------------------------------------
-------------------------   ----------------
Dispersion correction           -0.001465069
-------------------------   ----------------


-------------------------   --------------------
FINAL SINGLE POINT ENERGY      -115.125574325710
-------------------------   --------------------

------------------------------------------------------------------------------
                         ORCA SCF GRADIENT CALCULATION
------------------------------------------------------------------------------

Gradient of the Kohn-Sham DFT energy:
Kohn-Sham wavefunction type      ... RKS
Hartree-Fock exchange scaling    ...    0.000
Number of operators              ...    1
Number of atoms                  ...    5
Basis set dimensions             ...   80
Integral neglect threshold       ... 2.5e-11
Integral primitive cutoff        ... 2.5e-12
SHARK Integral package           ... ON

Nuc. rep. gradient       (SHARK) ... done (  0.0 sec)
HCore & Overlap gradient (SHARK) ... done (  0.0 sec)
RI-J gradient            (SHARK) ... done (  0.2 sec)
Exchange-correlation gradient    ... done
Dispersion correction            ... done

------------------
CARTESIAN GRADIENT
------------------

   1   O   :   -0.001397847   -0.004853438    0.004142207
   2   C   :    0.002120607    0.007650849   -0.006665480
   3   H   :    0.001797443   -0.000074465    0.002493943
   4   H   :   -0.002817504    0.000064922    0.001176463
   5   H   :    0.000297301   -0.002787868   -0.001147134

Difference to translation invariance:
           :    0.0000000000    0.0000000000   -0.0000000000

Difference to rotation invariance:
           :   -0.0004235809    0.0003237800    0.0001342546

Norm of the cartesian gradient     ...    0.0133449626
RMS gradient                       ...    0.0034456545
MAX gradient                       ...    0.0076508493

-------
TIMINGS
-------

Total SCF gradient time            ...        1.087 sec

One electron gradient       ....       0.017 sec  (  1.5%)
RI-J Coulomb gradient       ....       0.156 sec  ( 14.3%)
XC gradient                 ....       0.622 sec  ( 57.2%)
CPCM gradient               ....       0.073 sec  (  6.7%)
   A-Matrix (El+Nuc)        ....       0.007 sec  (  0.6%)
   Potential                ....       0.066 sec  (  6.1%)

Maximum memory used throughout the entire SCFGRAD-calculation: 32.7 MB
------------------------------------------------------------------------------
                         ORCA GEOMETRY RELAXATION STEP
------------------------------------------------------------------------------

Reading the OPT-File                    .... done
Getting information on internals        .... done
Copying old internal coords+grads       .... done
Making the new internal coordinates     .... (new redundants).... done
Validating the new internal coordinates .... (new redundants).... done
Calculating the B-matrix                .... done
Calculating the G,G- and P matrices     .... done
Transforming gradient to internals      .... done
Projecting the internal gradient        .... done
Number of atoms                         ....   5
Number of internal coordinates          ....  10
Current Energy                          ....  -115.125574326 Eh
Current gradient norm                   ....     0.013344963 Eh/bohr
Maximum allowed component of the step   ....  0.300
Current trust radius                    ....  0.300
Updating the Hessian (BFGS)             .... done
Forming the augmented Hessian           .... done
Diagonalizing the augmented Hessian     .... done
Last element of RFO vector              ....  0.999620144
Lowest eigenvalues of augmented Hessian:
 -0.000238000  0.274767773  0.286435853  0.286437841  0.342972917
Length of the computed step             ....  0.027570745
The final length of the internal step   ....  0.027570745
Converting the step to cartesian space:
 Initial RMS(Int)=    0.0087186351
Transforming coordinates:
 Iter   0:  RMS(Cart)=    0.0069025530 RMS(Int)=    0.0087018112
 Iter   1:  RMS(Cart)=    0.0000357756 RMS(Int)=    0.0000558305
 Iter   2:  RMS(Cart)=    0.0000003324 RMS(Int)=    0.0000005034
 Iter   3:  RMS(Cart)=    0.0000000020 RMS(Int)=    0.0000000023
done
Storing new coordinates                 .... done

                                .--------------------.
          ----------------------|Geometry convergence|-------------------------
          Item                value                   Tolerance       Converged
          ---------------------------------------------------------------------
          Energy change      -0.0029928085            0.0000050000      NO
          RMS gradient        0.0029138131            0.0001000000      NO
          MAX gradient        0.0065303714            0.0003000000      NO
          RMS step            0.0087186351            0.0020000000      NO
          MAX step            0.0115082325            0.0040000000      NO
          ........................................................
          Max(Bonds)      0.0061      Max(Angles)    0.56
          Max(Dihed)        0.00      Max(Improp)    0.00
          ---------------------------------------------------------------------

The optimization has not yet converged - more geometry cycles are needed


    ---------------------------------------------------------------------------
                         Redundant Internal Coordinates
                            (Angstroem and degrees)

        Definition                    Value    dE/dq     Step     New-Value
    ----------------------------------------------------------------------------
     1. B(C   1,O   0)                1.3465 -0.006530  0.0061    1.3526   
     2. B(H   2,C   1)                1.1352 -0.001896  0.0040    1.1391   
     3. B(H   3,C   1)                1.1352 -0.001904  0.0040    1.1391   
     4. B(H   4,C   1)                1.1352 -0.001913  0.0040    1.1392   
     5. A(O   0,C   1,H   3)          116.64  0.002081   -0.45    116.19   
     6. A(H   2,C   1,H   3)          101.45 -0.002529    0.56    102.00   
     7. A(O   0,C   1,H   4)          116.62  0.002091   -0.45    116.17   
     8. A(H   2,C   1,H   4)          101.43 -0.002487    0.55    101.98   
     9. A(H   3,C   1,H   4)          101.43 -0.002504    0.55    101.99   
    10. A(O   0,C   1,H   2)          116.68  0.001957   -0.43    116.25   
    ----------------------------------------------------------------------------

         *************************************************************
         *                GEOMETRY OPTIMIZATION CYCLE   3            *
         *************************************************************
---------------------------------
CARTESIAN COORDINATES (ANGSTROEM)
---------------------------------
  O     -1.208940    4.383872   -1.370329
  C     -1.479911    3.391445   -0.492100
  H     -2.339127    2.695990   -0.767218
  H     -0.634764    2.655044   -0.289375
  H     -1.767381    3.717263    0.560966

----------------------------
CARTESIAN COORDINATES (A.U.)
----------------------------
  NO LB      ZA    FRAG     MASS         X           Y           Z
   0 O     8.0000    0    15.999   -2.284565    8.284318   -2.589547
   1 C     6.0000    0    12.011   -2.796627    6.408902   -0.929934
   2 H     1.0000    0     1.008   -4.420310    5.094684   -1.449832
   3 H     1.0000    0     1.008   -1.199530    5.017306   -0.546839
   4 H     1.0000    0     1.008   -3.339866    7.024610    1.060072

--------------------------------
INTERNAL COORDINATES (ANGSTROEM)
--------------------------------
 O      0   0   0     0.000000000000     0.00000000     0.00000000
 C      1   0   0     1.352635976535     0.00000000     0.00000000
 H      2   1   0     1.139121921711   116.24621171     0.00000000
 H      2   1   3     1.139147875225   116.18163950   120.04942608
 H      2   1   3     1.139186042024   116.16105855   240.00000855

---------------------------
INTERNAL COORDINATES (A.U.)
---------------------------
 O      0   0   0     0.000000000000     0.00000000     0.00000000
 C      1   0   0     2.556111554541     0.00000000     0.00000000
 H      2   1   0     2.152628465180   116.24621171     0.00000000
 H      2   1   3     2.152677510214   116.18163950   120.04942608
 H      2   1   3     2.152749635011   116.16105855   240.00000855

------------------------------------------------------------------------------
                   ___                                                        
                  /   \      - P O W E R E D   B Y -                         
                 /     \                                                     
                 |  |  |   _    _      __       _____    __    __             
                 |  |  |  | |  | |    /  \     |  _  \  |  |  /  |          
                  \  \/   | |  | |   /    \    | | | |  |  | /  /          
                 / \  \   | |__| |  /  /\  \   | |_| |  |  |/  /          
                |  |  |   |  __  | /  /__\  \  |    /   |      \           
                |  |  |   | |  | | |   __   |  |    \   |  |\   \          
                \     /   | |  | | |  |  |  |  | |\  \  |  | \   \       
                 \___/    |_|  |_| |__|  |__|  |_| \__\ |__|  \__/        
                                                                              
                      - O R C A' S   B I G   F R I E N D -                    
                                      &                                       
                       - I N T E G R A L  F E E D E R -                       
                                                                              
 v1 FN, 2020, v2 2021                                                         
------------------------------------------------------------------------------


Reading SHARK input file inp.SHARKINP.tmp ... ok
----------------------
SHARK INTEGRAL PACKAGE
----------------------

Number of atoms                             ...      5
Number of basis functions                   ...     80
Number of shells                            ...     34
Maximum angular momentum                    ...      3
Integral batch strategy                     ... SHARK/LIBINT Hybrid
RI-J (if used) integral strategy            ... SPLIT-RIJ (Revised 2003 algorithm where possible)
Printlevel                                  ...      1
Contraction scheme used                     ... SEGMENTED contraction
Coulomb Range Separation                    ... NOT USED
Exchange Range Separation                   ... NOT USED
Finite Nucleus Model                        ... NOT USED
Auxiliary Coulomb fitting basis             ... AVAILABLE
   # of basis functions in Aux-J            ...    131
   # of shells in Aux-J                     ...     45
   Maximum angular momentum in Aux-J        ...      4
Auxiliary J/K fitting basis                 ... NOT available
Auxiliary Correlation fitting basis         ... NOT available
Auxiliary 'external' fitting basis          ... NOT available
Integral threshold                          ...     2.500000e-11
Primitive cut-off                           ...     2.500000e-12
Primitive pair pre-selection threshold      ...     2.500000e-12

Calculating pre-screening integrals         ... done (  0.0 sec) Dimension = 34
Organizing shell pair data                  ... done (  0.0 sec)
Shell pair information
Total number of shell pairs                 ...       595
Shell pairs after pre-screening             ...       594
Total number of primitive shell pairs       ...      1764
Primitive shell pairs kept                  ...      1576
          la=0 lb=0:    189 shell pairs
          la=1 lb=0:    171 shell pairs
          la=1 lb=1:     45 shell pairs
          la=2 lb=0:     76 shell pairs
          la=2 lb=1:     36 shell pairs
          la=2 lb=2:     10 shell pairs
          la=3 lb=0:     38 shell pairs
          la=3 lb=1:     18 shell pairs
          la=3 lb=2:      8 shell pairs
          la=3 lb=3:      3 shell pairs

Calculating one electron integrals          ... done (  0.0 sec)
Calculating RI/J V-Matrix + Cholesky decomp.... done (  0.0 sec)
Calculating Nuclear repulsion               ... done (  0.0 sec) ENN=     34.032027051450 Eh

SHARK setup successfully completed in   0.3 seconds

Maximum memory used throughout the entire GTOINT-calculation: 14.3 MB

Diagonalization of the overlap matrix:
Smallest eigenvalue                        ... 1.923e-03
Time for diagonalization                   ...    0.001 sec
Threshold for overlap eigenvalues          ... 1.000e-08
Number of eigenvalues below threshold      ... 0
Time for construction of square roots      ...    0.042 sec
Total time needed                          ...    0.043 sec

-------------------
DFT GRID GENERATION
-------------------

General Integration Accuracy     IntAcc      ... 4.388
Radial Grid Type                 RadialGrid  ... OptM3 with GC (2021)
Angular Grid (max. ang.)         AngularGrid ... 4 (Lebedev-302)
Angular grid pruning method      GridPruning ... 4 (adaptive)
Weight generation scheme         WeightScheme... Becke
Basis function cutoff            BFCut       ... 1.0000e-11
Integration weight cutoff        WCut        ... 1.0000e-14
Angular grids for H and He will be reduced by one unit
Partially contracted basis set               ... off
Rotationally invariant grid construction     ... off

Total number of grid points                  ...    22097
Total number of batches                      ...      347
Average number of points per batch           ...       63
Average number of grid points per atom       ...     4419
Time for grid setup =    0.188 sec


--------------------
CPCM SOLVATION MODEL
--------------------
CPCM parameters:
  Epsilon                                         ...      80.4000
  Refrac                                          ...       1.3300
  Rsolv                                           ...       1.3000
  Surface type                                    ... GAUSSIAN VDW
  Epsilon function type                           ...         CPCM
Radii:
 Radius for O  used is    3.4469 Bohr (=   1.8240 Ang.)
 Radius for C  used is    3.8550 Bohr (=   2.0400 Ang.)
 Radius for H  used is    2.4944 Bohr (=   1.3200 Ang.)
Calculating surface                               ...        done! (  0.0s)
GEPOL surface points                              ...          351
GEPOL Volume                                      ...     334.6496
GEPOL Surface-area                                ...     246.3825
Calculating surface distance matrix               ...        done! (  0.0s)
Performing Cholesky decomposition & store         ...        done! (  0.1s)
Overall time for CPCM initialization              ...                 0.1s
--------------
SCF ITERATIONS
--------------
ITER       Energy         Delta-E        Max-DP      RMS-DP      [F,P]     Damp
               ***  Starting incremental Fock matrix formation  ***
                      *** Initiating the SOSCF procedure ***
                      *** Re-Reading the Fockian *** 
                      *** Removing any level shift *** 
ITER      Energy       Delta-E        Grad      Rot      Max-DP    RMS-DP
  0   -115.12423643 -115.1242364277  0.001130  0.001130  0.002550  0.000097
               *** Restarting incremental Fock matrix formation ***
  1   -115.12426176  -0.0000253306  0.000749  0.002183  0.005846  0.000217
  2   -115.12424713   0.0000146318  0.001799  0.000861  0.002535  0.000113
  3   -115.12426756  -0.0000204354  0.000094  0.000175  0.000321  0.000014
  4   -115.12426739   0.0000001740  0.000151  0.000117  0.000186  0.000008
  5   -115.12426768  -0.0000002892  0.000003  0.000005  0.000010  0.000000
                 **** Energy Check signals convergence ****
              ***Rediagonalizing the Fockian in SOSCF/NRSCF***

               *****************************************************
               *                     SUCCESS                       *
               *           SCF CONVERGED AFTER   6 CYCLES          *
               *****************************************************

Total Energy       :         -115.12426768 Eh           -3132.69059 eV
  Last Energy change         ...    2.1136e-10  Tolerance :   1.0000e-08
  Last MAX-Density change    ...    1.6355e-06  Tolerance :   1.0000e-07
             **** THE GBW FILE WAS UPDATED (inp.gbw) ****
             **** DENSITY inp.scfp WAS UPDATED ****
             **** ENERGY FILE WAS UPDATED (inp.en.tmp) ****
             **** THE GBW FILE WAS UPDATED (inp.gbw) ****
             **** DENSITY inp.scfp WAS UPDATED ****
Total SCF time: 0 days 0 hours 0 min 4 sec 

Maximum memory used throughout the entire SCF-calculation: 17.6 MB


-------------------------------------------------------------------------------
                          DFT DISPERSION CORRECTION                            
                                                                               
                              DFTD3 V3.1  Rev 1                                
                          USING Becke-Johnson damping                          
-------------------------------------------------------------------------------
-------------------------   ----------------
Dispersion correction           -0.001464710
-------------------------   ----------------


-------------------------   --------------------
FINAL SINGLE POINT ENERGY      -115.125732386438
-------------------------   --------------------

------------------------------------------------------------------------------
                         ORCA SCF GRADIENT CALCULATION
------------------------------------------------------------------------------

Gradient of the Kohn-Sham DFT energy:
Kohn-Sham wavefunction type      ... RKS
Hartree-Fock exchange scaling    ...    0.000
Number of operators              ...    1
Number of atoms                  ...    5
Basis set dimensions             ...   80
Integral neglect threshold       ... 2.5e-11
Integral primitive cutoff        ... 2.5e-12
SHARK Integral package           ... ON

Nuc. rep. gradient       (SHARK) ... done (  0.0 sec)
HCore & Overlap gradient (SHARK) ... done (  0.0 sec)
RI-J gradient            (SHARK) ... done (  0.2 sec)
Exchange-correlation gradient    ... done
Dispersion correction            ... done

------------------
CARTESIAN GRADIENT
------------------

   1   O   :   -0.000566264   -0.001868765    0.001538457
   2   C   :    0.001408805    0.005103364   -0.004501188
   3   H   :   -0.000348295   -0.001142919    0.000988357
   4   H   :   -0.000226763   -0.001100308    0.000971631
   5   H   :   -0.000267484   -0.000991372    0.001002744

Difference to translation invariance:
           :   -0.0000000000    0.0000000000   -0.0000000000

Difference to rotation invariance:
           :   -0.0004496580    0.0003116233    0.0001334417

Norm of the cartesian gradient     ...    0.0078192063
RMS gradient                       ...    0.0020189104
MAX gradient                       ...    0.0051033639

-------
TIMINGS
-------

Total SCF gradient time            ...        1.052 sec

One electron gradient       ....       0.017 sec  (  1.6%)
RI-J Coulomb gradient       ....       0.156 sec  ( 14.9%)
XC gradient                 ....       0.617 sec  ( 58.6%)
CPCM gradient               ....       0.075 sec  (  7.1%)
   A-Matrix (El+Nuc)        ....       0.007 sec  (  0.7%)
   Potential                ....       0.068 sec  (  6.5%)

Maximum memory used throughout the entire SCFGRAD-calculation: 32.7 MB
------------------------------------------------------------------------------
                         ORCA GEOMETRY RELAXATION STEP
------------------------------------------------------------------------------

[...]

Convergence Tolerance:
 Convergence Check Mode ConvCheckMode   .... Total+1el-Energy
 Convergence forced     ConvForced      .... 0
 Energy Change          TolE            ....  1.000e-08 Eh
 1-El. energy change                    ....  1.000e-05 Eh
 Orbital Gradient       TolG            ....  1.000e-05
 Orbital Rotation angle TolX            ....  1.000e-05
 DIIS Error             TolErr          ....  5.000e-07


Diagonalization of the overlap matrix:
Smallest eigenvalue                        ... 1.922e-03
Time for diagonalization                   ...    0.002 sec
Threshold for overlap eigenvalues          ... 1.000e-08
Number of eigenvalues below threshold      ... 0
Time for construction of square roots      ...    0.007 sec
Total time needed                          ...    0.009 sec

---------------------
INITIAL GUESS: MOREAD
---------------------
Guess MOs are being read from file: inp.gbw
Input Geometry matches current geometry (good)
Input basis set matches current basis set (good)
MOs were renormalized
MOs were reorthogonalized (Cholesky)
                      ------------------
                      INITIAL GUESS DONE (   0.0 sec)
                      ------------------
-------------------
DFT GRID GENERATION
-------------------

General Integration Accuracy     IntAcc      ... 4.388
Radial Grid Type                 RadialGrid  ... OptM3 with GC (2021)
Angular Grid (max. ang.)         AngularGrid ... 4 (Lebedev-302)
Angular grid pruning method      GridPruning ... 4 (adaptive)
Weight generation scheme         WeightScheme... Becke
Basis function cutoff            BFCut       ... 1.0000e-11
Integration weight cutoff        WCut        ... 1.0000e-14
Angular grids for H and He will be reduced by one unit
Partially contracted basis set               ... off
Rotationally invariant grid construction     ... off

Total number of grid points                  ...    22097
Total number of batches                      ...      347
Average number of points per batch           ...       63
Average number of grid points per atom       ...     4419
Time for grid setup =    0.153 sec


--------------------
CPCM SOLVATION MODEL
--------------------
CPCM parameters:
  Epsilon                                         ...      80.4000
  Refrac                                          ...       1.3300
  Rsolv                                           ...       1.3000
  Surface type                                    ... GAUSSIAN VDW
  Epsilon function type                           ...         CPCM
Radii:
 Radius for O  used is    3.4469 Bohr (=   1.8240 Ang.)
 Radius for C  used is    3.8550 Bohr (=   2.0400 Ang.)
 Radius for H  used is    2.4944 Bohr (=   1.3200 Ang.)
Calculating surface                               ...        done! (  0.0s)
GEPOL surface points                              ...          351
GEPOL Volume                                      ...     334.9144
GEPOL Surface-area                                ...     246.4061
Calculating surface distance matrix               ...        done! (  0.0s)
Performing Cholesky decomposition & store         ...        done! (  0.0s)
Overall time for CPCM initialization              ...                 0.0s
--------------
SCF ITERATIONS
--------------
ITER       Energy         Delta-E        Max-DP      RMS-DP      [F,P]     Damp
               ***  Starting incremental Fock matrix formation  ***
                      *** Initiating the SOSCF procedure ***
                      *** Re-Reading the Fockian *** 
                      *** Removing any level shift *** 
ITER      Energy       Delta-E        Grad      Rot      Max-DP    RMS-DP
  0   -115.12433864 -115.1243386401  0.000042  0.000042  0.000043  0.000002
               *** Restarting incremental Fock matrix formation ***
  1   -115.12433866  -0.0000000159  0.000012  0.000016  0.000025  0.000001
  2   -115.12433865   0.0000000011  0.000014  0.000011  0.000012  0.000001
                  ***Gradient check signals convergence***
              ***Rediagonalizing the Fockian in SOSCF/NRSCF***

               *****************************************************
               *                     SUCCESS                       *
               *           SCF CONVERGED AFTER   3 CYCLES          *
               *****************************************************


----------------
TOTAL SCF ENERGY
----------------

Total Energy       :         -115.12433866 Eh           -3132.69252 eV

Components:
Nuclear Repulsion  :           33.96569676 Eh             924.25360 eV
Electronic Energy  :         -149.09003542 Eh           -4056.94611 eV
One Electron Energy:         -229.27925907 Eh           -6239.00582 eV
Two Electron Energy:           80.18922365 Eh            2182.05971 eV
CPCM Dielectric    :           -0.12087428 Eh              -3.28916 eV

Virial components:
Potential Energy   :         -229.74477656 Eh           -6251.67320 eV
Kinetic Energy     :          114.62043790 Eh            3118.98068 eV
Virial Ratio       :            2.00439626


DFT components:
N(Alpha)           :        9.000009615804 electrons
N(Beta)            :        9.000009615804 electrons
N(Total)           :       18.000019231608 electrons
E(X)               :      -14.627217672835 Eh       
E(C)               :       -0.576318820407 Eh       
E(XC)              :      -15.203536493242 Eh       
DFET-embed. en.    :        0.000000000000 Eh       
CPCM Solvation Model Properties:
Surface-charge          :            0.96781464
Charge-correction       :           -0.00673738 Eh              -0.18333 eV
Free-energy (cav+disp)  :  This term is not implemented in the current solvation scheme

---------------
SCF CONVERGENCE
---------------

  Last Energy change         ...   -2.5725e-09  Tolerance :   1.0000e-08
  Last MAX-Density change    ...    9.0205e-06  Tolerance :   1.0000e-07
  Last RMS-Density change    ...    4.0360e-07  Tolerance :   5.0000e-09
  Last Orbital Gradient      ...    1.7674e-06  Tolerance :   1.0000e-05
  Last Orbital Rotation      ...    2.6613e-06  Tolerance :   1.0000e-05

             **** THE GBW FILE WAS UPDATED (inp.gbw) ****
             **** DENSITY inp.scfp WAS UPDATED ****
             **** ENERGY FILE WAS UPDATED (inp.en.tmp) ****
             **** THE GBW FILE WAS UPDATED (inp.gbw) ****
             **** DENSITY inp.scfp WAS UPDATED ****
----------------
ORBITAL ENERGIES
----------------

  NO   OCC          E(Eh)            E(eV) 
   0   2.0000     -18.607729      -506.3420 
   1   2.0000      -9.872859      -268.6542 
   2   2.0000      -0.786254       -21.3951 
   3   2.0000      -0.521940       -14.2027 
   4   2.0000      -0.321876        -8.7587 
   5   2.0000      -0.321817        -8.7571 
   6   2.0000      -0.275650        -7.5008 
   7   2.0000      -0.120899        -3.2898 
   8   2.0000      -0.120849        -3.2885 
   9   0.0000       0.049001         1.3334 
  10   0.0000       0.102922         2.8006 
  11   0.0000       0.121048         3.2939 
  12   0.0000       0.121123         3.2959 
  13   0.0000       0.218661         5.9501 
  14   0.0000       0.218859         5.9555 
  15   0.0000       0.334649         9.1063 
  16   0.0000       0.371775        10.1165 
  17   0.0000       0.420036        11.4298 
  18   0.0000       0.420091        11.4313 
  19   0.0000       0.421455        11.4684 
  20   0.0000       0.486492        13.2381 
  21   0.0000       0.517858        14.0916 
  22   0.0000       0.517958        14.0944 
  23   0.0000       0.691475        18.8160 
  24   0.0000       0.691712        18.8224 
  25   0.0000       0.768435        20.9102 
  26   0.0000       0.921545        25.0765 
  27   0.0000       0.921753        25.0822 
  28   0.0000       1.020897        27.7800 
  29   0.0000       1.380787        37.5731 
  30   0.0000       1.380892        37.5760 
  31   0.0000       1.446251        39.3545 
  32   0.0000       1.505381        40.9635 
  33   0.0000       1.581566        43.0366 
  34   0.0000       1.581932        43.0466 
  35   0.0000       1.618494        44.0415 
  36   0.0000       1.641938        44.6794 
  37   0.0000       1.641985        44.6807 
  38   0.0000       1.951248        53.0961 
  39   0.0000       1.970979        53.6331 
  40   0.0000       1.971640        53.6511 
  41   0.0000       2.014371        54.8138 
  42   0.0000       2.227829        60.6223 
  43   0.0000       2.228486        60.6402 
  44   0.0000       2.244161        61.0667 
  45   0.0000       2.373392        64.5833 
  46   0.0000       2.373664        64.5907 
  47   0.0000       2.497171        67.9515 
  48   0.0000       2.497459        67.9593 
  49   0.0000       2.758882        75.0730 
  50   0.0000       2.759373        75.0864 
  51   0.0000       2.791134        75.9506 
  52   0.0000       2.893240        78.7291 
  53   0.0000       2.963397        80.6381 
  54   0.0000       2.963496        80.6408 
  55   0.0000       3.068431        83.4962 
  56   0.0000       3.150573        85.7314 
  57   0.0000       3.382873        92.0527 
  58   0.0000       3.383359        92.0659 
  59   0.0000       3.458252        94.1038 
  60   0.0000       3.535762        96.2130 
  61   0.0000       3.535852        96.2154 
  62   0.0000       4.025276       109.5333 
  63   0.0000       4.025557       109.5410 
  64   0.0000       4.146913       112.8433 
  65   0.0000       4.361447       118.6810 
  66   0.0000       5.163351       140.5019 
  67   0.0000       5.174990       140.8186 
  68   0.0000       5.374646       146.2516 
  69   0.0000       5.374708       146.2532 
  70   0.0000       5.804672       157.9531 
  71   0.0000       5.804711       157.9542 
  72   0.0000       5.927780       161.3031 
  73   0.0000       6.317165       171.8988 
  74   0.0000       6.317295       171.9023 
  75   0.0000       6.717038       182.7799 
  76   0.0000       6.717230       182.7851 
  77   0.0000       6.896500       187.6633 
  78   0.0000      22.051468       600.0509 
  79   0.0000      43.199033      1175.5055 

                    ********************************
                    * MULLIKEN POPULATION ANALYSIS *
                    ********************************

-----------------------
MULLIKEN ATOMIC CHARGES
-----------------------
   0 O :   -0.871373
   1 C :   -0.172725
   2 H :    0.014923
   3 H :    0.014631
   4 H :    0.014543
Sum of atomic charges:   -1.0000000

--------------------------------
MULLIKEN REDUCED ORBITAL CHARGES
--------------------------------
  0 O s       :     3.844111  s :     3.844111
      pz      :     1.625210  p :     5.003874
      px      :     1.810234
      py      :     1.568429
      dz2     :     0.004135  d :     0.022113
      dxz     :     0.002554
      dyz     :     0.008143
      dx2y2   :     0.003714
      dxy     :     0.003566
      f0      :     0.000144  f :     0.001276
      f+1     :     0.000049
      f-1     :     0.000325
      f+2     :     0.000303
      f-2     :     0.000232
      f+3     :     0.000117
      f-3     :     0.000105
  1 C s       :     3.235938  s :     3.235938
      pz      :     0.910634  p :     2.808991
      px      :     1.021087
      py      :     0.877271
      dz2     :     0.041626  d :     0.119885
      dxz     :     0.017331
      dyz     :     0.012551
      dx2y2   :     0.013407
      dxy     :     0.034971
      f0      :     0.000874  f :     0.007909
      f+1     :     0.000309
      f-1     :     0.002344
      f+2     :     0.000975
      f-2     :     0.001732
      f+3     :     0.000510
      f-3     :     0.001165
  2 H s       :     0.966474  s :     0.966474
      pz      :     0.003987  p :     0.018602
      px      :     0.008034
      py      :     0.006581
  3 H s       :     0.966756  s :     0.966756
      pz      :     0.004176  p :     0.018614
      px      :     0.007535
      py      :     0.006903
  4 H s       :     0.966842  s :     0.966842
      pz      :     0.009931  p :     0.018615
      px      :     0.004759
      py      :     0.003925


                     *******************************
                     * LOEWDIN POPULATION ANALYSIS *
                     *******************************

----------------------
LOEWDIN ATOMIC CHARGES
----------------------
   0 O :   -0.520481
   1 C :   -0.619151
   2 H :    0.046586
   3 H :    0.046538
   4 H :    0.046509

-------------------------------
LOEWDIN REDUCED ORBITAL CHARGES
-------------------------------
  0 O s       :     3.512967  s :     3.512967
      pz      :     1.622911  p :     4.947445
      px      :     1.736559
      py      :     1.587975
      dz2     :     0.011758  d :     0.055999
      dxz     :     0.006947
      dyz     :     0.018304
      dx2y2   :     0.009288
      dxy     :     0.009702
      f0      :     0.000475  f :     0.004071
      f+1     :     0.000165
      f-1     :     0.001034
      f+2     :     0.000907
      f-2     :     0.000760
      f+3     :     0.000398
      f-3     :     0.000331
  1 C s       :     2.893713  s :     2.893713
      pz      :     1.019064  p :     3.096739
      px      :     1.075708
      py      :     1.001966
      dz2     :     0.177534  d :     0.565507
      dxz     :     0.067143
      dyz     :     0.095167
      dx2y2   :     0.050985
      dxy     :     0.174677
      f0      :     0.006921  f :     0.063192
      f+1     :     0.004696
      f-1     :     0.015898
      f+2     :     0.011109
      f-2     :     0.011147
      f+3     :     0.004502
      f-3     :     0.008919
  2 H s       :     0.898270  s :     0.898270
      pz      :     0.011338  p :     0.055145
      px      :     0.024731
      py      :     0.019076
  3 H s       :     0.898332  s :     0.898332
      pz      :     0.011239  p :     0.055130
      px      :     0.023764
      py      :     0.020127
  4 H s       :     0.898367  s :     0.898367
      pz      :     0.030566  p :     0.055125
      px      :     0.013211
      py      :     0.011348


                      *****************************
                      * MAYER POPULATION ANALYSIS *
                      *****************************

  NA   - Mulliken gross atomic population
  ZA   - Total nuclear charge
  QA   - Mulliken gross atomic charge
  VA   - Mayer's total valence
  BVA  - Mayer's bonded valence
  FA   - Mayer's free valence

  ATOM       NA         ZA         QA         VA         BVA        FA
  0 O      8.8714     8.0000    -0.8714     1.4459     1.4459    -0.0000
  1 C      6.1727     6.0000    -0.1727     4.1762     4.1762     0.0000
  2 H      0.9851     1.0000     0.0149     0.9078     0.9078    -0.0000
  3 H      0.9854     1.0000     0.0146     0.9080     0.9080     0.0000
  4 H      0.9855     1.0000     0.0145     0.9079     0.9079    -0.0000

  Mayer bond orders larger than 0.100000
B(  0-O ,  1-C ) :   1.3926 B(  1-C ,  2-H ) :   0.9276 B(  1-C ,  3-H ) :   0.9280 
B(  1-C ,  4-H ) :   0.9279 

-------
TIMINGS
-------

Total SCF time: 0 days 0 hours 0 min 2 sec 

Total time                  ....       2.689 sec
Sum of individual times     ....       1.933 sec  ( 71.9%)

Fock matrix formation       ....       1.704 sec  ( 63.4%)
  Split-RI-J                ....       0.094 sec  (  5.5% of F)
  XC integration            ....       0.952 sec  ( 55.9% of F)
    Basis function eval.    ....       0.204 sec  ( 21.4% of XC)
    Density eval.           ....       0.105 sec  ( 11.0% of XC)
    XC-Functional eval.     ....       0.076 sec  (  8.0% of XC)
    XC-Potential eval.      ....       0.121 sec  ( 12.7% of XC)
Diagonalization             ....       0.001 sec  (  0.0%)
Density matrix formation    ....       0.000 sec  (  0.0%)
Population analysis         ....       0.066 sec  (  2.5%)
Initial guess               ....       0.002 sec  (  0.1%)
Orbital Transformation      ....       0.000 sec  (  0.0%)
Orbital Orthonormalization  ....       0.001 sec  (  0.0%)
DIIS solution               ....       0.000 sec  (  0.0%)
SOSCF solution              ....       0.006 sec  (  0.2%)
Grid generation             ....       0.153 sec  (  5.7%)

Maximum memory used throughout the entire SCF-calculation: 17.6 MB


-------------------------------------------------------------------------------
                          DFT DISPERSION CORRECTION                            
                                                                               
                              DFTD3 V3.1  Rev 1                                
                          USING Becke-Johnson damping                          
-------------------------------------------------------------------------------
The PBE functional is recognized
Active option DFTDOPT                   ...         4   

molecular C6(AA) [au] = 171.192011 


            DFT-D V3
 parameters
 s6 scaling factor         :     1.0000 
 a1 scaling factor         :     0.4289 
 s8 scaling factor         :     0.7875 
 a2 scaling factor         :     4.4407 
 ad hoc parameters k1-k3   :    16.0000     1.3333    -4.0000 

 Edisp/kcal,au: -0.919112449304  -0.001464698764 
 E6   /kcal   :  -0.677082250 
 E8   /kcal   :  -0.242030199 
 % E8         :  26.333034575 

-------------------------   ----------------
Dispersion correction           -0.001464699
-------------------------   ----------------


-------------------------   --------------------
FINAL SINGLE POINT ENERGY      -115.125803356234
-------------------------   --------------------

                                *** OPTIMIZATION RUN DONE ***

                            ***************************************
                            *     ORCA property calculations      *
                            ***************************************

                                    ---------------------
                                    Active property flags
                                    ---------------------
   (+) Dipole Moment


------------------------------------------------------------------------------
                       ORCA ELECTRIC PROPERTIES CALCULATION
------------------------------------------------------------------------------

Dipole Moment Calculation                       ... on
Quadrupole Moment Calculation                   ... off
Polarizability Calculation                      ... off
GBWName                                         ... inp.gbw
Electron density                                ... inp.scfp
The origin for moment calculation is the CENTER OF MASS  = (-2.552707,  7.301921 -1.720109)

-------------
DIPOLE MOMENT
-------------
                                X             Y             Z
Electronic contribution:      0.43485       1.59254      -1.41102
Nuclear contribution   :     -0.64202      -2.35225       2.08327
                        -----------------------------------------
Total Dipole Moment    :     -0.20718      -0.75971       0.67225
                        -----------------------------------------
Magnitude (a.u.)       :      1.03538
Magnitude (Debye)      :      2.63172



--------------------
Rotational spectrum 
--------------------
 
Rotational constants in cm-1:     5.309538     0.903748     0.903711 
Rotational constants in MHz : 159175.943825 27093.684806 27092.582636 

 Dipole components along the rotational axes: 
x,y,z [a.u.] :    -1.035379    -0.000347    -0.000100 
x,y,z [Debye]:    -2.631723    -0.000881    -0.000253 

 

Timings for individual modules:

Sum of individual times         ...       54.527 sec (=   0.909 min)
GTO integral calculation        ...        4.616 sec (=   0.077 min)   8.5 %
SCF iterations                  ...       42.413 sec (=   0.707 min)  77.8 %
SCF Gradient evaluation         ...        6.771 sec (=   0.113 min)  12.4 %
Geometry relaxation             ...        0.727 sec (=   0.012 min)   1.3 %
                             ****ORCA TERMINATED NORMALLY****
TOTAL RUN TIME: 0 days 0 hours 0 minutes 57 seconds 990 msec
