 Entering Gaussian System
 *********************************************
 Gaussian 98:
 frequency output generated by the xtb code
 *********************************************
                         Standard orientation:
 --------------------------------------------------------------------
  Center     Atomic     Atomic              Coordinates (Angstroms)
  Number     Number      Type              X           Y           Z
 --------------------------------------------------------------------
    1          6             0       -7.438056   -3.546370   -3.115013
    2          6             0       -8.223347   -3.469546   -4.259389
    3          7             0       -5.807342   -0.300368   -3.046754
    4          1             0       -6.059818   -2.552622   -1.819405
    5          6             0       -8.204056   -2.294221   -4.999974
    6          1             0       -8.831187   -4.310597   -4.572027
    7          6             0       -7.446132   -1.218331   -4.605188
    8          1             0       -8.799377   -2.225867   -5.906424
    9          6             0       -6.650902   -1.261454   -3.430312
   10          1             0       -7.428368   -0.317970   -5.207325
   11          6             0       -6.669846   -2.481763   -2.710958
   12          1             0       -7.436111   -4.462024   -2.530496
   13          6             0       -5.970396    1.008241   -3.251248
   14          6             0       -7.225986    1.668600   -3.300750
   15          1             0       -4.033035    3.818245   -3.401002
   16          1             0       -3.853985    1.372220   -3.228143
   17          6             0       -7.315851    3.036751   -3.388475
   18          1             0       -8.126655    1.069369   -3.243396
   19          6             0       -6.176075    3.829894   -3.435540
   20          1             0       -8.294769    3.507834   -3.420227
   21          6             0       -4.933226    3.210566   -3.372991
   22          1             0       -6.255127    4.908144   -3.511829
   23          6             0       -4.826785    1.844271   -3.279573
 --------------------------------------------------------------------
     1 basis functions        1 primitive gaussians
     1 alpha electrons        1 beta electrons
 
 Harmonic frequencies (cm**-1), IR intensities (km*mol⁻¹),
 Raman scattering activities (A**4/amu), Raman depolarization ratios,
 reduced masses (AMU), force constants (mDyne/A) and normal coordinates:
                      1                      2                      3
                        a                      a                      a 
 Frequencies --    61.4130                67.8336                80.1306
 Red. masses --    10.6615                10.1627                10.1651
 Frc consts  --     0.0000                 0.0000                 0.0000
 IR Inten    --     2.6314                 0.0907                 0.2876
 Raman Activ --     0.0000                 0.0000                 0.0000
 Depolar     --     0.0000                 0.0000                 0.0000
 Atom AN      X      Y      Z        X      Y      Z        X      Y      Z
   1   6     0.17  -0.14  -0.23    -0.27   0.13   0.04    -0.05   0.01   0.13
   2   6     0.19  -0.05  -0.24    -0.09   0.20  -0.08     0.19  -0.21  -0.05
   3   7    -0.20   0.02   0.35     0.18  -0.06   0.11    -0.18   0.06  -0.11
   4   1     0.00  -0.06  -0.00    -0.09  -0.01   0.06    -0.11   0.08   0.08
   5   6     0.03   0.10  -0.01     0.20   0.17  -0.13     0.19  -0.28  -0.16
   6   1     0.09  -0.02  -0.12    -0.05   0.08  -0.04     0.10  -0.09  -0.02
   7   6    -0.13   0.13   0.20     0.30   0.07  -0.05     0.00  -0.16  -0.13
   8   1     0.01   0.06  -0.00     0.10   0.06  -0.06     0.10  -0.13  -0.08
   9   6    -0.11   0.02   0.20     0.12  -0.01   0.07    -0.14   0.02  -0.03
  10   1    -0.07   0.07   0.11     0.15   0.02  -0.02    -0.00  -0.06  -0.06
  11   6     0.01  -0.11  -0.01    -0.15   0.02   0.11    -0.21   0.12   0.14
  12   1     0.09  -0.07  -0.12    -0.15   0.04   0.02    -0.03   0.02   0.07
  13   6    -0.11   0.02   0.20     0.10  -0.07   0.07    -0.08   0.06  -0.10
  14   6    -0.06   0.11   0.23     0.03  -0.18   0.26    -0.04   0.17   0.12
  15   1     0.03  -0.05  -0.14    -0.05   0.02  -0.15     0.04  -0.03  -0.07
  16   1    -0.02  -0.05  -0.01     0.02   0.03  -0.10    -0.01  -0.04  -0.15
  17   6     0.05   0.10  -0.01    -0.11  -0.20   0.19     0.07   0.19   0.32
  18   1    -0.03   0.06   0.12     0.03  -0.08   0.13    -0.02   0.06   0.05
  19   6     0.11  -0.00  -0.29    -0.18  -0.11  -0.09     0.13   0.10   0.23
  20   1     0.02   0.05   0.00    -0.05  -0.08   0.10     0.03   0.08   0.16
  21   6     0.06  -0.09  -0.29    -0.12   0.01  -0.29     0.09  -0.02  -0.11
  22   1     0.06  -0.00  -0.15    -0.08  -0.03  -0.05     0.06   0.03   0.12
  23   6    -0.05  -0.09  -0.03     0.02   0.02  -0.19    -0.01  -0.04  -0.28
                      4                      5                      6
                        a                      a                      a 
 Frequencies --   200.6684               203.9928               308.2018
 Red. masses --    10.3123                10.5149                10.8612
 Frc consts  --     0.0000                 0.0000                 0.0000
 IR Inten    --     0.6930                 6.6863                 0.2765
 Raman Activ --     0.0000                 0.0000                 0.0000
 Depolar     --     0.0000                 0.0000                 0.0000
 Atom AN      X      Y      Z        X      Y      Z        X      Y      Z
   1   6     0.03  -0.02  -0.06    -0.01  -0.07  -0.04     0.19   0.24   0.13
   2   6     0.19   0.02  -0.16    -0.23   0.15   0.13     0.19   0.22   0.13
   3   7     0.07  -0.02   0.11    -0.19   0.06   0.31    -0.07   0.03  -0.05
   4   1    -0.07  -0.01   0.07     0.10  -0.11  -0.05     0.06   0.15  -0.01
   5   6     0.00   0.17   0.07     0.07   0.08   0.03     0.06   0.14  -0.02
   6   1     0.11  -0.01  -0.11    -0.15   0.09   0.07     0.06   0.05   0.06
   7   6    -0.14   0.18   0.28     0.34  -0.09  -0.05    -0.02   0.22  -0.14
   8   1     0.01   0.07   0.02     0.02   0.05   0.01     0.00  -0.01  -0.00
   9   6    -0.08   0.04   0.23     0.16  -0.12   0.07    -0.05   0.14  -0.14
  10   1    -0.05   0.07   0.11     0.16  -0.03  -0.02    -0.01   0.06  -0.04
  11   6    -0.16   0.03   0.20     0.25  -0.23  -0.09     0.13   0.28   0.01
  12   1     0.02  -0.03  -0.05    -0.02  -0.03  -0.03     0.06   0.07   0.04
  13   6     0.08  -0.06  -0.22    -0.21   0.01  -0.07    -0.21  -0.05  -0.01
  14   6     0.06  -0.13  -0.39    -0.15   0.12  -0.22    -0.23  -0.13  -0.00
  15   1    -0.02   0.01   0.05     0.02  -0.05  -0.02     0.02  -0.10   0.01
  16   1     0.02   0.00  -0.13    -0.05  -0.06  -0.11    -0.06  -0.15   0.01
  17   6    -0.02  -0.12  -0.09    -0.00   0.16   0.01    -0.06  -0.13   0.01
  18   1     0.02  -0.05  -0.15    -0.06   0.06  -0.11    -0.07  -0.03   0.00
  19   6    -0.06  -0.05   0.31     0.07   0.07   0.21     0.07  -0.31   0.02
  20   1    -0.01  -0.05  -0.02     0.01   0.07   0.01     0.01   0.01   0.01
  21   6    -0.03  -0.01   0.05     0.01  -0.07  -0.05     0.06  -0.33   0.02
  22   1    -0.03  -0.01   0.20     0.05   0.03   0.13     0.05  -0.09   0.01
  23   6     0.05  -0.03  -0.32    -0.14  -0.09  -0.23    -0.08  -0.30   0.02
                      7                      8                      9
                        a                      a                      a 
 Frequencies --   358.1677               377.6595               381.5414
 Red. masses --    10.9042                 9.5703                 9.4498
 Frc consts  --     0.0000                 0.0000                 0.0000
 IR Inten    --    13.4761                 6.0861                 0.0919
 Raman Activ --     0.0000                 0.0000                 0.0000
 Depolar     --     0.0000                 0.0000                 0.0000
 Atom AN      X      Y      Z        X      Y      Z        X      Y      Z
   1   6     0.19  -0.01  -0.08     0.17  -0.11  -0.13     0.22  -0.10  -0.15
   2   6    -0.10  -0.04   0.11     0.07   0.01  -0.06    -0.01   0.00   0.02
   3   7    -0.25   0.02   0.43     0.10  -0.01  -0.18    -0.04   0.01  -0.00
   4   1     0.00   0.09  -0.05    -0.16   0.04   0.13    -0.12   0.06   0.09
   5   6    -0.12  -0.10   0.02    -0.23   0.16   0.18    -0.21   0.09   0.14
   6   1    -0.04  -0.02   0.07     0.03   0.00  -0.03    -0.01   0.00   0.01
   7   6     0.01  -0.05  -0.27     0.26  -0.10  -0.08     0.25  -0.12  -0.20
   8   1    -0.06  -0.06   0.01    -0.15   0.10   0.11    -0.14   0.05   0.09
   9   6    -0.20   0.19  -0.09     0.11  -0.09   0.00    -0.01   0.00  -0.02
  10   1     0.01  -0.06  -0.15     0.12  -0.04  -0.03     0.12  -0.05  -0.08
  11   6    -0.08   0.17  -0.12    -0.24   0.05   0.25    -0.22   0.11   0.15
  12   1     0.14  -0.01  -0.04     0.08  -0.06  -0.08     0.13  -0.06  -0.09
  13   6     0.22   0.04   0.17    -0.08  -0.02  -0.11    -0.00   0.01   0.02
  14   6     0.19  -0.11  -0.17    -0.07   0.02  -0.24    -0.01   0.02   0.36
  15   1    -0.02   0.05  -0.14     0.01  -0.03  -0.11    -0.00   0.01   0.17
  16   1     0.08   0.06   0.00    -0.04  -0.01   0.19     0.01  -0.01  -0.18
  17   6    -0.02  -0.14   0.09     0.01   0.08   0.30    -0.00  -0.02  -0.30
  18   1     0.09  -0.09  -0.11    -0.04   0.02  -0.11     0.00   0.00   0.16
  19   6    -0.07  -0.06   0.12     0.03   0.03  -0.08     0.00  -0.01   0.00
  20   1    -0.02  -0.07   0.04     0.01   0.04   0.19     0.00  -0.01  -0.19
  21   6     0.00   0.05  -0.21     0.00  -0.04  -0.20     0.00   0.02   0.30
  22   1    -0.05  -0.02   0.06     0.02   0.01  -0.04     0.00  -0.00  -0.01
  23   6     0.21   0.06   0.06    -0.09  -0.00   0.30     0.01  -0.02  -0.32
                     10                     11                     12
                        a                      a                      a 
 Frequencies --   454.0416               480.9236               530.5467
 Red. masses --     9.3698                 9.8763                11.7196
 Frc consts  --     0.0000                 0.0000                 0.0000
 IR Inten    --     2.2012                31.1909                 0.0980
 Raman Activ --     0.0000                 0.0000                 0.0000
 Depolar     --     0.0000                 0.0000                 0.0000
 Atom AN      X      Y      Z        X      Y      Z        X      Y      Z
   1   6    -0.16   0.07   0.11     0.16  -0.07  -0.14    -0.10   0.10  -0.18
   2   6     0.20  -0.15  -0.15    -0.21   0.12   0.13    -0.18  -0.25  -0.13
   3   7     0.16  -0.06   0.09     0.21  -0.03  -0.38     0.13   0.38   0.01
   4   1    -0.11   0.07   0.05     0.08  -0.06  -0.04    -0.05  -0.06  -0.01
   5   6    -0.17   0.02   0.12     0.14  -0.04  -0.11    -0.02  -0.14   0.08
   6   1     0.06  -0.05  -0.04    -0.04   0.03   0.02    -0.05  -0.08  -0.02
   7   6    -0.02   0.00  -0.06    -0.01  -0.02   0.08     0.06  -0.19   0.19
   8   1    -0.15   0.05   0.11     0.15  -0.05  -0.11     0.02   0.04   0.01
   9   6     0.31  -0.08  -0.26    -0.25   0.08   0.22     0.19   0.22   0.13
  10   1    -0.13   0.03   0.03     0.13  -0.05  -0.04    -0.03  -0.08   0.02
  11   6    -0.01   0.04  -0.09    -0.07   0.02   0.11    -0.03   0.09  -0.11
  12   1    -0.14   0.08   0.12     0.14  -0.08  -0.12     0.01   0.06  -0.01
  13   6    -0.07  -0.01   0.41    -0.05   0.01   0.33    -0.07   0.31  -0.02
  14   6    -0.05   0.02   0.01    -0.07   0.00   0.05    -0.27  -0.08  -0.00
  15   1     0.01  -0.03  -0.20     0.01  -0.03  -0.20     0.03   0.05   0.01
  16   1    -0.03  -0.02  -0.14    -0.02  -0.02  -0.10    -0.00  -0.08   0.01
  17   6     0.03   0.03  -0.20     0.02   0.00  -0.18    -0.12  -0.10   0.02
  18   1    -0.04   0.03  -0.13    -0.03   0.01  -0.14    -0.04  -0.07   0.01
  19   6     0.02   0.08   0.29     0.02   0.03   0.27     0.06  -0.33   0.01
  20   1     0.01   0.01  -0.19     0.01   0.00  -0.19     0.00   0.05   0.00
  21   6    -0.00  -0.01  -0.21     0.02  -0.02  -0.22     0.23  -0.01   0.01
  22   1     0.01   0.02   0.08     0.01   0.01   0.05    -0.00  -0.09   0.01
  23   6    -0.10  -0.00   0.03    -0.05   0.01   0.12     0.15   0.03  -0.00
                     13                     14                     15
                        a                      a                      a 
 Frequencies --   566.4066               585.6514               603.4358
 Red. masses --    11.3067                11.2419                11.5771
 Frc consts  --     0.0000                 0.0000                 0.0000
 IR Inten    --     2.9713                 0.3208                 1.1456
 Raman Activ --     0.0000                 0.0000                 0.0000
 Depolar     --     0.0000                 0.0000                 0.0000
 Atom AN      X      Y      Z        X      Y      Z        X      Y      Z
   1   6     0.03  -0.18  -0.02    -0.07  -0.30   0.07     0.12   0.29  -0.21
   2   6    -0.12  -0.12   0.12    -0.01  -0.11   0.09    -0.19  -0.04  -0.03
   3   7     0.31  -0.11   0.18     0.07   0.06  -0.08     0.33  -0.11   0.20
   4   1    -0.03   0.04  -0.10    -0.05   0.01  -0.07     0.00   0.02   0.01
   5   6     0.21  -0.06   0.18     0.24   0.05   0.29    -0.07  -0.16  -0.16
   6   1    -0.03  -0.01  -0.03    -0.04   0.03  -0.07    -0.01  -0.07   0.06
   7   6    -0.02   0.22  -0.03     0.08   0.26  -0.03    -0.10  -0.18   0.13
   8   1     0.09  -0.05   0.03     0.07  -0.01   0.08     0.02  -0.01  -0.07
   9   6     0.02   0.18  -0.09     0.01   0.10  -0.07     0.15   0.08   0.02
  10   1    -0.03   0.01  -0.09    -0.01   0.05  -0.04    -0.03  -0.07   0.00
  11   6    -0.26   0.11  -0.24    -0.21  -0.05  -0.23     0.01   0.24   0.06
  12   1     0.09  -0.03   0.02     0.02  -0.06   0.05     0.07   0.09  -0.05
  13   6    -0.15  -0.13   0.01     0.10   0.07  -0.02     0.03  -0.15   0.08
  14   6    -0.13  -0.16  -0.06     0.11   0.25  -0.00     0.15   0.17  -0.09
  15   1     0.07  -0.02   0.07    -0.08  -0.03  -0.01    -0.05  -0.09   0.05
  16   1    -0.11   0.00   0.01     0.08  -0.04   0.00     0.00  -0.02  -0.01
  17   6     0.25  -0.10   0.09    -0.30   0.23  -0.03    -0.08   0.21   0.07
  18   1    -0.09   0.03   0.02     0.06   0.02  -0.00     0.02   0.07  -0.01
  19   6     0.11   0.12  -0.12    -0.11  -0.07   0.02    -0.07   0.13  -0.12
  20   1     0.08  -0.01   0.07    -0.09   0.05  -0.01    -0.04   0.02   0.05
  21   6     0.08   0.15   0.08    -0.17  -0.27   0.00    -0.26  -0.25   0.11
  22   1    -0.04   0.03  -0.01     0.08  -0.01   0.00     0.08   0.04  -0.01
  23   6    -0.34   0.10  -0.11     0.24  -0.21   0.04    -0.06  -0.22  -0.09
                     16                     17                     18
                        a                      a                      a 
 Frequencies --   646.4640               653.7901               733.7146
 Red. masses --    10.2375                10.1173                 4.1793
 Frc consts  --     0.0000                 0.0000                 0.0000
 IR Inten    --    13.6247                 0.8164                38.8339
 Raman Activ --     0.0000                 0.0000                 0.0000
 Depolar     --     0.0000                 0.0000                 0.0000
 Atom AN      X      Y      Z        X      Y      Z        X      Y      Z
   1   6     0.19  -0.07  -0.14     0.18  -0.18  -0.07     0.07  -0.04  -0.05
   2   6    -0.18   0.08   0.12    -0.11   0.16   0.14     0.11  -0.04  -0.07
   3   7    -0.07   0.03   0.13    -0.11   0.04  -0.06     0.07  -0.01  -0.12
   4   1    -0.13   0.06   0.10    -0.14   0.05   0.13    -0.15   0.06   0.10
   5   6     0.18  -0.09  -0.14     0.16  -0.05  -0.19     0.07  -0.03  -0.05
   6   1    -0.09   0.04   0.07    -0.09   0.08   0.07    -0.33   0.16   0.24
   7   6    -0.16   0.06   0.10    -0.19   0.09   0.06     0.09  -0.04  -0.05
   8   1    -0.02   0.01   0.01    -0.05  -0.00   0.01    -0.16   0.07   0.11
   9   6     0.28  -0.11  -0.19     0.24  -0.21  -0.22    -0.21   0.08   0.14
  10   1    -0.14   0.06   0.09    -0.13   0.08   0.09    -0.15   0.07   0.11
  11   6    -0.14   0.07   0.11    -0.12  -0.04   0.18     0.07  -0.03  -0.06
  12   1    -0.02   0.01   0.01    -0.06  -0.03   0.02    -0.16   0.07   0.11
  13   6     0.00  -0.02  -0.38     0.00   0.12   0.33    -0.00   0.00   0.27
  14   6     0.01   0.00   0.21    -0.06  -0.00  -0.19    -0.01  -0.01  -0.11
  15   1     0.00   0.00   0.02     0.00   0.05  -0.05    -0.00   0.01   0.21
  16   1    -0.01   0.01   0.19     0.03  -0.01  -0.18    -0.00   0.01   0.20
  17   6     0.01  -0.03  -0.27    -0.07   0.01   0.22     0.00  -0.00  -0.10
  18   1     0.01   0.01   0.19    -0.00  -0.03  -0.16    -0.00   0.02   0.20
  19   6     0.00   0.02   0.25     0.00  -0.12  -0.19    -0.00   0.00  -0.14
  20   1     0.00  -0.00   0.02    -0.01   0.02  -0.04     0.00   0.01   0.21
  21   6     0.01  -0.01  -0.27     0.09   0.08   0.22    -0.01  -0.02  -0.10
  22   1    -0.00   0.01   0.13    -0.01  -0.04  -0.12    -0.00   0.03   0.45
  23   6    -0.02   0.02   0.20     0.12   0.05  -0.16     0.01  -0.01  -0.10
                     19                     20                     21
                        a                      a                      a 
 Frequencies --   736.8669               796.7995               817.2451
 Red. masses --     4.5742                 9.6114                 4.4104
 Frc consts  --     0.0000                 0.0000                 0.0000
 IR Inten    --     3.4099                11.6492                 6.4301
 Raman Activ --     0.0000                 0.0000                 0.0000
 Depolar     --     0.0000                 0.0000                 0.0000
 Atom AN      X      Y      Z        X      Y      Z        X      Y      Z
   1   6    -0.07  -0.05   0.12     0.01  -0.17   0.13     0.02  -0.01  -0.01
   2   6    -0.05   0.11   0.09     0.22   0.07  -0.03    -0.18   0.09   0.13
   3   7     0.08  -0.03   0.05     0.40  -0.14   0.24     0.02   0.00  -0.06
   4   1     0.16  -0.07  -0.10     0.09  -0.03  -0.06    -0.21   0.09   0.15
   5   6    -0.16   0.04  -0.05    -0.18  -0.02  -0.24     0.02  -0.01  -0.01
   6   1     0.35  -0.14  -0.22    -0.19   0.12   0.19     0.31  -0.14  -0.22
   7   6    -0.10   0.02  -0.05    -0.12  -0.00  -0.15     0.14  -0.07  -0.09
   8   1     0.12  -0.11  -0.13    -0.09  -0.08  -0.05    -0.03   0.01   0.02
   9   6     0.15  -0.11  -0.14    -0.09   0.04   0.07    -0.10   0.04   0.07
  10   1     0.13  -0.05  -0.10     0.03  -0.02  -0.08    -0.21   0.10   0.15
  11   6    -0.07  -0.04   0.11    -0.06  -0.07   0.05     0.13  -0.06  -0.10
  12   1     0.13  -0.11  -0.12    -0.05  -0.06   0.01    -0.02   0.01   0.02
  13   6    -0.01   0.06   0.22     0.01  -0.01  -0.12    -0.00   0.00   0.15
  14   6    -0.09   0.04  -0.06    -0.16   0.10  -0.02    -0.00  -0.02  -0.19
  15   1     0.00   0.06   0.20     0.02   0.07  -0.02    -0.00  -0.00   0.04
  16   1     0.01   0.01   0.19    -0.00  -0.00   0.11    -0.01   0.02   0.31
  17   6    -0.12   0.06  -0.11    -0.25   0.17  -0.02     0.01  -0.00  -0.03
  18   1    -0.01   0.01   0.17    -0.04   0.02   0.06     0.00   0.02   0.30
  19   6     0.01  -0.09  -0.12     0.02  -0.16   0.17    -0.00   0.03   0.26
  20   1    -0.01   0.07   0.19    -0.03   0.12  -0.02     0.00  -0.00   0.04
  21   6     0.09   0.05  -0.10     0.18   0.10  -0.01    -0.01  -0.01  -0.03
  22   1     0.00   0.01   0.43     0.03  -0.06  -0.29     0.01  -0.03  -0.43
  23   6     0.08   0.04  -0.10     0.06   0.08  -0.06     0.01  -0.02  -0.19
                     22                     23                     24
                        a                      a                      a 
 Frequencies --   828.2142               846.0604               855.5275
 Red. masses --     6.0398                 3.3082                 3.2915
 Frc consts  --     0.0000                 0.0000                 0.0000
 IR Inten    --     8.5455                 0.8073                 0.1442
 Raman Activ --     0.0000                 0.0000                 0.0000
 Depolar     --     0.0000                 0.0000                 0.0000
 Atom AN      X      Y      Z        X      Y      Z        X      Y      Z
   1   6    -0.05   0.09  -0.02     0.10  -0.04  -0.07    -0.10   0.04   0.07
   2   6     0.11  -0.13  -0.14     0.00  -0.01   0.00    -0.03   0.04   0.03
   3   7    -0.21   0.07  -0.12    -0.00  -0.01   0.00     0.03  -0.01   0.02
   4   1     0.29  -0.13  -0.20    -0.28   0.12   0.20     0.22  -0.09  -0.16
   5   6     0.06   0.01   0.11    -0.10   0.05   0.07     0.14  -0.06  -0.11
   6   1    -0.26   0.10   0.16    -0.00  -0.00   0.00     0.07  -0.03  -0.05
   7   6    -0.06   0.06   0.13    -0.14   0.07   0.09     0.14  -0.07  -0.10
   8   1     0.05   0.03   0.01     0.19  -0.09  -0.13    -0.26   0.12   0.18
   9   6     0.15  -0.09  -0.13    -0.00   0.00   0.01    -0.03   0.02   0.03
  10   1     0.17  -0.07  -0.08     0.28  -0.13  -0.19    -0.32   0.13   0.19
  11   6    -0.16   0.11   0.14     0.14  -0.06  -0.11    -0.10   0.04   0.07
  12   1     0.09  -0.01  -0.06    -0.18   0.09   0.13     0.16  -0.08  -0.12
  13   6    -0.01   0.03   0.20    -0.01   0.00   0.00     0.00  -0.01  -0.04
  14   6     0.06  -0.05  -0.11     0.01   0.01   0.19     0.00   0.02   0.18
  15   1    -0.01  -0.02   0.11    -0.00   0.02   0.24    -0.00   0.02   0.21
  16   1    -0.00   0.03   0.35    -0.01   0.02   0.38    -0.01   0.02   0.28
  17   6     0.11  -0.07  -0.01    -0.00   0.01   0.14    -0.01   0.02   0.18
  18   1     0.03  -0.01   0.17    -0.00  -0.02  -0.38    -0.02  -0.01  -0.39
  19   6    -0.01   0.09   0.18    -0.00  -0.00  -0.00    -0.00  -0.02  -0.05
  20   1     0.01  -0.05   0.02    -0.00  -0.02  -0.25    -0.00  -0.02  -0.33
  21   6    -0.08  -0.05  -0.06     0.01  -0.00  -0.13     0.01  -0.00  -0.12
  22   1    -0.01  -0.00  -0.29    -0.00  -0.00   0.01    -0.00   0.00   0.09
  23   6     0.01  -0.05  -0.22     0.01  -0.01  -0.19    -0.00  -0.00  -0.12
                     25                     26                     27
                        a                      a                      a 
 Frequencies --   892.4913               908.0552               908.2440
 Red. masses --    11.5756                 2.8009                 2.9643
 Frc consts  --     0.0000                 0.0000                 0.0000
 IR Inten    --     1.0256                 0.1816                 0.0149
 Raman Activ --     0.0000                 0.0000                 0.0000
 Depolar     --     0.0000                 0.0000                 0.0000
 Atom AN      X      Y      Z        X      Y      Z        X      Y      Z
   1   6     0.02   0.32  -0.17    -0.22   0.10   0.16    -0.13   0.06   0.10
   2   6    -0.12  -0.16  -0.06     0.05  -0.02  -0.04     0.03  -0.02  -0.02
   3   7    -0.12  -0.41  -0.03     0.00   0.00   0.00     0.00   0.00   0.00
   4   1     0.02   0.05   0.00    -0.30   0.12   0.21    -0.18   0.07   0.13
   5   6     0.19  -0.00   0.27     0.01  -0.01  -0.01     0.01  -0.00  -0.01
   6   1    -0.03  -0.04  -0.01    -0.16   0.07   0.11    -0.10   0.04   0.07
   7   6     0.07   0.08   0.04    -0.04   0.02   0.02    -0.02   0.01   0.01
   8   1     0.07   0.07   0.07     0.07  -0.04  -0.05     0.05  -0.02  -0.03
   9   6    -0.13  -0.19  -0.08     0.05  -0.02  -0.03     0.03  -0.01  -0.02
  10   1     0.02   0.03   0.03    -0.03   0.01   0.01    -0.02   0.01   0.01
  11   6     0.07   0.09   0.03     0.12  -0.06  -0.08     0.08  -0.04  -0.05
  12   1     0.05   0.11  -0.01     0.48  -0.22  -0.35     0.30  -0.14  -0.21
  13   6     0.02  -0.24   0.01     0.00  -0.00  -0.04    -0.00   0.00   0.06
  14   6    -0.02   0.11  -0.02     0.00   0.00   0.02    -0.01  -0.01  -0.07
  15   1     0.04   0.12  -0.00     0.01  -0.03  -0.39    -0.01   0.04   0.64
  16   1     0.01   0.05  -0.00    -0.01   0.01   0.24     0.01  -0.02  -0.39
  17   6    -0.29   0.16  -0.02    -0.00  -0.00  -0.00     0.00   0.00   0.06
  18   1    -0.02   0.04   0.01     0.00   0.00   0.03    -0.00   0.00   0.03
  19   6     0.02  -0.21   0.02     0.00  -0.00  -0.04    -0.00   0.01   0.06
  20   1    -0.05   0.11  -0.00    -0.00  -0.01  -0.07     0.00   0.00   0.01
  21   6     0.28   0.23  -0.01    -0.00   0.01   0.18     0.00  -0.03  -0.30
  22   1    -0.01  -0.05   0.00    -0.00   0.01   0.13     0.00  -0.01  -0.18
  23   6    -0.01   0.12  -0.01    -0.00  -0.01  -0.10     0.00   0.01   0.17
                     28                     29                     30
                        a                      a                      a 
 Frequencies --   908.5496               916.9480               966.4456
 Red. masses --     3.2115                 2.9109                10.7792
 Frc consts  --     0.0000                 0.0000                 0.0000
 IR Inten    --     1.3534                 0.1193                 0.0938
 Raman Activ --     0.0000                 0.0000                 0.0000
 Depolar     --     0.0000                 0.0000                 0.0000
 Atom AN      X      Y      Z        X      Y      Z        X      Y      Z
   1   6    -0.07   0.03   0.05    -0.03   0.01   0.03     0.02  -0.10   0.09
   2   6    -0.03   0.02   0.02    -0.02   0.00   0.02     0.15   0.21   0.07
   3   7     0.00  -0.01  -0.01     0.01  -0.01   0.01    -0.10   0.04  -0.06
   4   1    -0.06   0.03   0.04    -0.04   0.02   0.02    -0.03   0.09  -0.09
   5   6     0.20  -0.09  -0.14     0.15  -0.08  -0.13    -0.05   0.05  -0.10
   6   1     0.09  -0.04  -0.06     0.10  -0.05  -0.06     0.03   0.06   0.01
   7   6    -0.12   0.06   0.09    -0.13   0.06   0.08     0.06  -0.29   0.29
   8   1    -0.40   0.18   0.28    -0.36   0.16   0.24     0.02   0.07  -0.04
   9   6    -0.03   0.01   0.02    -0.02   0.02   0.02     0.05   0.02  -0.02
  10   1     0.26  -0.12  -0.17     0.33  -0.14  -0.20     0.06  -0.06   0.11
  11   6     0.06  -0.03  -0.05     0.05  -0.02  -0.04    -0.18   0.11  -0.31
  12   1     0.07  -0.03  -0.05    -0.01   0.01   0.01     0.05  -0.01   0.05
  13   6    -0.00   0.00   0.05     0.00  -0.01  -0.04    -0.01  -0.03   0.04
  14   6    -0.00   0.01   0.14    -0.01  -0.01  -0.17     0.40   0.14  -0.02
  15   1    -0.00   0.00   0.00     0.01  -0.00  -0.02     0.06  -0.03   0.01
  16   1     0.00   0.00   0.02    -0.00  -0.00  -0.04    -0.14  -0.04  -0.00
  17   6    -0.00  -0.02  -0.24    -0.01   0.03   0.22    -0.12   0.01  -0.00
  18   1    -0.01  -0.02  -0.31     0.02   0.01   0.42     0.15  -0.02   0.01
  19   6     0.00   0.01   0.05     0.00   0.00  -0.03     0.01  -0.28   0.02
  20   1    -0.00   0.03   0.51    -0.00  -0.02  -0.49    -0.06  -0.06   0.01
  21   6    -0.00   0.01   0.05     0.01  -0.00  -0.04     0.13   0.05  -0.01
  22   1     0.00  -0.01  -0.14     0.01   0.01   0.13    -0.01  -0.08   0.00
  23   6     0.01  -0.01  -0.06    -0.01   0.01   0.07    -0.38   0.08  -0.02
                     31                     32                     33
                        a                      a                      a 
 Frequencies --   973.4397              1074.5520              1075.6995
 Red. masses --    10.3378                 6.9625                 6.9541
 Frc consts  --     0.0000                 0.0000                 0.0000
 IR Inten    --    53.3532                 1.4188                 0.2471
 Raman Activ --     0.0000                 0.0000                 0.0000
 Depolar     --     0.0000                 0.0000                 0.0000
 Atom AN      X      Y      Z        X      Y      Z        X      Y      Z
   1   6     0.03  -0.00   0.05     0.07  -0.17   0.21     0.06  -0.15   0.18
   2   6     0.14   0.19   0.07    -0.22  -0.28  -0.12    -0.18  -0.23  -0.10
   3   7    -0.06  -0.17   0.00    -0.00  -0.00   0.00    -0.00   0.00  -0.00
   4   1    -0.02   0.13  -0.11     0.10   0.27  -0.01     0.09   0.23  -0.01
   5   6    -0.01   0.04  -0.04    -0.10   0.11  -0.21    -0.08   0.10  -0.18
   6   1     0.04   0.05   0.03    -0.07  -0.08  -0.05    -0.06  -0.06  -0.05
   7   6     0.07  -0.28   0.30     0.07   0.10   0.03     0.06   0.07   0.03
   8   1     0.03   0.08  -0.02     0.04   0.24  -0.09     0.04   0.21  -0.08
   9   6    -0.03  -0.08  -0.05    -0.01  -0.01  -0.02    -0.01   0.00  -0.01
  10   1     0.08  -0.04   0.14     0.14   0.11   0.14     0.10   0.09   0.11
  11   6    -0.19   0.14  -0.34     0.09   0.09   0.06     0.07   0.07   0.06
  12   1     0.06   0.04   0.06     0.14   0.02   0.18     0.12   0.02   0.15
  13   6     0.01  -0.10  -0.02     0.02  -0.02  -0.00    -0.02   0.01   0.00
  14   6    -0.38  -0.11   0.01    -0.00   0.10  -0.01     0.01  -0.11   0.01
  15   1    -0.05   0.07  -0.01    -0.15   0.11  -0.01     0.18  -0.13   0.02
  16   1     0.15   0.07  -0.00     0.08   0.23  -0.01    -0.10  -0.28   0.01
  17   6     0.05   0.02   0.00     0.22  -0.01   0.00    -0.26   0.00  -0.00
  18   1    -0.16   0.04  -0.00    -0.09   0.17  -0.01     0.10  -0.19  -0.01
  19   6    -0.02   0.23  -0.02     0.04  -0.31   0.03    -0.05   0.36  -0.03
  20   1     0.04   0.08  -0.01     0.14   0.16  -0.01    -0.17  -0.20   0.02
  21   6    -0.05   0.03  -0.00    -0.23  -0.05   0.00     0.28   0.06  -0.00
  22   1    -0.01   0.06  -0.00     0.02  -0.09   0.01    -0.04   0.11  -0.01
  23   6     0.39  -0.06   0.01    -0.04   0.11  -0.01     0.05  -0.13   0.01
                     34                     35                     36
                        a                      a                      a 
 Frequencies --  1110.0852              1116.5240              1179.9425
 Red. masses --     4.5433                 4.3761                 1.5470
 Frc consts  --     0.0000                 0.0000                 0.0000
 IR Inten    --     0.2412                 0.0110                 1.2832
 Raman Activ --     0.0000                 0.0000                 0.0000
 Depolar     --     0.0000                 0.0000                 0.0000
 Atom AN      X      Y      Z        X      Y      Z        X      Y      Z
   1   6    -0.00  -0.10   0.05    -0.01  -0.08   0.04    -0.04   0.00  -0.05
   2   6    -0.04   0.11  -0.13    -0.04   0.11  -0.13     0.02  -0.04   0.06
   3   7    -0.01  -0.01   0.02     0.06  -0.02   0.04     0.01  -0.00   0.01
   4   1     0.11   0.27   0.00     0.12   0.28   0.00     0.05   0.18  -0.03
   5   6     0.08  -0.02   0.13     0.08  -0.04   0.13     0.01   0.02   0.01
   6   1    -0.09   0.17  -0.24    -0.09   0.16  -0.23     0.19  -0.31   0.46
   7   6    -0.04  -0.18   0.07    -0.04  -0.16   0.05     0.05   0.06   0.04
   8   1     0.08   0.14   0.02     0.06   0.11   0.02     0.09   0.26  -0.04
   9   6    -0.05   0.09  -0.12    -0.06   0.07  -0.11    -0.05   0.01  -0.07
  10   1    -0.19  -0.17  -0.17    -0.17  -0.17  -0.18    -0.02  -0.01  -0.03
  11   6     0.12   0.02   0.14     0.11   0.03   0.13    -0.04  -0.07  -0.01
  12   1    -0.14  -0.11  -0.12    -0.15  -0.12  -0.13    -0.26  -0.16  -0.26
  13   6     0.16   0.02   0.01    -0.15  -0.00  -0.01    -0.06   0.04  -0.01
  14   6    -0.12  -0.15   0.01     0.10   0.15  -0.01     0.02  -0.06   0.00
  15   1     0.09  -0.19   0.02    -0.11   0.21  -0.02    -0.17   0.24  -0.02
  16   1     0.08   0.27  -0.01    -0.09  -0.30   0.01    -0.07  -0.13   0.01
  17   6    -0.14   0.05  -0.00     0.16  -0.04   0.01     0.01  -0.02   0.00
  18   1     0.12  -0.27   0.01    -0.13   0.28   0.01    -0.01   0.01   0.00
  19   6     0.17   0.04  -0.00    -0.17  -0.04   0.00     0.05   0.00   0.00
  20   1     0.03   0.15  -0.01    -0.01  -0.13   0.00    -0.08  -0.18   0.01
  21   6    -0.08  -0.07   0.00     0.07   0.07  -0.00    -0.05   0.02  -0.00
  22   1     0.30   0.03   0.00    -0.30  -0.03  -0.00     0.42   0.03   0.00
  23   6    -0.14   0.10  -0.02     0.14  -0.11   0.01     0.00   0.06  -0.00
                     37                     38                     39
                        a                      a                      a 
 Frequencies --  1180.3950              1195.4455              1196.5685
 Red. masses --     1.4868                 1.8311                 1.9903
 Frc consts  --     0.0000                 0.0000                 0.0000
 IR Inten    --     0.2190                37.0113                 4.6035
 Raman Activ --     0.0000                 0.0000                 0.0000
 Depolar     --     0.0000                 0.0000                 0.0000
 Atom AN      X      Y      Z        X      Y      Z        X      Y      Z
   1   6    -0.02  -0.01  -0.03    -0.08  -0.00  -0.11    -0.03   0.04  -0.07
   2   6     0.02  -0.03   0.04    -0.01  -0.02  -0.01    -0.01  -0.01  -0.01
   3   7     0.00   0.01  -0.00     0.03   0.08   0.02     0.04  -0.04   0.02
   4   1     0.03   0.09  -0.02     0.13   0.38  -0.05     0.07   0.22  -0.04
   5   6     0.00   0.02  -0.01    -0.02  -0.11   0.05     0.00  -0.05   0.04
   6   1     0.14  -0.23   0.34    -0.02   0.02  -0.04    -0.02   0.03  -0.04
   7   6     0.04   0.04   0.03     0.05   0.05   0.03     0.02   0.02   0.02
   8   1     0.08   0.22  -0.03    -0.15  -0.44   0.07    -0.08  -0.26   0.05
   9   6    -0.01   0.04  -0.04    -0.01  -0.05   0.01    -0.05  -0.10  -0.00
  10   1    -0.05  -0.03  -0.05     0.26   0.19   0.28     0.17   0.12   0.19
  11   6    -0.02  -0.05  -0.01     0.03   0.07  -0.00    -0.00   0.02  -0.02
  12   1    -0.18  -0.11  -0.18    -0.22  -0.13  -0.23    -0.07  -0.03  -0.08
  13   6     0.08   0.00   0.00    -0.01   0.02  -0.01     0.04   0.12  -0.01
  14   6    -0.02   0.08  -0.01    -0.01   0.05  -0.00     0.02  -0.07   0.01
  15   1     0.22  -0.32   0.03     0.14  -0.20   0.02    -0.17   0.21  -0.02
  16   1     0.07   0.13  -0.01     0.10   0.21  -0.01    -0.18  -0.36   0.02
  17   6     0.01   0.02  -0.00    -0.04  -0.06   0.00     0.09   0.07  -0.00
  18   1     0.05  -0.06   0.00    -0.12   0.19  -0.02     0.25  -0.38   0.01
  19   6    -0.07  -0.00  -0.00     0.00  -0.02   0.00    -0.00   0.02  -0.00
  20   1     0.13   0.28  -0.02    -0.12  -0.24   0.01     0.22   0.43  -0.02
  21   6     0.04  -0.04   0.00     0.06  -0.06   0.00    -0.13   0.04  -0.00
  22   1    -0.59  -0.04  -0.00     0.01  -0.00   0.00    -0.07  -0.00  -0.00
  23   6    -0.01  -0.08   0.00     0.01   0.05  -0.00    -0.04  -0.05   0.00
                     40                     41                     42
                        a                      a                      a 
 Frequencies --  1267.4275              1280.6695              1290.6594
 Red. masses --     5.3765                 6.1993                 8.1346
 Frc consts  --     0.0000                 0.0000                 0.0000
 IR Inten    --     3.4430                 3.4504                29.4037
 Raman Activ --     0.0000                 0.0000                 0.0000
 Depolar     --     0.0000                 0.0000                 0.0000
 Atom AN      X      Y      Z        X      Y      Z        X      Y      Z
   1   6     0.07   0.00   0.10     0.04  -0.09   0.12     0.07   0.14   0.01
   2   6    -0.00  -0.01   0.00    -0.02  -0.06   0.02     0.03   0.04   0.01
   3   7    -0.03  -0.03   0.03    -0.08   0.03  -0.04     0.23  -0.08   0.14
   4   1    -0.09  -0.32   0.07    -0.08  -0.28   0.06    -0.05  -0.12   0.02
   5   6    -0.02  -0.11   0.04    -0.07  -0.08  -0.05     0.04  -0.10   0.13
   6   1    -0.03   0.05  -0.08    -0.04   0.04  -0.09    -0.02   0.06  -0.06
   7   6     0.00  -0.06   0.05     0.04   0.01   0.05    -0.07  -0.10  -0.04
   8   1     0.06   0.14  -0.01    -0.01   0.01  -0.02     0.11   0.25  -0.00
   9   6    -0.12   0.22  -0.31     0.08   0.36  -0.12    -0.30  -0.15  -0.28
  10   1     0.22   0.13   0.24     0.13   0.10   0.15     0.18   0.10   0.20
  11   6     0.05   0.01   0.06     0.09   0.14   0.04    -0.04  -0.12   0.02
  12   1    -0.13  -0.09  -0.12    -0.22  -0.17  -0.19     0.04   0.05   0.02
  13   6     0.39   0.03   0.00    -0.24  -0.31   0.02    -0.27   0.34  -0.05
  14   6    -0.07  -0.04   0.00     0.05  -0.04   0.00    -0.01   0.13  -0.01
  15   1     0.09  -0.17   0.02    -0.15   0.30  -0.02     0.00  -0.06   0.00
  16   1    -0.17  -0.29   0.01     0.16   0.26  -0.01     0.05   0.12  -0.01
  17   6    -0.08  -0.09   0.01    -0.02   0.11  -0.01     0.16   0.03   0.00
  18   1    -0.21   0.27  -0.02     0.12  -0.19  -0.00     0.18  -0.23   0.01
  19   6    -0.01  -0.01   0.00     0.04   0.06  -0.00    -0.00  -0.05   0.00
  20   1     0.05   0.14  -0.01    -0.02  -0.00   0.00    -0.08  -0.26   0.02
  21   6    -0.10   0.07  -0.01     0.15   0.02   0.00    -0.03  -0.15   0.01
  22   1     0.10   0.01   0.00    -0.10   0.01  -0.00    -0.08  -0.02   0.00
  23   6    -0.06   0.05  -0.01     0.00  -0.18   0.01     0.06   0.11  -0.00
                     43                     44                     45
                        a                      a                      a 
 Frequencies --  1336.0847              1341.5224              1413.9822
 Red. masses --     8.8556                 9.4911                 8.0864
 Frc consts  --     0.0000                 0.0000                 0.0000
 IR Inten    --     4.8018                 7.6951               136.1145
 Raman Activ --     0.0000                 0.0000                 0.0000
 Depolar     --     0.0000                 0.0000                 0.0000
 Atom AN      X      Y      Z        X      Y      Z        X      Y      Z
   1   6     0.07   0.02   0.08     0.08   0.01   0.10    -0.10   0.04  -0.16
   2   6    -0.11   0.17  -0.27    -0.11   0.15  -0.25     0.08   0.14   0.02
   3   7    -0.01  -0.04  -0.01     0.01  -0.00   0.00     0.10   0.35   0.04
   4   1     0.02   0.04   0.01     0.01  -0.01   0.02     0.06   0.17  -0.02
   5   6    -0.03  -0.09   0.01    -0.04  -0.10   0.01     0.03  -0.15   0.14
   6   1     0.06  -0.10   0.16     0.05  -0.09   0.13     0.04   0.02   0.04
   7   6     0.19   0.08   0.23     0.18   0.08   0.21    -0.16  -0.08  -0.17
   8   1    -0.08  -0.23   0.03    -0.07  -0.20   0.03     0.09   0.19   0.01
   9   6    -0.08   0.18  -0.21    -0.09   0.18  -0.23    -0.07  -0.04  -0.06
  10   1    -0.05  -0.05  -0.05    -0.04  -0.04  -0.04     0.14   0.09   0.14
  11   6    -0.05  -0.26   0.08    -0.04  -0.21   0.08    -0.06  -0.24   0.08
  12   1     0.13   0.08   0.14     0.10   0.06   0.11     0.15   0.13   0.14
  13   6     0.26   0.05   0.00    -0.32  -0.05  -0.01     0.05  -0.08   0.01
  14   6    -0.20   0.20  -0.01     0.22  -0.23   0.02     0.15  -0.19   0.02
  15   1    -0.12   0.16  -0.01     0.11  -0.14   0.01    -0.11   0.22  -0.02
  16   1     0.00   0.04  -0.00     0.02  -0.00  -0.00     0.07   0.17  -0.01
  17   6    -0.04  -0.08   0.01     0.05   0.10  -0.01    -0.19  -0.07   0.01
  18   1     0.03  -0.07   0.00    -0.03   0.07  -0.00    -0.12   0.18  -0.01
  19   6     0.31   0.02   0.00    -0.34  -0.01  -0.00     0.02   0.16  -0.01
  20   1    -0.10  -0.21   0.01     0.10   0.21  -0.01     0.05   0.21  -0.01
  21   6    -0.07   0.06  -0.01     0.11  -0.08   0.01     0.18  -0.06   0.01
  22   1    -0.18  -0.02   0.00     0.18   0.02   0.00    -0.03   0.05  -0.00
  23   6    -0.16  -0.20   0.01     0.17   0.19  -0.01    -0.16  -0.21   0.01
                     46                     47                     48
                        a                      a                      a 
 Frequencies --  1451.5956              1459.6485              1483.4311
 Red. masses --     9.9606                 9.8727                 9.2125
 Frc consts  --     0.0000                 0.0000                 0.0000
 IR Inten    --    47.9519                52.1144                20.2697
 Raman Activ --     0.0000                 0.0000                 0.0000
 Depolar     --     0.0000                 0.0000                 0.0000
 Atom AN      X      Y      Z        X      Y      Z        X      Y      Z
   1   6    -0.21  -0.23  -0.14    -0.21  -0.23  -0.15    -0.12  -0.04  -0.15
   2   6    -0.01  -0.00  -0.01    -0.00   0.04  -0.03     0.09   0.16   0.02
   3   7    -0.03  -0.03   0.03     0.06  -0.02   0.04    -0.10   0.03  -0.06
   4   1     0.01  -0.06   0.05     0.02  -0.04   0.05     0.07   0.16  -0.01
   5   6     0.17   0.32   0.04     0.16   0.25   0.07    -0.07  -0.28   0.09
   6   1     0.06  -0.11   0.16     0.07  -0.10   0.16     0.03   0.04   0.01
   7   6    -0.12  -0.23  -0.02    -0.14  -0.23  -0.05    -0.09   0.03  -0.14
   8   1    -0.04  -0.15   0.05    -0.02  -0.10   0.05     0.07   0.18  -0.02
   9   6    -0.05   0.09  -0.13    -0.04   0.12  -0.13     0.21   0.28   0.11
  10   1     0.03  -0.03   0.06     0.06   0.00   0.09     0.11   0.10   0.10
  11   6     0.16   0.17   0.12     0.16   0.14   0.13    -0.03  -0.18   0.07
  12   1     0.09   0.02   0.10     0.10   0.04   0.12     0.11   0.08   0.10
  13   6     0.16   0.01   0.00    -0.18  -0.05  -0.00     0.03  -0.36   0.03
  14   6    -0.05  -0.25   0.02     0.01   0.28  -0.02    -0.16   0.06  -0.00
  15   1    -0.10   0.09  -0.01     0.12  -0.12   0.01     0.08  -0.15   0.01
  16   1    -0.07  -0.03   0.00     0.07   0.02  -0.00    -0.06  -0.16   0.01
  17   6     0.06   0.35  -0.02    -0.00  -0.32   0.02     0.18   0.25  -0.02
  18   1    -0.07   0.01  -0.00     0.10  -0.06   0.00     0.07  -0.16   0.00
  19   6     0.01  -0.01   0.00    -0.04  -0.02   0.00    -0.03  -0.18   0.01
  20   1    -0.09  -0.12   0.01     0.08   0.08  -0.01    -0.07  -0.18   0.01
  21   6     0.08  -0.32   0.02    -0.10   0.34  -0.03    -0.14   0.13  -0.01
  22   1    -0.19  -0.02  -0.00     0.20   0.01   0.00    -0.00  -0.05   0.00
  23   6    -0.07   0.25  -0.02     0.10  -0.24   0.02     0.13   0.14  -0.01
                     49                     50                     51
                        a                      a                      a 
 Frequencies --  1531.8446              1535.5843              1549.1097
 Red. masses --    11.0903                11.1056                12.0973
 Frc consts  --     0.0000                 0.0000                 0.0000
 IR Inten    --   132.1622                 9.9034              1183.1683
 Raman Activ --     0.0000                 0.0000                 0.0000
 Depolar     --     0.0000                 0.0000                 0.0000
 Atom AN      X      Y      Z        X      Y      Z        X      Y      Z
   1   6    -0.12   0.07  -0.21    -0.13   0.07  -0.22     0.05   0.08   0.03
   2   6     0.15  -0.19   0.34     0.15  -0.22   0.36    -0.01  -0.13   0.07
   3   7    -0.05  -0.17  -0.01     0.02  -0.01   0.01     0.15   0.56   0.07
   4   1     0.04   0.10  -0.00     0.03   0.08   0.00    -0.02  -0.06  -0.01
   5   6    -0.06   0.09  -0.16    -0.06   0.13  -0.17     0.02   0.16  -0.07
   6   1    -0.04   0.08  -0.11    -0.05   0.08  -0.12    -0.02   0.01  -0.04
   7   6     0.11   0.03   0.14     0.13   0.03   0.17     0.07   0.00   0.12
   8   1    -0.03   0.00  -0.04    -0.03  -0.01  -0.04    -0.03  -0.07   0.00
   9   6     0.01   0.21  -0.12    -0.07   0.15  -0.19    -0.29  -0.30  -0.21
  10   1    -0.03  -0.02  -0.03    -0.05  -0.04  -0.05    -0.06  -0.07  -0.06
  11   6    -0.02  -0.20   0.09    -0.01  -0.19   0.10    -0.01  -0.01  -0.02
  12   1     0.03   0.06   0.01     0.03   0.06   0.01    -0.03  -0.01  -0.04
  13   6     0.20   0.16  -0.01    -0.24  -0.04  -0.00     0.13  -0.45   0.04
  14   6    -0.14   0.12  -0.01     0.16  -0.13   0.01    -0.12   0.07   0.00
  15   1     0.01   0.07  -0.00    -0.01  -0.06   0.00     0.04  -0.03   0.00
  16   1     0.03   0.11  -0.00    -0.02  -0.08   0.00    -0.01  -0.06   0.00
  17   6     0.20   0.01  -0.00    -0.21  -0.03   0.00     0.12   0.13  -0.01
  18   1     0.03  -0.05   0.00    -0.03   0.07  -0.00     0.04  -0.11  -0.00
  19   6    -0.44   0.00  -0.01     0.43   0.01   0.00    -0.11  -0.09   0.01
  20   1     0.04  -0.02   0.00    -0.03   0.03  -0.00    -0.02  -0.07   0.00
  21   6     0.26  -0.06   0.01    -0.25   0.06  -0.01    -0.01   0.10  -0.01
  22   1     0.15   0.02   0.00    -0.14  -0.02  -0.00     0.04  -0.02   0.00
  23   6    -0.17  -0.16   0.01     0.16   0.13  -0.00     0.01  -0.02   0.00
                     52                     53                     54
                        a                      a                      a 
 Frequencies --  1598.0258              1621.3611              2982.9989
 Red. masses --    11.4101                11.4865                 1.7701
 Frc consts  --     0.0000                 0.0000                 0.0000
 IR Inten    --   755.2835                31.5183                92.5545
 Raman Activ --     0.0000                 0.0000                 0.0000
 Depolar     --     0.0000                 0.0000                 0.0000
 Atom AN      X      Y      Z        X      Y      Z        X      Y      Z
   1   6     0.22   0.21   0.17    -0.20  -0.19  -0.15    -0.00   0.00  -0.00
   2   6    -0.08  -0.12  -0.04     0.07   0.11   0.02    -0.01  -0.01  -0.00
   3   7    -0.00  -0.03  -0.01     0.03  -0.01   0.02    -0.00   0.00   0.00
   4   1     0.00   0.06  -0.03    -0.01  -0.07   0.03    -0.00  -0.00  -0.00
   5   6     0.15   0.31   0.01    -0.13  -0.28  -0.01     0.03  -0.00   0.05
   6   1    -0.02  -0.03  -0.01     0.02   0.02   0.01     0.03   0.04   0.01
   7   6    -0.18  -0.21  -0.12     0.18   0.20   0.13     0.00   0.01  -0.00
   8   1    -0.02  -0.08   0.03     0.02   0.07  -0.02    -0.11   0.01  -0.16
   9   6     0.08   0.12   0.04    -0.12  -0.19  -0.04    -0.00  -0.00  -0.00
  10   1     0.04   0.00   0.06    -0.04  -0.01  -0.06    -0.00  -0.03   0.02
  11   6    -0.16  -0.27  -0.05     0.16   0.30   0.03     0.00   0.00  -0.00
  12   1    -0.06  -0.02  -0.07     0.05   0.01   0.06     0.00  -0.01   0.01
  13   6    -0.01   0.15  -0.00     0.01   0.23  -0.02     0.01  -0.00   0.00
  14   6     0.06  -0.29   0.02     0.08  -0.29   0.02     0.02   0.02  -0.00
  15   1     0.06  -0.07   0.01     0.06  -0.05   0.00     0.07   0.05  -0.00
  16   1     0.05   0.04  -0.00     0.06   0.06  -0.00    -0.01   0.01  -0.00
  17   6     0.08   0.33  -0.02     0.08   0.31  -0.02    -0.23   0.11  -0.01
  18   1    -0.06   0.04  -0.00    -0.06   0.04  -0.00    -0.11  -0.08   0.01
  19   6     0.00  -0.15   0.01    -0.01  -0.13   0.01    -0.00  -0.05   0.00
  20   1    -0.05  -0.07   0.01    -0.05  -0.06   0.00     0.82  -0.39   0.03
  21   6    -0.12   0.32  -0.02    -0.10   0.30  -0.02    -0.02  -0.02   0.00
  22   1     0.01  -0.04   0.00     0.01  -0.03   0.00    -0.01   0.20  -0.01
  23   6    -0.03  -0.32   0.02    -0.06  -0.33   0.02     0.00  -0.00   0.00
                     55                     56                     57
                        a                      a                      a 
 Frequencies --  2985.3519              2988.2907              2989.8109
 Red. masses --     1.7711                 1.7593                 1.7556
 Frc consts  --     0.0000                 0.0000                 0.0000
 IR Inten    --   142.0337               126.8671                89.0856
 Raman Activ --     0.0000                 0.0000                 0.0000
 Depolar     --     0.0000                 0.0000                 0.0000
 Atom AN      X      Y      Z        X      Y      Z        X      Y      Z
   1   6     0.00   0.03  -0.01    -0.00   0.04  -0.03    -0.00   0.21  -0.13
   2   6     0.03   0.04   0.01    -0.00  -0.00  -0.00    -0.04  -0.05  -0.02
   3   7    -0.00  -0.00  -0.00     0.00   0.00  -0.00     0.00   0.00  -0.00
   4   1    -0.01   0.00  -0.01    -0.01   0.00  -0.02    -0.08   0.01  -0.11
   5   6    -0.14   0.02  -0.21    -0.01   0.00  -0.02     0.00  -0.01   0.01
   6   1    -0.12  -0.17  -0.06     0.02   0.02   0.01     0.16   0.22   0.08
   7   6    -0.00  -0.03   0.01     0.00  -0.00   0.00     0.00   0.00   0.00
   8   1     0.49  -0.06   0.75     0.04  -0.00   0.06    -0.03   0.01  -0.04
   9   6     0.00  -0.00   0.00    -0.00  -0.00   0.00     0.00  -0.00   0.00
  10   1     0.00   0.11  -0.07     0.00   0.01  -0.01    -0.00  -0.00   0.00
  11   6     0.00  -0.00   0.00     0.00   0.00   0.00     0.02   0.00   0.02
  12   1    -0.00  -0.09   0.06     0.00  -0.16   0.10     0.00  -0.75   0.48
  13   6     0.00   0.00  -0.00    -0.00  -0.00   0.00     0.00  -0.00   0.00
  14   6     0.00   0.00  -0.00    -0.00   0.00  -0.00    -0.00  -0.00   0.00
  15   1     0.08   0.06  -0.00    -0.74  -0.50   0.02     0.14   0.09  -0.00
  16   1    -0.01   0.01  -0.00     0.12  -0.06   0.01    -0.02   0.01  -0.00
  17   6    -0.05   0.02  -0.00    -0.01  -0.00   0.00     0.01  -0.00   0.00
  18   1    -0.02  -0.01   0.00    -0.00  -0.00   0.00     0.00   0.00  -0.00
  19   6    -0.00  -0.01   0.00     0.01  -0.07   0.00    -0.00   0.02  -0.00
  20   1     0.17  -0.08   0.01     0.04  -0.02   0.00    -0.04   0.02  -0.00
  21   6    -0.02  -0.02   0.00     0.20   0.14  -0.01    -0.04  -0.03   0.00
  22   1    -0.00   0.03  -0.00    -0.02   0.28  -0.02     0.01  -0.07   0.01
  23   6     0.00  -0.00   0.00    -0.02   0.02  -0.00     0.01  -0.00   0.00
                     58                     59                     60
                        a                      a                      a 
 Frequencies --  3022.1462              3023.6513              3040.8182
 Red. masses --     1.8500                 1.8483                 1.8336
 Frc consts  --     0.0000                 0.0000                 0.0000
 IR Inten    --   523.9713                77.3779                97.9624
 Raman Activ --     0.0000                 0.0000                 0.0000
 Depolar     --     0.0000                 0.0000                 0.0000
 Atom AN      X      Y      Z        X      Y      Z        X      Y      Z
   1   6     0.00   0.03  -0.02     0.00   0.05  -0.03     0.00  -0.01   0.01
   2   6     0.07   0.10   0.04     0.12   0.16   0.06     0.01   0.02   0.00
   3   7     0.00   0.00   0.00    -0.00   0.00  -0.00     0.00   0.00  -0.00
   4   1    -0.05   0.01  -0.07    -0.10   0.01  -0.14    -0.17   0.02  -0.25
   5   6     0.02  -0.00   0.02     0.03  -0.00   0.05     0.02  -0.00   0.03
   6   1    -0.26  -0.36  -0.13    -0.41  -0.57  -0.21    -0.04  -0.06  -0.02
   7   6     0.00   0.03  -0.02    -0.00   0.04  -0.03    -0.00  -0.14   0.09
   8   1    -0.05   0.01  -0.08    -0.10   0.01  -0.15    -0.06   0.01  -0.09
   9   6    -0.00  -0.00  -0.00     0.00   0.00   0.00    -0.00  -0.01   0.00
  10   1    -0.00  -0.10   0.07    -0.00  -0.15   0.10     0.01   0.50  -0.33
  11   6     0.01  -0.00   0.02     0.03  -0.01   0.04     0.05  -0.00   0.07
  12   1     0.00  -0.10   0.06     0.00  -0.17   0.11    -0.00   0.02  -0.01
  13   6    -0.00   0.00  -0.00     0.00  -0.00   0.00    -0.00  -0.01   0.00
  14   6     0.04   0.03  -0.00    -0.02  -0.01   0.00    -0.14  -0.10   0.01
  15   1    -0.16  -0.11   0.00     0.11   0.07  -0.00     0.01   0.01  -0.00
  16   1     0.13  -0.06   0.01    -0.10   0.05  -0.01     0.25  -0.12   0.01
  17   6    -0.04   0.02  -0.00     0.03  -0.02   0.00    -0.03   0.01  -0.00
  18   1    -0.15  -0.10   0.01     0.08   0.05  -0.00     0.50   0.34  -0.03
  19   6    -0.02   0.21  -0.01     0.01  -0.13   0.01     0.00   0.02  -0.00
  20   1     0.14  -0.07   0.00    -0.10   0.05  -0.00     0.10  -0.05   0.00
  21   6     0.05   0.04  -0.00    -0.03  -0.02   0.00    -0.01  -0.00   0.00
  22   1     0.05  -0.74   0.05    -0.03   0.45  -0.03     0.00  -0.08   0.01
  23   6    -0.04   0.02  -0.00     0.03  -0.01   0.00    -0.07   0.04  -0.00
                     61                     62                     63
                        a                      a                      a 
 Frequencies --  3043.4925              3048.5973              3050.6734
 Red. masses --     1.8284                 1.8435                 1.8435
 Frc consts  --     0.0000                 0.0000                 0.0000
 IR Inten    --   177.4011                31.3870                38.1695
 Raman Activ --     0.0000                 0.0000                 0.0000
 Depolar     --     0.0000                 0.0000                 0.0000
 Atom AN      X      Y      Z        X      Y      Z        X      Y      Z
   1   6     0.00  -0.01   0.01    -0.00   0.04  -0.03     0.00  -0.03   0.02
   2   6     0.01   0.01  -0.00     0.03   0.04   0.01    -0.02  -0.03  -0.01
   3   7    -0.00   0.00  -0.00     0.00   0.01   0.00    -0.00   0.00  -0.00
   4   1    -0.19   0.02  -0.28     0.36  -0.04   0.53    -0.28   0.03  -0.41
   5   6     0.02  -0.00   0.03     0.02  -0.00   0.02    -0.01   0.00  -0.02
   6   1    -0.02  -0.03  -0.01    -0.09  -0.12  -0.05     0.07   0.10   0.04
   7   6    -0.00  -0.14   0.09    -0.00  -0.07   0.05     0.00   0.06  -0.04
   8   1    -0.05   0.01  -0.08    -0.05   0.01  -0.07     0.04  -0.01   0.07
   9   6     0.00  -0.00   0.00    -0.01  -0.01  -0.01     0.01   0.01   0.00
  10   1     0.01   0.48  -0.32     0.00   0.26  -0.17    -0.00  -0.22   0.15
  11   6     0.05  -0.00   0.08    -0.10   0.01  -0.15     0.08  -0.01   0.12
  12   1    -0.00   0.03  -0.02     0.00  -0.12   0.07    -0.00   0.10  -0.06
  13   6     0.00   0.00   0.00     0.00  -0.01   0.00     0.00  -0.01   0.00
  14   6     0.14   0.10  -0.01    -0.05  -0.03   0.00    -0.07  -0.05   0.00
  15   1    -0.02  -0.02   0.00    -0.09  -0.06   0.00    -0.12  -0.08   0.00
  16   1    -0.26   0.13  -0.01    -0.49   0.24  -0.03    -0.58   0.28  -0.03
  17   6     0.03  -0.01   0.00    -0.02   0.01  -0.00    -0.03   0.01  -0.00
  18   1    -0.50  -0.33   0.03     0.17   0.11  -0.01     0.25   0.17  -0.02
  19   6    -0.00  -0.02   0.00    -0.00   0.03  -0.00    -0.00   0.05  -0.00
  20   1    -0.09   0.04  -0.00     0.05  -0.02   0.00     0.08  -0.04   0.00
  21   6     0.01   0.00  -0.00     0.03   0.02  -0.00     0.04   0.03  -0.00
  22   1    -0.00   0.05  -0.00     0.01  -0.11   0.01     0.01  -0.15   0.01
  23   6     0.07  -0.04   0.00     0.14  -0.07   0.01     0.16  -0.08   0.01
