      -----------------------------------------------------------      
     |                   =====================                   |     
     |                           x T B                           |     
     |                   =====================                   |     
     |                         S. Grimme                         |     
     |          Mulliken Center for Theoretical Chemistry        |     
     |                    University of Bonn                     |     
      -----------------------------------------------------------      

   * xtb version 6.7.1 (edcfbbe) compiled by 'albert@albert-system' on 2024-07-22

   xtb is free software: you can redistribute it and/or modify it under
   the terms of the GNU Lesser General Public License as published by
   the Free Software Foundation, either version 3 of the License, or
   (at your option) any later version.
   
   xtb is distributed in the hope that it will be useful,
   but WITHOUT ANY WARRANTY; without even the implied warranty of
   MERCHANTABILITY or FITNESS FOR A PARTICULAR PURPOSE.  See the
   GNU Lesser General Public License for more details.
   
   Cite this work as:
   * C. Bannwarth, E. Caldeweyher, S. Ehlert, A. Hansen, P. Pracht,
     J. Seibert, S. Spicher, S. Grimme, WIREs Comput. Mol. Sci., 2020, 11,
     e01493. DOI: 10.1002/wcms.1493
   
   for GFN2-xTB:
   * C. Bannwarth, S. Ehlert and S. Grimme., J. Chem. Theory Comput., 2019,
     15, 1652-1671. DOI: 10.1021/acs.jctc.8b01176
   for GFN1-xTB:
   * S. Grimme, C. Bannwarth, P. Shushkov, J. Chem. Theory Comput., 2017,
     13, 1989-2009. DOI: 10.1021/acs.jctc.7b00118
   for GFN0-xTB:
   * P. Pracht, E. Caldeweyher, S. Ehlert, S. Grimme, ChemRxiv, 2019, preprint.
     DOI: 10.26434/chemrxiv.8326202.v1
   for GFN-FF:
   * S. Spicher and S. Grimme, Angew. Chem. Int. Ed., 2020, 59, 15665-15673.
     DOI: 10.1002/anie.202004239
   
   for ALPB and GBSA implicit solvation:
   * S. Ehlert, M. Stahn, S. Spicher, S. Grimme, J. Chem. Theory Comput.,
     2021, 17, 4250-4261. DOI: 10.1021/acs.jctc.1c00471
   
   for ddCOSMO and CPCM-X implicit solvation:
   * M. Stahn, S. Ehlert, S. Grimme, J. Phys. Chem. A,
     2023, XX, XXXX-XXXX. DOI: 10.1021/acs.jpca.3c04382
   
   for DFT-D4:
   * E. Caldeweyher, C. Bannwarth and S. Grimme, J. Chem. Phys., 2017,
     147, 034112. DOI: 10.1063/1.4993215
   * E. Caldeweyher, S. Ehlert, A. Hansen, H. Neugebauer, S. Spicher,
     C. Bannwarth and S. Grimme, J. Chem. Phys., 2019, 150, 154122.
     DOI: 10.1063/1.5090222
   * E. Caldeweyher, J.-M. Mewes, S. Ehlert and S. Grimme, Phys. Chem. Chem. Phys.
     2020, 22, 8499-8512. DOI: 10.1039/D0CP00502A
   
   for sTDA-xTB:
   * S. Grimme and C. Bannwarth, J. Chem. Phys., 2016, 145, 054103.
     DOI: 10.1063/1.4959605
   
   in the mass-spec context:
   * V. Asgeirsson, C. Bauer and S. Grimme, Chem. Sci., 2017, 8, 4879.
     DOI: 10.1039/c7sc00601b
   * J. Koopman and S. Grimme, ACS Omega 2019, 4, 12, 15120-15133.
     DOI: 10.1021/acsomega.9b02011
   
   for metadynamics refer to:
   * S. Grimme, J. Chem. Theory Comput., 2019, 155, 2847-2862
     DOI: 10.1021/acs.jctc.9b00143
   
   for SPH calculations refer to:
   * S. Spicher and S. Grimme, J. Chem. Theory Comput., 2021, 17, 1701-1714
     DOI: 10.1021/acs.jctc.0c01306
   
   for ONIOM refer to:
   * C. Plett, A. Katbashev, S. Ehlert, S. Grimme, M. Bursch,
     Phys. Chem. Chem. Phys., 2023, 25, 17860-17868. DOI: 10.1039/D3CP02178E
   
   for DIPRO refer to:
   * J. Kohn, N. Gildemeister, S. Grimme, D. Fazzi, A. Hansen,
     J. Chem. Phys., 2023, just accepted.
   
   for PTB refer to:
   * S. Grimme, M. Mueller, A. Hansen, J. Chem. Phys., 2023, 158, 124111.
     DOI: 10.1063/5.0137838
   
   with help from (in alphabetical order)
   P. Atkinson, C. Bannwarth, F. Bohle, G. Brandenburg, E. Caldeweyher
   M. Checinski, S. Dohm, S. Ehlert, S. Ehrlich, I. Gerasimov, C. Hölzer
   A. Katbashev, J. Kohn, J. Koopman, C. Lavigne, S. Lehtola, F. März, M. Müller,
   F. Musil, H. Neugebauer, J. Pisarek, C. Plett, P. Pracht, F. Pultar,
   J. Seibert, P. Shushkov, S. Spicher, M. Stahn, M. Steiner, T. Strunk,
   J. Stückrath, T. Rose, and J. Unsleber
   
 * started run on 2025/10/17 at 22:24:17.342     
   ID    Z sym.   atoms
    1    6 C      1, 2, 5, 7, 9, 11, 13, 14, 17, 19, 21, 23
    2    7 N      3
    3    1 H      4, 6, 8, 10, 12, 15, 16, 18, 20, 22

           -------------------------------------------------
          |                Calculation Setup                |
           -------------------------------------------------

          program call               : xtb xyz.xyz --charge -1 --ohess
          hostname                   : m003
          coordinate file            : xyz.xyz
          omp threads                :                     2


           -------------------------------------------------
          |                 G F N 2 - x T B                 |
           -------------------------------------------------

        Reference                      10.1021/acs.jctc.8b01176
      * Hamiltonian:
        H0-scaling (s, p, d)           1.850000    2.230000    2.230000
        zeta-weighting                 0.500000
      * Dispersion:
        s8                             2.700000
        a1                             0.520000
        a2                             5.000000
        s9                             5.000000
      * Repulsion:
        kExp                           1.500000    1.000000
        rExp                           1.000000
      * Coulomb:
        alpha                          2.000000
        third order                    shell-resolved
        anisotropic                    true
        a3                             3.000000
        a5                             4.000000
        cn-shift                       1.200000
        cn-exp                         4.000000
        max-rad                        5.000000


          ...................................................
          :                      SETUP                      :
          :.................................................:
          :  # basis functions                  62          :
          :  # atomic orbitals                  62          :
          :  # shells                           36          :
          :  # electrons                        64          :
          :  max. iterations                   250          :
          :  Hamiltonian                  GFN2-xTB          :
          :  restarted?                      false          :
          :  GBSA solvation                  false          :
          :  PC potential                    false          :
          :  electronic temp.          300.0000000     K    :
          :  accuracy                    1.0000000          :
          :  -> integral cutoff          0.2500000E+02      :
          :  -> integral neglect         0.1000000E-07      :
          :  -> SCF convergence          0.1000000E-05 Eh   :
          :  -> wf. convergence          0.1000000E-03 e    :
          :  Broyden damping             0.4000000          :
          :  net charge                         -1          :
          :  unpaired electrons                  0          :
          ...................................................

 iter      E             dE          RMSdq      gap      omega  full diag
   1    -34.4329817 -0.344330E+02  0.412E+00    2.91       0.0  T
   2    -34.4679232 -0.349414E-01  0.236E+00    2.23       1.0  T
   3    -34.4531793  0.147438E-01  0.160E+00    2.81       1.0  T
   4    -34.4915832 -0.384039E-01  0.318E-01    2.59       1.0  T
   5    -34.4924873 -0.904090E-03  0.812E-02    2.52       1.0  T
   6    -34.4925604 -0.731089E-04  0.309E-02    2.54       1.0  T
   7    -34.4925640 -0.357320E-05  0.173E-02    2.54       1.2  T
   8    -34.4925651 -0.107973E-05  0.397E-03    2.54       5.3  T
   9    -34.4925654 -0.323157E-06  0.111E-03    2.54      18.8  T
  10    -34.4925654 -0.416822E-08  0.562E-04    2.54      37.1  T
  11    -34.4925654 -0.259682E-08  0.218E-04    2.54      95.7  T

   *** convergence criteria satisfied after 11 iterations ***

         #    Occupation            Energy/Eh            Energy/eV
      -------------------------------------------------------------
         1        2.0000           -0.4784817             -13.0202
       ...           ...                  ...                  ...
        26        2.0000           -0.2702901              -7.3550
        27        2.0000           -0.2530220              -6.8851
        28        2.0000           -0.2393477              -6.5130
        29        2.0000           -0.2388146              -6.4985
        30        2.0000           -0.2371743              -6.4538
        31        2.0000           -0.1682081              -4.5772
        32        2.0000           -0.1593368              -4.3358 (HOMO)
        33                         -0.0661221              -1.7993 (LUMO)
        34                         -0.0640992              -1.7442
        35                         -0.0586328              -1.5955
        36                         -0.0168315              -0.4580
        37                          0.0631369               1.7180
       ...                                ...                  ...
        62                          0.8711318              23.7047
      -------------------------------------------------------------
                  HL-Gap            0.0932147 Eh            2.5365 eV
             Fermi-level           -0.1127295 Eh           -3.0675 eV

 SCC (total)                   0 d,  0 h,  0 min,  0.046 sec
 SCC setup                      ...        0 min,  0.000 sec (  0.757%)
 Dispersion                     ...        0 min,  0.000 sec (  0.899%)
 classical contributions        ...        0 min,  0.000 sec (  0.119%)
 integral evaluation            ...        0 min,  0.003 sec (  6.436%)
 iterations                     ...        0 min,  0.037 sec ( 78.633%)
 molecular gradient             ...        0 min,  0.006 sec ( 12.677%)
 printout                       ...        0 min,  0.000 sec (  0.390%)

         :::::::::::::::::::::::::::::::::::::::::::::::::::::
         ::                     SUMMARY                     ::
         :::::::::::::::::::::::::::::::::::::::::::::::::::::
         :: total energy             -33.891565161526 Eh    ::
         :: gradient norm              0.084277556015 Eh/a0 ::
         :: HOMO-LUMO gap              2.536501069491 eV    ::
         ::.................................................::
         :: SCC energy               -34.492661070580 Eh    ::
         :: -> isotropic ES            0.101101830626 Eh    ::
         :: -> anisotropic ES          0.025256770010 Eh    ::
         :: -> anisotropic XC          0.022267439546 Eh    ::
         :: -> dispersion             -0.023524074262 Eh    ::
         :: repulsion energy           0.601095909054 Eh    ::
         :: add. restraining           0.000000000000 Eh    ::
         :: total charge              -1.000000000000 e     ::
         :::::::::::::::::::::::::::::::::::::::::::::::::::::

      ----------------------------------------------------------- 
     |                   =====================                   |
     |                        A N C O P T                        |
     |                   =====================                   |
     |               Approximate Normal Coordinate               |
     |                Rational Function Optimizer                |
      ----------------------------------------------------------- 
      ----------------------------------------------------------- 
     |                   =====================                   |
     |                        A N C O P T                        |
     |                   =====================                   |
     |               Approximate Normal Coordinate               |
     |                Rational Function Optimizer                |
      ----------------------------------------------------------- 

          ...................................................
          :                      SETUP                      :
          :.................................................:
          :   optimization level            normal          :
          :   max. optcycles                   200          :
          :   ANC micro-cycles                  20          :
          :   degrees of freedom                63          :
          :.................................................:
          :   RF solver                   davidson          :
          :   write xtbopt.log                true          :
          :   linear?                        false          :
          :   energy convergence         0.5000000E-05 Eh   :
          :   grad. convergence          0.1000000E-02 Eh/α :
          :   maxmium RF displ.          1.0000000          :
          :   Hlow (freq-cutoff)         0.1000000E-01      :
          :   Hmax (freq-cutoff)         5.0000000          :
          :   S6 in model hess.         20.0000000          :
          ...................................................

generating ANC from exact Hessian ...
Using Lindh-Hessian (1995)
 Shifting diagonal of input Hessian by   9.035134764865622E-003
 Lowest  eigenvalues of input Hessian
    0.000000    0.000000    0.000000    0.000000    0.000000    0.000000
    0.010000    0.010705    0.011452    0.016269    0.022976    0.023496
    0.024192    0.030354    0.031975    0.032635    0.034211    0.035092
 Highest eigenvalues
    1.842442    1.864533    1.936266    1.953695    2.020680    2.198801
 

........................................................................
.............................. CYCLE    1 ..............................
........................................................................

 iter      E             dE          RMSdq      gap      omega  full diag
   1    -34.4925654 -0.344926E+02  0.792E-05    2.54       0.0  T
   2    -34.4925654 -0.525802E-11  0.473E-05    2.54     441.2  T
   3    -34.4925654  0.154188E-11  0.153E-05    2.54    1359.3  T
     SCC iter.                  ...        0 min,  0.002 sec
     gradient                   ...        0 min,  0.005 sec
 * total energy  :   -33.8915652 Eh     change       -0.2052758E-09 Eh
   gradient norm :     0.0842786 Eh/α   predicted     0.0000000E+00 (-100.00%)
   displ. norm   :     0.1691904 α      lambda       -0.5495427E-02
   maximum displ.:     0.1053065 α      in ANC's #1, #10, #11, ...

........................................................................
.............................. CYCLE    2 ..............................
........................................................................

 iter      E             dE          RMSdq      gap      omega  full diag
   1    -34.5117811 -0.345118E+02  0.156E-01    2.68       0.0  T
   2    -34.5119029 -0.121734E-03  0.929E-02    2.72       1.0  T
   3    -34.5119548 -0.519329E-04  0.525E-02    2.71       1.0  T
   4    -34.5119593 -0.451622E-05  0.122E-02    2.71       1.7  T
   5    -34.5119624 -0.308588E-05  0.364E-03    2.71       5.7  T
   6    -34.5119626 -0.197282E-06  0.154E-03    2.71      13.5  T
   7    -34.5119626 -0.310964E-07  0.506E-04    2.71      41.2  T
   8    -34.5119626 -0.647731E-10  0.192E-04    2.71     108.7  T
     SCC iter.                  ...        0 min,  0.006 sec
     gradient                   ...        0 min,  0.004 sec
 * total energy  :   -33.8952691 Eh     change       -0.3703924E-02 Eh
   gradient norm :     0.0322761 Eh/α   predicted    -0.2826863E-02 ( -23.68%)
   displ. norm   :     0.2166972 α      lambda       -0.1509508E-02
   maximum displ.:     0.1972644 α      in ANC's #1, #10, #4, ...

........................................................................
.............................. CYCLE    3 ..............................
........................................................................

 iter      E             dE          RMSdq      gap      omega  full diag
   1    -34.5199695 -0.345200E+02  0.135E-01    2.68       0.0  T
   2    -34.5200489 -0.793167E-04  0.832E-02    2.71       1.0  T
   3    -34.5200862 -0.373253E-04  0.474E-02    2.70       1.0  T
   4    -34.5200923 -0.615449E-05  0.121E-02    2.70       1.7  T
   5    -34.5200959 -0.350993E-05  0.275E-03    2.70       7.6  T
   6    -34.5200960 -0.136837E-06  0.100E-03    2.70      20.8  T
   7    -34.5200960 -0.920078E-08  0.314E-04    2.70      66.4  T
   8    -34.5200960  0.166906E-10  0.111E-04    2.70     187.7  T
     SCC iter.                  ...        0 min,  0.005 sec
     gradient                   ...        0 min,  0.004 sec
 * total energy  :   -33.8961872 Eh     change       -0.9181270E-03 Eh
   gradient norm :     0.0059784 Eh/α   predicted    -0.7906658E-03 ( -13.88%)
   displ. norm   :     0.2075340 α      lambda       -0.4289542E-03
   maximum displ.:     0.2009155 α      in ANC's #1, #4, #18, ...

........................................................................
.............................. CYCLE    4 ..............................
........................................................................

 iter      E             dE          RMSdq      gap      omega  full diag
   1    -34.5199196 -0.345199E+02  0.100E-01    2.70       0.0  T
   2    -34.5199349 -0.152827E-04  0.614E-02    2.71       1.0  T
   3    -34.5199291  0.579411E-05  0.335E-02    2.70       1.0  T
   4    -34.5199432 -0.141259E-04  0.601E-03    2.70       3.5  T
   5    -34.5199442 -0.994669E-06  0.122E-03    2.70      17.1  T
   6    -34.5199443 -0.198357E-07  0.545E-04    2.70      38.2  T
   7    -34.5199443 -0.158038E-08  0.171E-04    2.70     122.0  T
     SCC iter.                  ...        0 min,  0.005 sec
     gradient                   ...        0 min,  0.005 sec
 * total energy  :   -33.8965550 Eh     change       -0.3677843E-03 Eh
   gradient norm :     0.0091020 Eh/α   predicted    -0.2237181E-03 ( -39.17%)
   displ. norm   :     0.2066535 α      lambda       -0.3861565E-03
   maximum displ.:     0.1963148 α      in ANC's #1, #4, #2, ...

........................................................................
.............................. CYCLE    5 ..............................
........................................................................

 iter      E             dE          RMSdq      gap      omega  full diag
   1    -34.5184629 -0.345185E+02  0.931E-02    2.71       0.0  T
   2    -34.5184665 -0.362739E-05  0.558E-02    2.72       1.0  T
   3    -34.5184564  0.101099E-04  0.214E-02    2.71       1.0  T
   4    -34.5184684 -0.119991E-04  0.306E-03    2.71       6.8  T
   5    -34.5184686 -0.253749E-06  0.806E-04    2.71      25.9  T
   6    -34.5184686 -0.292246E-08  0.445E-04    2.71      46.9  T
     SCC iter.                  ...        0 min,  0.004 sec
     gradient                   ...        0 min,  0.005 sec
 * total energy  :   -33.8969021 Eh     change       -0.3471197E-03 Eh
   gradient norm :     0.0079480 Eh/α   predicted    -0.2013263E-03 ( -42.00%)
   displ. norm   :     0.2152393 α      lambda       -0.3604589E-03
   maximum displ.:     0.2023873 α      in ANC's #1, #4, #2, ...

........................................................................
.............................. CYCLE    6 ..............................
........................................................................

 iter      E             dE          RMSdq      gap      omega  full diag
   1    -34.5179544 -0.345180E+02  0.931E-02    2.73       0.0  T
   2    -34.5179556 -0.117383E-05  0.550E-02    2.73       1.0  T
   3    -34.5179503  0.523482E-05  0.151E-02    2.73       1.4  T
   4    -34.5179564 -0.602355E-05  0.151E-03    2.73      13.8  T
   5    -34.5179564 -0.377091E-07  0.700E-04    2.73      29.8  T
   6    -34.5179564 -0.704844E-09  0.308E-04    2.73      67.8  T
     SCC iter.                  ...        0 min,  0.004 sec
     gradient                   ...        0 min,  0.004 sec
 * total energy  :   -33.8972367 Eh     change       -0.3346082E-03 Eh
   gradient norm :     0.0057377 Eh/α   predicted    -0.1885809E-03 ( -43.64%)
   displ. norm   :     0.2236615 α      lambda       -0.3524091E-03
   maximum displ.:     0.2080466 α      in ANC's #1, #4, #2, ...

........................................................................
.............................. CYCLE    7 ..............................
........................................................................

 iter      E             dE          RMSdq      gap      omega  full diag
   1    -34.5183492 -0.345183E+02  0.951E-02    2.74       0.0  T
   2    -34.5183501 -0.876630E-06  0.560E-02    2.74       1.0  T
   3    -34.5183448  0.526237E-05  0.157E-02    2.74       1.3  T
   4    -34.5183509 -0.605312E-05  0.114E-03    2.74      18.4  T
   5    -34.5183509 -0.100188E-07  0.635E-04    2.74      32.8  T
   6    -34.5183509 -0.471452E-09  0.230E-04    2.74      90.6  T
     SCC iter.                  ...        0 min,  0.004 sec
     gradient                   ...        0 min,  0.004 sec
 * total energy  :   -33.8975690 Eh     change       -0.3322998E-03 Eh
   gradient norm :     0.0039698 Eh/α   predicted    -0.1850215E-03 ( -44.32%)
   displ. norm   :     0.2370700 α      lambda       -0.3530773E-03
   maximum displ.:     0.2187395 α      in ANC's #1, #4, #3, ...

........................................................................
.............................. CYCLE    8 ..............................
........................................................................

 iter      E             dE          RMSdq      gap      omega  full diag
   1    -34.5192176 -0.345192E+02  0.990E-02    2.75       0.0  T
   2    -34.5192184 -0.806974E-06  0.582E-02    2.75       1.0  T
   3    -34.5192124  0.592765E-05  0.164E-02    2.75       1.3  T
   4    -34.5192192 -0.679399E-05  0.105E-03    2.75      19.8  T
   5    -34.5192192 -0.214814E-08  0.603E-04    2.75      34.6  T
   6    -34.5192192 -0.136438E-08  0.209E-04    2.75      99.8  T
     SCC iter.                  ...        0 min,  0.004 sec
     gradient                   ...        0 min,  0.004 sec
 * total energy  :   -33.8979024 Eh     change       -0.3334102E-03 Eh
   gradient norm :     0.0031380 Eh/α   predicted    -0.1864935E-03 ( -44.06%)
   displ. norm   :     0.2495334 α      lambda       -0.3431102E-03
   maximum displ.:     0.2288912 α      in ANC's #1, #3, #4, ...

........................................................................
.............................. CYCLE    9 ..............................
........................................................................

 iter      E             dE          RMSdq      gap      omega  full diag
   1    -34.5200999 -0.345201E+02  0.102E-01    2.76       0.0  T
   2    -34.5201008 -0.959504E-06  0.598E-02    2.76       1.0  T
   3    -34.5200937  0.710602E-05  0.176E-02    2.76       1.2  T
   4    -34.5201019 -0.813645E-05  0.121E-03    2.76      17.3  T
   5    -34.5201019 -0.779764E-08  0.709E-04    2.76      29.4  T
   6    -34.5201019 -0.181455E-08  0.273E-04    2.76      76.4  T
     SCC iter.                  ...        0 min,  0.004 sec
     gradient                   ...        0 min,  0.004 sec
 * total energy  :   -33.8982247 Eh     change       -0.3223033E-03 Eh
   gradient norm :     0.0025979 Eh/α   predicted    -0.1822385E-03 ( -43.46%)
   displ. norm   :     0.2566057 α      lambda       -0.3176320E-03
   maximum displ.:     0.2343497 α      in ANC's #1, #3, #4, ...

........................................................................
.............................. CYCLE   10 ..............................
........................................................................

 iter      E             dE          RMSdq      gap      omega  full diag
   1    -34.5207789 -0.345208E+02  0.102E-01    2.77       0.0  T
   2    -34.5207802 -0.123526E-05  0.599E-02    2.77       1.0  T
   3    -34.5207721  0.811343E-05  0.189E-02    2.77       1.1  T
   4    -34.5207814 -0.932552E-05  0.145E-03    2.77      14.4  T
   5    -34.5207814 -0.227119E-07  0.775E-04    2.77      26.9  T
   6    -34.5207814 -0.178812E-08  0.342E-04    2.77      61.0  T
     SCC iter.                  ...        0 min,  0.004 sec
     gradient                   ...        0 min,  0.004 sec
 * total energy  :   -33.8985211 Eh     change       -0.2963847E-03 Eh
   gradient norm :     0.0019557 Eh/α   predicted    -0.1692819E-03 ( -42.88%)
   displ. norm   :     0.3909284 α      lambda       -0.2852755E-03
   maximum displ.:     0.3558618 α      in ANC's #1, #3, #4, ...

........................................................................
.............................. CYCLE   11 ..............................
........................................................................

 iter      E             dE          RMSdq      gap      omega  full diag
   1    -34.5210467 -0.345210E+02  0.152E-01    2.78       0.0  T
   2    -34.5210500 -0.336323E-05  0.896E-02    2.78       1.0  T
   3    -34.5210285  0.215575E-04  0.306E-02    2.77       1.0  T
   4    -34.5210533 -0.248407E-04  0.248E-03    2.78       8.4  T
   5    -34.5210534 -0.924605E-07  0.119E-03    2.78      17.5  T
   6    -34.5210534 -0.413321E-08  0.567E-04    2.78      36.8  T
   7    -34.5210534 -0.267971E-08  0.163E-04    2.78     127.6  T
     SCC iter.                  ...        0 min,  0.004 sec
     gradient                   ...        0 min,  0.004 sec
 * total energy  :   -33.8989002 Eh     change       -0.3790378E-03 Eh
   gradient norm :     0.0018854 Eh/α   predicted    -0.1523364E-03 ( -59.81%)
   displ. norm   :     0.3923582 α      lambda       -0.2332950E-03
   maximum displ.:     0.3579395 α      in ANC's #1, #3, #4, ...

........................................................................
.............................. CYCLE   12 ..............................
........................................................................

 iter      E             dE          RMSdq      gap      omega  full diag
   1    -34.5211948 -0.345212E+02  0.151E-01    2.79       0.0  T
   2    -34.5211978 -0.299926E-05  0.889E-02    2.79       1.0  T
   3    -34.5211785  0.193219E-04  0.290E-02    2.79       1.0  T
   4    -34.5212007 -0.222417E-04  0.233E-03    2.79       9.0  T
   5    -34.5212008 -0.694337E-07  0.122E-03    2.79      17.1  T
   6    -34.5212008 -0.540732E-08  0.534E-04    2.79      39.1  T
   7    -34.5212008 -0.234074E-08  0.166E-04    2.79     125.7  T
     SCC iter.                  ...        0 min,  0.005 sec
     gradient                   ...        0 min,  0.004 sec
 * total energy  :   -33.8991983 Eh     change       -0.2981522E-03 Eh
   gradient norm :     0.0023517 Eh/α   predicted    -0.1246323E-03 ( -58.20%)
   displ. norm   :     0.2946796 α      lambda       -0.2012404E-03
   maximum displ.:     0.2701956 α      in ANC's #1, #3, #32, ...

........................................................................
.............................. CYCLE   13 ..............................
........................................................................

 iter      E             dE          RMSdq      gap      omega  full diag
   1    -34.5213625 -0.345214E+02  0.114E-01    2.79       0.0  T
   2    -34.5213643 -0.179995E-05  0.675E-02    2.79       1.0  T
   3    -34.5213505  0.137294E-04  0.237E-02    2.79       1.0  T
   4    -34.5213663 -0.157460E-04  0.181E-03    2.79      11.5  T
   5    -34.5213663 -0.529922E-07  0.839E-04    2.79      24.8  T
   6    -34.5213663 -0.975639E-09  0.396E-04    2.79      52.6  T
     SCC iter.                  ...        0 min,  0.004 sec
     gradient                   ...        0 min,  0.004 sec
 * total energy  :   -33.8993643 Eh     change       -0.1660219E-03 Eh
   gradient norm :     0.0027550 Eh/α   predicted    -0.1093626E-03 ( -34.13%)
   displ. norm   :     0.4142977 α      lambda       -0.2137754E-03
   maximum displ.:     0.3821639 α      in ANC's #1, #3, #32, ...

........................................................................
.............................. CYCLE   14 ..............................
........................................................................

 iter      E             dE          RMSdq      gap      omega  full diag
   1    -34.5209429 -0.345209E+02  0.161E-01    2.78       0.0  T
   2    -34.5209457 -0.283893E-05  0.948E-02    2.78       1.0  T
   3    -34.5209296  0.161860E-04  0.269E-02    2.78       1.0  T
   4    -34.5209482 -0.186510E-04  0.230E-03    2.78       9.1  T
   5    -34.5209483 -0.400817E-07  0.136E-03    2.78      15.3  T
   6    -34.5209483 -0.117161E-07  0.538E-04    2.78      38.8  T
   7    -34.5209483 -0.176914E-08  0.193E-04    2.78     108.2  T
     SCC iter.                  ...        0 min,  0.005 sec
     gradient                   ...        0 min,  0.004 sec
 * total energy  :   -33.8995010 Eh     change       -0.1367149E-03 Eh
   gradient norm :     0.0033461 Eh/α   predicted    -0.1252362E-03 (  -8.40%)
   displ. norm   :     0.2269902 α      lambda       -0.7079341E-04
   maximum displ.:     0.2097987 α      in ANC's #1, #3, #32, ...

........................................................................
.............................. CYCLE   15 ..............................
........................................................................

 iter      E             dE          RMSdq      gap      omega  full diag
   1    -34.5217906 -0.345218E+02  0.903E-02    2.78       0.0  T
   2    -34.5217915 -0.902734E-06  0.532E-02    2.78       1.0  T
   3    -34.5217846  0.685740E-05  0.165E-02    2.77       1.3  T
   4    -34.5217925 -0.782607E-05  0.132E-03    2.78      15.8  T
   5    -34.5217925 -0.250861E-07  0.650E-04    2.78      32.1  T
   6    -34.5217925 -0.510987E-09  0.269E-04    2.78      77.5  T
     SCC iter.                  ...        0 min,  0.004 sec
     gradient                   ...        0 min,  0.004 sec
 * total energy  :   -33.8995400 Eh     change       -0.3895052E-04 Eh
   gradient norm :     0.0024855 Eh/α   predicted    -0.3722496E-04 (  -4.43%)
   displ. norm   :     0.0650942 α      lambda       -0.2009444E-04
   maximum displ.:     0.0584967 α      in ANC's #1, #32, #35, ...

........................................................................
.............................. CYCLE   16 ..............................
........................................................................

 iter      E             dE          RMSdq      gap      omega  full diag
   1    -34.5234443 -0.345234E+02  0.286E-02    2.78       0.0  T
   2    -34.5234445 -0.179717E-06  0.170E-02    2.78       1.2  T
   3    -34.5234436  0.889479E-06  0.623E-03    2.78       3.3  T
   4    -34.5234447 -0.102593E-05  0.755E-04    2.78      27.6  T
   5    -34.5234447 -0.142054E-07  0.264E-04    2.78      79.0  T
   6    -34.5234447  0.224532E-11  0.120E-04    2.78     174.0  T
     SCC iter.                  ...        0 min,  0.004 sec
     gradient                   ...        0 min,  0.004 sec
 * total energy  :   -33.8995507 Eh     change       -0.1066359E-04 Eh
   gradient norm :     0.0011579 Eh/α   predicted    -0.1009313E-04 (  -5.35%)
   displ. norm   :     0.0512729 α      lambda       -0.4838137E-05
   maximum displ.:     0.0452894 α      in ANC's #1, #2, #4, ...

........................................................................
.............................. CYCLE   17 ..............................
........................................................................

 iter      E             dE          RMSdq      gap      omega  full diag
   1    -34.5236993 -0.345237E+02  0.233E-02    2.78       0.0  T
   2    -34.5236994 -0.103501E-06  0.137E-02    2.77       1.5  T
   3    -34.5236989  0.556735E-06  0.500E-03    2.78       4.2  T
   4    -34.5236995 -0.644170E-06  0.522E-04    2.77      39.9  T
   5    -34.5236995 -0.533404E-08  0.220E-04    2.77      95.0  T
     SCC iter.                  ...        0 min,  0.003 sec
     gradient                   ...        0 min,  0.004 sec
 * total energy  :   -33.8995539 Eh     change       -0.3285977E-05 Eh
   gradient norm :     0.0011828 Eh/α   predicted    -0.2422681E-05 ( -26.27%)
   displ. norm   :     0.0467856 α      lambda       -0.4809940E-05
   maximum displ.:     0.0375630 α      in ANC's #1, #2, #3, ...

........................................................................
.............................. CYCLE   18 ..............................
........................................................................

 iter      E             dE          RMSdq      gap      omega  full diag
   1    -34.5232421 -0.345232E+02  0.229E-02    2.77       0.0  T
   2    -34.5232422 -0.446473E-07  0.135E-02    2.77       1.5  T
   3    -34.5232420  0.212039E-06  0.286E-03    2.77       7.3  T
   4    -34.5232422 -0.240438E-06  0.341E-04    2.77      61.2  T
   5    -34.5232422 -0.187774E-08  0.164E-04    2.77     126.9  T
     SCC iter.                  ...        0 min,  0.003 sec
     gradient                   ...        0 min,  0.004 sec
 * total energy  :   -33.8995582 Eh     change       -0.4228450E-05 Eh
   gradient norm :     0.0007968 Eh/α   predicted    -0.2411041E-05 ( -42.98%)
   displ. norm   :     0.0540447 α      lambda       -0.4069576E-05
   maximum displ.:     0.0338039 α      in ANC's #3, #1, #2, ...

   *** GEOMETRY OPTIMIZATION CONVERGED AFTER 18 ITERATIONS ***

------------------------------------------------------------------------
 total energy gain   :        -0.0079930 Eh       -5.0157 kcal/mol
 total RMSD          :         0.7738002 a0        0.4095 Å
 total power (kW/mol):        -1.1658701 (step) -105.3974 (real)
------------------------------------------------------------------------

 ANCopt (total)                0 d,  0 h,  0 min,  0.199 sec
 optimizer setup                ...        0 min,  0.002 sec (  0.856%)
 model hessian                  ...        0 min,  0.005 sec (  2.355%)
 ANC generation                 ...        0 min,  0.001 sec (  0.291%)
 coordinate transformation      ...        0 min,  0.000 sec (  0.073%)
 single point calculation       ...        0 min,  0.189 sec ( 94.877%)
 optimization log               ...        0 min,  0.001 sec (  0.653%)
 hessian update                 ...        0 min,  0.000 sec (  0.101%)
 rational function              ...        0 min,  0.001 sec (  0.457%)

================
 final structure:
================
23
 xtb: 6.7.1 (edcfbbe)
C           -7.43802582618036       -3.54640328507294       -3.11504438477635
C           -8.22331321187092       -3.46958129584167       -4.25942377886438
N           -5.80732975212180       -0.30039293223347       -3.04677458358264
H           -6.05979732335361       -2.55264999278779       -1.81943035535635
C           -8.20402574450201       -2.29425507110621       -5.00000575379886
H           -8.83114754195178       -4.31063508332044       -4.57206538831141
C           -7.44610838358110       -1.21836184313798       -4.60521558785340
H           -8.79934441047758       -2.22590240786927       -5.90645844769322
C           -6.65088308216551       -1.26148276266938       -3.43033691679955
H           -7.42834712502835       -0.31799949308028       -5.20735052085932
C           -6.66982256466790       -2.48179268987065       -2.71098491210468
H           -7.43607807276124       -4.46205795063673       -2.53052957460157
C           -5.97038982403073        1.00821570976929       -3.25126706115143
C           -7.22598265914508        1.66856773112928       -3.30077218553606
H           -4.03304302913404        3.81822910920445       -3.40100861121969
H           -3.85398020176681        1.37220518515535       -3.22815347912850
C           -7.31585409202104        3.03671882422572       -3.38849443517287
H           -8.12664871229669        1.06933178598976       -3.24342233245572
C           -6.17608269206283        3.82986733763935       -3.43555491959949
H           -8.29477472237452        3.50779636710837       -3.42024916293612
C           -4.93323080294472        3.21054564325849       -3.37300210267220
H           -6.25514002832234        4.90811656238362       -3.51184229640334
C           -4.82678319723739        1.84425155176281       -3.27958620912444
 
 Bond Distances (Angstroems)
 ---------------------------
C1-C2=1.3900         C1-C11=1.3736        C1-H12=1.0863        C2-C1=1.3900         C2-C5=1.3893         C2-H6=1.0838         
N3-C9=1.3351         N3-C13=1.3345        H4-C11=1.0826        C5-C2=1.3893         C5-C7=1.3740         C5-H8=1.0866         
H6-C2=1.0838         C7-C5=1.3740         C7-C9=1.4194         C7-H10=1.0833        H8-C5=1.0866         C9-N3=1.3351         
C9-C7=1.4194         C9-C11=1.4167        H10-C7=1.0833        C11-C1=1.3736        C11-H4=1.0826        C11-C9=1.4167        
H12-C1=1.0863        C13-N3=1.3345        C13-C14=1.4195       C13-C23=1.4169       C14-C13=1.4195       C14-C17=1.3739       
C14-H18=1.0833       H15-C21=1.0865       H16-C23=1.0825       C17-C14=1.3739       C17-C19=1.3894       C17-H20=1.0868       
H18-C14=1.0833       C19-C17=1.3894       C19-C21=1.3900       C19-H22=1.0838       H20-C17=1.0868       C21-H15=1.0865       
C21-C19=1.3900       C21-C23=1.3736       H22-C19=1.0838       C23-C13=1.4169       C23-H16=1.0825       C23-C21=1.3736       
 C  H  Rav=1.0846 sigma=0.0017  Rmin=1.0825  Rmax=1.0868    10
 C  C  Rav=1.3939 sigma=0.0184  Rmin=1.3736  Rmax=1.4195    12
 N  C  Rav=1.3348 sigma=0.0003  Rmin=1.3345  Rmax=1.3351     2
 
 selected bond angles (degree)
 --------------------
C11-C1-C2=121.02               H12-C1-C2=119.38               H12-C1-C11=119.60              C5-C2-C1=118.54                
H6-C2-C1=120.76                H6-C2-C5=120.70                C13-N3-C9=125.78               C7-C5-C2=121.13                
H8-C5-C2=119.36                H8-C5-C7=119.51                C9-C7-C5=121.54                H10-C7-C5=120.01               
H10-C7-C9=118.43               C7-C9-N3=124.75                C11-C9-N3=118.86               C11-C9-C7=116.04               
 
 selected dihedral angles (degree)
 ---------------------------------
C5-C2-C1-C11=  0.76           C5-C2-C1-H12=180.53           H6-C2-C1-C11=180.27           H6-C2-C1-H12=  0.03           
C7-C5-C2-C1=358.91            C7-C5-C2-H6=179.40            H8-C5-C2-C1=178.93            H8-C5-C2-H6=359.43            
C9-C7-C5-C2=  0.14            C9-C7-C5-H8=180.11            H10-C7-C5-C2=178.73           H10-C7-C5-H8=358.70           
C7-C9-N3-C13= 33.11           C11-C9-N3-C13=205.99          N3-C9-C7-C5=174.15            N3-C9-C7-H10=355.54           
C11-C9-C7-C5=  1.09           C11-C9-C7-H10=182.49          
           -------------------------------------------------
          |                Final Singlepoint                |
           -------------------------------------------------

          ...................................................
          :                      SETUP                      :
          :.................................................:
          :  # basis functions                  62          :
          :  # atomic orbitals                  62          :
          :  # shells                           36          :
          :  # electrons                        64          :
          :  max. iterations                   250          :
          :  Hamiltonian                  GFN2-xTB          :
          :  restarted?                      false          :
          :  GBSA solvation                  false          :
          :  PC potential                    false          :
          :  electronic temp.          300.0000000     K    :
          :  accuracy                    1.0000000          :
          :  -> integral cutoff          0.2500000E+02      :
          :  -> integral neglect         0.1000000E-07      :
          :  -> SCF convergence          0.1000000E-05 Eh   :
          :  -> wf. convergence          0.1000000E-03 e    :
          :  Broyden damping             0.4000000          :
          :  net charge                         -1          :
          :  unpaired electrons                  0          :
          ...................................................

 iter      E             dE          RMSdq      gap      omega  full diag
   1    -34.5232422 -0.345232E+02  0.685E-05    2.77       0.0  T
   2    -34.5232422 -0.255724E-10  0.446E-05    2.77     467.0  T
   3    -34.5232422 -0.253948E-10  0.228E-05    2.77     915.3  T

   *** convergence criteria satisfied after 3 iterations ***

         #    Occupation            Energy/Eh            Energy/eV
      -------------------------------------------------------------
         1        2.0000           -0.4786639             -13.0251
       ...           ...                  ...                  ...
        26        2.0000           -0.2712573              -7.3813
        27        2.0000           -0.2519909              -6.8570
        28        2.0000           -0.2427144              -6.6046
        29        2.0000           -0.2415988              -6.5742
        30        2.0000           -0.2412847              -6.5657
        31        2.0000           -0.1756288              -4.7791
        32        2.0000           -0.1600879              -4.3562 (HOMO)
        33                         -0.0581455              -1.5822 (LUMO)
        34                         -0.0567314              -1.5437
        35                         -0.0561664              -1.5284
        36                         -0.0207117              -0.5636
        37                          0.0692073               1.8832
       ...                                ...                  ...
        62                          0.8670911              23.5948
      -------------------------------------------------------------
                  HL-Gap            0.1019424 Eh            2.7740 eV
             Fermi-level           -0.1091167 Eh           -2.9692 eV

 SCC (total)                   0 d,  0 h,  0 min,  0.009 sec
 SCC setup                      ...        0 min,  0.000 sec (  1.590%)
 Dispersion                     ...        0 min,  0.000 sec (  1.456%)
 classical contributions        ...        0 min,  0.000 sec (  0.270%)
 integral evaluation            ...        0 min,  0.002 sec ( 18.544%)
 iterations                     ...        0 min,  0.002 sec ( 26.703%)
 molecular gradient             ...        0 min,  0.004 sec ( 50.144%)
 printout                       ...        0 min,  0.000 sec (  1.007%)

         :::::::::::::::::::::::::::::::::::::::::::::::::::::
         ::                     SUMMARY                     ::
         :::::::::::::::::::::::::::::::::::::::::::::::::::::
         :: total energy             -33.899558178427 Eh    ::
         :: gradient norm              0.000796347125 Eh/a0 ::
         :: HOMO-LUMO gap              2.773995008833 eV    ::
         ::.................................................::
         :: SCC energy               -34.523291778400 Eh    ::
         :: -> isotropic ES            0.099264476122 Eh    ::
         :: -> anisotropic ES          0.023864081571 Eh    ::
         :: -> anisotropic XC          0.020738857740 Eh    ::
         :: -> dispersion             -0.023865223146 Eh    ::
         :: repulsion energy           0.623733599973 Eh    ::
         :: add. restraining           0.000000000000 Eh    ::
         :: total charge              -1.000000000000 e     ::
         :::::::::::::::::::::::::::::::::::::::::::::::::::::

           ------------------------------------------------- 
          |                Numerical Hessian                |
           ------------------------------------------------- 
step length          :   0.00500
SCC accuracy         :   0.30000
Hessian scale factor :   1.00000
frozen atoms in %    :   0.00000    0
RMS gradient         :   0.00080
estimated CPU  time      0.07 min
estimated wall time      0.03 min

writing file <hessian>.

 projected vibrational frequencies (cm⁻¹)
eigval :       -0.00    -0.00    -0.00    -0.00     0.00     0.00
eigval :       61.41    67.83    80.13   200.67   203.99   308.20
eigval :      358.17   377.66   381.54   454.04   480.92   530.55
eigval :      566.41   585.65   603.44   646.46   653.79   733.71
eigval :      736.87   796.80   817.25   828.21   846.06   855.53
eigval :      892.49   908.06   908.24   908.55   916.95   966.45
eigval :      973.44  1074.55  1075.70  1110.09  1116.52  1179.94
eigval :     1180.40  1195.45  1196.57  1267.43  1280.67  1290.66
eigval :     1336.08  1341.52  1413.98  1451.60  1459.65  1483.43
eigval :     1531.84  1535.58  1549.11  1598.03  1621.36  2983.00
eigval :     2985.35  2988.29  2989.81  3022.15  3023.65  3040.82
eigval :     3043.49  3048.60  3050.67
           -------------------------------------------------
          |                Property Printout                |
           -------------------------------------------------

    * Orbital Energies and Occupations

         #    Occupation            Energy/Eh            Energy/eV
      -------------------------------------------------------------
         1        2.0000           -0.4786640             -13.0251
       ...           ...                  ...                  ...
        20        2.0000           -0.3206051              -8.7241
        21        2.0000           -0.3108941              -8.4599
        22        2.0000           -0.3060749              -8.3287
        23        2.0000           -0.2868507              -7.8056
        24        2.0000           -0.2727218              -7.4211
        25        2.0000           -0.2720338              -7.4024
        26        2.0000           -0.2712573              -7.3813
        27        2.0000           -0.2519908              -6.8570
        28        2.0000           -0.2427143              -6.6046
        29        2.0000           -0.2415988              -6.5742
        30        2.0000           -0.2412847              -6.5657
        31        2.0000           -0.1756285              -4.7791
        32        2.0000           -0.1600878              -4.3562 (HOMO)
        33                         -0.0581454              -1.5822 (LUMO)
        34                         -0.0567314              -1.5437
        35                         -0.0561664              -1.5284
        36                         -0.0207117              -0.5636
        37                          0.0692073               1.8832
        38                          0.0903898               2.4596
        39                          0.2565197               6.9803
        40                          0.2661709               7.2429
        41                          0.2707469               7.3674
        42                          0.2853902               7.7659
        43                          0.3058423               8.3224
       ...                                ...                  ...
        62                          0.8670913              23.5948
      -------------------------------------------------------------
                  HL-Gap            0.1019424 Eh            2.7740 eV
             Fermi-level           -0.1091166 Eh           -2.9692 eV

     #   Z          covCN         q      C6AA      α(0)
     1   6 C        2.915    -0.045    29.113     8.848
     2   6 C        2.916    -0.076    29.888     8.965
     3   7 N        1.846    -0.357    30.148     8.137
     4   1 H        0.925    -0.006     3.165     2.782
     5   6 C        2.915    -0.044    29.098     8.846
     6   1 H        0.925    -0.031     3.649     2.987
     7   6 C        2.919    -0.074    29.848     8.959
     8   1 H        0.925    -0.026     3.545     2.944
     9   6 C        2.912     0.089    26.017     8.364
    10   1 H        0.925    -0.010     3.242     2.816
    11   6 C        2.926    -0.073    29.815     8.955
    12   1 H        0.925    -0.025     3.534     2.940
    13   6 C        2.912     0.089    26.020     8.364
    14   6 C        2.919    -0.074    29.858     8.961
    15   1 H        0.925    -0.025     3.540     2.942
    16   1 H        0.925    -0.006     3.170     2.784
    17   6 C        2.915    -0.044    29.098     8.846
    18   1 H        0.925    -0.010     3.246     2.818
    19   6 C        2.916    -0.076    29.895     8.966
    20   1 H        0.925    -0.026     3.550     2.947
    21   6 C        2.915    -0.045    29.113     8.848
    22   1 H        0.925    -0.031     3.654     2.989
    23   6 C        2.926    -0.073    29.824     8.956

 Mol. C6AA /au·bohr⁶  :       7837.125819
 Mol. C8AA /au·bohr⁸  :     191150.044662
 Mol. α(0) /au        :        142.962601


Wiberg/Mayer (AO) data.
largest (>0.10) Wiberg bond orders for each atom

 ---------------------------------------------------------------------------
     #   Z sym  total        # sym  WBO       # sym  WBO       # sym  WBO
 ---------------------------------------------------------------------------
     1   6 C    3.988 --    11 C    1.505     2 C    1.392    12 H    0.971
     2   6 C    3.955 --     5 C    1.394     1 C    1.392     6 H    0.972
     3   7 N    3.097 --    13 C    1.329     9 C    1.326
     4   1 H    1.000 --    11 C    0.972
     5   6 C    3.987 --     7 C    1.502     2 C    1.394     8 H    0.970
     6   1 H    0.999 --     2 C    0.972
     7   6 C    3.977 --     5 C    1.502     9 C    1.251    10 H    0.970
     8   1 H    0.999 --     5 C    0.970
     9   6 C    3.981 --     3 N    1.326    11 C    1.260     7 C    1.251
    10   1 H    1.000 --     7 C    0.970
    11   6 C    3.976 --     1 C    1.505     9 C    1.260     4 H    0.972
    12   1 H    0.999 --     1 C    0.971
    13   6 C    3.981 --     3 N    1.329    23 C    1.259    14 C    1.250
    14   6 C    3.977 --    17 C    1.503    13 C    1.250    18 H    0.970
    15   1 H    0.999 --    21 C    0.971
    16   1 H    1.000 --    23 C    0.972
    17   6 C    3.987 --    14 C    1.503    19 C    1.394    20 H    0.970
    18   1 H    1.000 --    14 C    0.970
    19   6 C    3.955 --    17 C    1.394    21 C    1.392    22 H    0.972
    20   1 H    0.999 --    17 C    0.970
    21   6 C    3.988 --    23 C    1.505    19 C    1.392    15 H    0.971
    22   1 H    0.999 --    19 C    0.972
    23   6 C    3.976 --    21 C    1.505    13 C    1.259    16 H    0.972
 ---------------------------------------------------------------------------

Topologies differ in total number of bonds
Writing topology from bond orders to xtbtopo.mol

molecular dipole:
                 x           y           z       tot (Debye)
 q only:       12.523       0.021       6.652
   full:       12.207       0.129       6.467      35.115
molecular quadrupole (traceless):
                xx          xy          yy          xz          yz          zz
 q only:     -126.561      -9.787      78.827    -128.188      -2.674      47.734
  q+dip:     -120.256      -9.643      77.927    -119.551      -4.818      42.329
   full:     -120.557     -10.464      76.185    -121.010      -3.990      44.371

           -------------------------------------------------
          |                Geometry Summary                 |
           -------------------------------------------------

      molecular mass/u    :      168.2149415
   center of mass at/Å    :       -6.6869647       0.0031457      -3.5553557
  moments of inertia/u·Å² :        0.1953772E+03   0.1203402E+04   0.1314933E+04
rotational constants/cm⁻¹ :        0.8628248E-01   0.1400832E-01   0.1282015E-01

 * 24 selected distances

     #   Z          #   Z                                           value/Å
     1   6 C        2   6 C                                       1.3900297
     2   6 C        5   6 C                                       1.3893256
     2   6 C        6   1 H                                       1.0837800
     5   6 C        7   6 C                                       1.3739886
     5   6 C        8   1 H                                       1.0866154
     3   7 N        9   6 C                                       1.3350641
     7   6 C        9   6 C                                       1.4193601
     7   6 C       10   1 H                                       1.0832980
     1   6 C       11   6 C                                       1.3736071
     4   1 H       11   6 C                                       1.0825993
     9   6 C       11   6 C                                       1.4166802
     1   6 C       12   1 H                                       1.0863172
     3   7 N       13   6 C                                       1.3344897
    13   6 C       14   6 C                                       1.4195173 (max)
    14   6 C       17   6 C                                       1.3739031
    14   6 C       18   1 H                                       1.0833154
    17   6 C       19   6 C                                       1.3893806
    17   6 C       20   1 H                                       1.0868340
    15   1 H       21   6 C                                       1.0864630
    19   6 C       21   6 C                                       1.3900192
    19   6 C       22   1 H                                       1.0838318
    13   6 C       23   6 C                                       1.4168960
    16   1 H       23   6 C                                       1.0825059 (min)
    21   6 C       23   6 C                                       1.3736148

 * 3 distinct bonds (by element types)

   Z      Z             #   av. dist./Å        max./Å        min./Å
   1 H    6 C          10     1.0845560     1.0868340     1.0825059
   6 C    6 C          12     1.3938602     1.4195173     1.3736071
   6 C    7 N           2     1.3347769     1.3350641     1.3344897

           -------------------------------------------------
          |               Frequency Printout                |
           -------------------------------------------------
 projected vibrational frequencies (cm⁻¹)
eigval :       -0.00    -0.00    -0.00    -0.00     0.00     0.00
eigval :       61.41    67.83    80.13   200.67   203.99   308.20
eigval :      358.17   377.66   381.54   454.04   480.92   530.55
eigval :      566.41   585.65   603.44   646.46   653.79   733.71
eigval :      736.87   796.80   817.25   828.21   846.06   855.53
eigval :      892.49   908.06   908.24   908.55   916.95   966.45
eigval :      973.44  1074.55  1075.70  1110.09  1116.52  1179.94
eigval :     1180.40  1195.45  1196.57  1267.43  1280.67  1290.66
eigval :     1336.08  1341.52  1413.98  1451.60  1459.65  1483.43
eigval :     1531.84  1535.58  1549.11  1598.03  1621.36  2983.00
eigval :     2985.35  2988.29  2989.81  3022.15  3023.65  3040.82
eigval :     3043.49  3048.60  3050.67
 reduced masses (amu)
   1: 11.23   2: 11.23   3: 10.86   4: 11.22   5: 10.78   6: 11.10   7: 10.66   8: 10.16
   9: 10.17  10: 10.31  11: 10.51  12: 10.86  13: 10.90  14:  9.57  15:  9.45  16:  9.37
  17:  9.88  18: 11.72  19: 11.31  20: 11.24  21: 11.58  22: 10.24  23: 10.12  24:  4.18
  25:  4.57  26:  9.61  27:  4.41  28:  6.04  29:  3.31  30:  3.29  31: 11.58  32:  2.80
  33:  2.96  34:  3.21  35:  2.91  36: 10.78  37: 10.34  38:  6.96  39:  6.95  40:  4.54
  41:  4.38  42:  1.55  43:  1.49  44:  1.83  45:  1.99  46:  5.38  47:  6.20  48:  8.13
  49:  8.86  50:  9.49  51:  8.09  52:  9.96  53:  9.87  54:  9.21  55: 11.09  56: 11.11
  57: 12.10  58: 11.41  59: 11.49  60:  1.77  61:  1.77  62:  1.76  63:  1.76  64:  1.85
  65:  1.85  66:  1.83  67:  1.83  68:  1.84  69:  1.84
 IR intensities (km·mol⁻¹)
   1:  3.07   2:  3.65   3:  2.14   4:  2.96   5:  1.61   6:  3.53   7:  2.63   8:  0.09
   9:  0.29  10:  0.69  11:  6.69  12:  0.28  13: 13.48  14:  6.09  15:  0.09  16:  2.20
  17: 31.19  18:  0.10  19:  2.97  20:  0.32  21:  1.15  22: 13.62  23:  0.82  24: 38.83
  25:  3.41  26: 11.65  27:  6.43  28:  8.55  29:  0.81  30:  0.14  31:  1.03  32:  0.18
  33:  0.01  34:  1.35  35:  0.12  36:  0.09  37: 53.35  38:  1.42  39:  0.25  40:  0.24
  41:  0.01  42:  1.28  43:  0.22  44: 37.01  45:  4.60  46:  3.44  47:  3.45  48: 29.40
  49:  4.80  50:  7.70  51:136.11  52: 47.95  53: 52.11  54: 20.27  55:132.16  56:  9.90
  57:******  58:755.28  59: 31.52  60: 92.55  61:142.03  62:126.87  63: 89.09  64:523.97
  65: 77.38  66: 97.96  67:177.40  68: 31.39  69: 38.17
 Raman intensities (Ä⁴*amu⁻¹)
   1:  0.00   2:  0.00   3:  0.00   4:  0.00   5:  0.00   6:  0.00   7:  0.00   8:  0.00
   9:  0.00  10:  0.00  11:  0.00  12:  0.00  13:  0.00  14:  0.00  15:  0.00  16:  0.00
  17:  0.00  18:  0.00  19:  0.00  20:  0.00  21:  0.00  22:  0.00  23:  0.00  24:  0.00
  25:  0.00  26:  0.00  27:  0.00  28:  0.00  29:  0.00  30:  0.00  31:  0.00  32:  0.00
  33:  0.00  34:  0.00  35:  0.00  36:  0.00  37:  0.00  38:  0.00  39:  0.00  40:  0.00
  41:  0.00  42:  0.00  43:  0.00  44:  0.00  45:  0.00  46:  0.00  47:  0.00  48:  0.00
  49:  0.00  50:  0.00  51:  0.00  52:  0.00  53:  0.00  54:  0.00  55:  0.00  56:  0.00
  57:  0.00  58:  0.00  59:  0.00  60:  0.00  61:  0.00  62:  0.00  63:  0.00  64:  0.00
  65:  0.00  66:  0.00  67:  0.00  68:  0.00  69:  0.00
 output can be read by thermo (or use thermo option).
 writing <g98.out> molden fake output.
 recommended (thermochemical) frequency scaling factor: 1.0
           -------------------------------------------------
          |             Thermodynamic Functions             |
           -------------------------------------------------

Refinement of some symmetry elements was terminated before convergence was reached.
Some symmetry elements may remain unidentified.
Molecule has the following symmetry elements: (C2) 
It seems to be the C2 point group
c2  symmetry found (for desy threshold:  0.10E+00) used in thermo

          ...................................................
          :                      SETUP                      :
          :.................................................:
          :  # frequencies                          63      :
          :  # imaginary freq.                       0      :
          :  linear?                             false      :
          :  only rotor calc.                    false      :
          :  symmetry                               c2      :
          :  rotational number                       2      :
          :  scaling factor                  1.0000000      :
          :  rotor cutoff                   50.0000000 cm⁻¹ :
          :  imag. cutoff                  -20.0000000 cm⁻¹ :
          :.................................................:

    mode    ω/cm⁻¹     T·S(HO)/kcal·mol⁻¹    T·S(FR)/kcal·mol⁻¹   T·S(vib)
   ------------------------------------------------------------------------
       1     61.41    -1.31522 ( 69.47%)    -0.99555 ( 30.53%)    -1.21764
       2     67.83    -1.25678 ( 77.21%)    -0.96611 ( 22.79%)    -1.19053
       3     80.13    -1.15911 ( 86.84%)    -0.91676 ( 13.16%)    -1.12721
       4    200.67    -0.63415 ( 99.62%)    -0.64486 (  0.38%)    -0.63419
       5    203.99    -0.62515 ( 99.64%)    -0.63999 (  0.36%)    -0.62521
   ------------------------------------------------------------------------

   temp. (K)  partition function   enthalpy   heat capacity  entropy
                                   cal/mol     cal/K/mol   cal/K/mol   J/K/mol
 298.15  VIB   589.                 4746.301     35.252     27.938
         ROT  0.672E+06              888.752      2.981     29.645
         INT  0.395E+09             5635.053     38.232     57.583
         TR   0.211E+28             1481.254      4.968     41.250
         TOT                        7116.3072    43.2006    98.8327   413.5161

       T/K    H(0)-H(T)+PV         H(T)/Eh          T*S/Eh         G(T)/Eh
   ------------------------------------------------------------------------
    298.15    0.113406E-01    0.189301E+00    0.469586E-01    0.142342E+00
   ------------------------------------------------------------------------

         :::::::::::::::::::::::::::::::::::::::::::::::::::::
         ::                  THERMODYNAMIC                  ::
         :::::::::::::::::::::::::::::::::::::::::::::::::::::
         :: total free energy         -33.757216117740 Eh   ::
         ::.................................................::
         :: total energy              -33.899558178424 Eh   ::
         :: zero point energy           0.177960112722 Eh   ::
         :: G(RRHO) w/o ZPVE           -0.035618052038 Eh   ::
         :: G(RRHO) contrib.            0.142342060685 Eh   ::
         :::::::::::::::::::::::::::::::::::::::::::::::::::::

optimized geometry written to: xtbopt.xyz


           -------------------------------------------------
          | TOTAL ENERGY              -33.899558178424 Eh   |
          | TOTAL ENTHALPY            -33.710257508391 Eh   |
          | TOTAL FREE ENERGY         -33.757216117740 Eh   |
          | GRADIENT NORM               0.000796601312 Eh/α |
          | HOMO-LUMO GAP               2.773992600181 eV   |
           -------------------------------------------------

------------------------------------------------------------------------
 * finished run on 2025/10/17 at 22:24:19.979     
------------------------------------------------------------------------
 total:
 * wall-time:     0 d,  0 h,  0 min,  2.636 sec
 *  cpu-time:     0 d,  0 h,  0 min,  3.256 sec
 * ratio c/w:     1.235 speedup
 SCF:
 * wall-time:     0 d,  0 h,  0 min,  0.047 sec
 *  cpu-time:     0 d,  0 h,  0 min,  0.073 sec
 * ratio c/w:     1.569 speedup
 ANC optimizer:
 * wall-time:     0 d,  0 h,  0 min,  0.497 sec
 *  cpu-time:     0 d,  0 h,  0 min,  0.649 sec
 * ratio c/w:     1.305 speedup
 analytical hessian:
 * wall-time:     0 d,  0 h,  0 min,  1.239 sec
 *  cpu-time:     0 d,  0 h,  0 min,  2.294 sec
 * ratio c/w:     1.851 speedup

