23
 energy: -33.891565161731 gnorm: 0.084278714594 xtb: 6.7.1 (edcfbbe)
C           -7.15373600000000       -3.69026400000000       -3.31167700000000
C           -8.18596500000000       -3.60507000000000       -4.23522000000000
N           -5.94220000000000       -0.26386500000000       -3.03031200000000
H           -5.64634800000000       -2.63043000000000       -2.21934600000000
C           -8.47762400000000       -2.36959400000000       -4.80814300000000
H           -8.74442200000000       -4.48726000000000       -4.52114000000000
C           -7.73984900000000       -1.22538800000000       -4.45355400000000
H           -9.26918700000000       -2.28308100000000       -5.54426500000000
C           -6.73104800000000       -1.26127900000000       -3.47889600000000
H           -7.96062200000000       -0.30658900000000       -4.98279600000000
C           -6.45512100000000       -2.53570300000000       -2.94414700000000
H           -6.88390700000000       -4.64500800000000       -2.87356900000000
C           -6.08150100000000        1.06852100000000       -3.22050400000000
C           -7.23431500000000        1.79243800000000       -3.55011400000000
H           -3.99831500000000        3.77633300000000       -2.83226700000000
H           -4.02474600000000        1.33051700000000       -2.63847800000000
C           -7.21792300000000        3.19211400000000       -3.70137700000000
H           -8.18405000000000        1.28664100000000       -3.67862400000000
C           -6.05399000000000        3.91474700000000       -3.45388600000000
H           -8.12860000000000        3.70511200000000       -3.99014800000000
C           -4.90973900000000        3.23539300000000       -3.06288700000000
H           -6.04759300000000        4.99379800000000       -3.55321700000000
C           -4.93533200000000        1.84024800000000       -2.95240600000000
23
 energy: -33.895269086028 gnorm: 0.032276509070 xtb: 6.7.1 (edcfbbe)
C           -7.15238469273542       -3.66961195421766       -3.30370503517558
C           -8.17964340002800       -3.58848574416396       -4.23458320983514
N           -5.94213601004308       -0.26290765595835       -3.03826115839774
H           -5.65821673669760       -2.62289170897429       -2.20577397637469
C           -8.45557163376880       -2.35877296193721       -4.81526996306892
H           -8.74502261080478       -4.47045842277492       -4.51581383207579
C           -7.74199812238640       -1.22480561521636       -4.46249161328599
H           -9.24434899708904       -2.27668365898857       -5.55534873388384
C           -6.73546160416416       -1.25607830098370       -3.47089283775602
H           -7.95940330129512       -0.30773982486162       -4.99373275717598
C           -6.45844002689778       -2.53646992926220       -2.93260988038311
H           -6.89124599584356       -4.62546937200211       -2.86246418382331
C           -6.07893915045869        1.06264660529446       -3.22822790722086
C           -7.24228208789364        1.79562999637134       -3.54843108571162
H           -4.00217808558920        3.76030852167834       -2.84815544732756
H           -4.02125906854386        1.32576410770329       -2.65810852440427
C           -7.22225986938193        3.17546007067051       -3.67944261600059
H           -8.19048681962042        1.29028097740086       -3.67575478492795
C           -6.05974296891153        3.89808015183868       -3.45293692959282
H           -8.13204836795102        3.69197221241543       -3.96553488798221
C           -4.91426461917422        3.21552290513472       -3.06680626602179
H           -6.05215088056968        4.97773443401972       -3.56098724674390
C           -4.92664795015201        1.83930616681361       -2.96164012283035
23
 energy: -33.896187213017 gnorm: 0.005980947940 xtb: 6.7.1 (edcfbbe)
C           -7.16360755391632       -3.65398854448131       -3.28759034987815
C           -8.17949537041439       -3.57833251631154       -4.23415503949130
N           -5.93840102633675       -0.26276905296467       -3.04721310838969
H           -5.67739565411619       -2.60734916973000       -2.18061043114247
C           -8.43737442899663       -2.35030968384093       -4.82461640821779
H           -8.74509072241656       -4.46011106253946       -4.51618923491569
C           -7.73242336921035       -1.22263113239524       -4.47660866570526
H           -9.21304519332967       -2.27558671651884       -5.58204007482362
C           -6.73134682740535       -1.25245993881138       -3.47035776320933
H           -7.93901017625387       -0.30315723483495       -5.00734081990142
C           -6.46800609220975       -2.53387459554790       -2.91548100511933
H           -6.91457148321898       -4.61226191391333       -2.84128671081868
C           -6.07685406252172        1.05628781361589       -3.22876417432363
C           -7.25001643108163        1.79310563921393       -3.53633742670376
H           -4.00173272619836        3.75455505428229       -2.87802264323801
H           -4.01497494257935        1.31471501345776       -2.69029922760567
C           -7.22800669494325        3.16233112282979       -3.66024614474027
H           -8.19454682888242        1.28036867796117       -3.65713201840634
C           -6.06556117637732        3.88980648972289       -3.45355865858806
H           -8.14326572843104        3.68423569362413       -3.92553240594174
C           -4.91419319322494        3.20326485396522       -3.08493363449144
H           -6.05979371078612        4.96935282231236       -3.56029594928327
C           -4.91741960714888        1.83713938090410       -2.97836110506521
23
 energy: -33.896554997282 gnorm: 0.009103544575 xtb: 6.7.1 (edcfbbe)
C           -7.17703956149880       -3.64789581210581       -3.27426812002903
C           -8.18023706896320       -3.57511529441921       -4.23601339810995
N           -5.93413277575567       -0.26316173723933       -3.05400987774743
H           -5.69740372062416       -2.59600706590034       -2.15536543427948
C           -8.42284564982372       -2.34870607228030       -4.83821849544576
H           -8.74643730210959       -4.45562011651197       -4.51780995729450
C           -7.72026295446236       -1.22164482681288       -4.48784661116851
H           -9.18915235190110       -2.27801702117900       -5.60720950044000
C           -6.72975607484240       -1.25125757061794       -3.46848415380125
H           -7.91157502668974       -0.30109868623951       -5.02287852054871
C           -6.47909921501794       -2.53096428771526       -2.90042515846584
H           -6.94307019379606       -4.60614500502851       -2.81714153464759
C           -6.07250678932232        1.05288820371104       -3.23343789211274
C           -7.25340057948146        1.78894198504802       -3.52379176606537
H           -3.99788557118993        3.75678124576974       -2.90957076124842
H           -4.00634108762158        1.30789055295156       -2.72232244324438
C           -7.23477378450162        3.15762830277157       -3.64066723289280
H           -8.19586372051439        1.26904823055031       -3.63180426361822
C           -6.07059895148160        3.88854015782110       -3.45070260723836
H           -8.15456747536844        3.68169579588003       -3.89080482052783
C           -4.91236372290186        3.20120590122167       -3.10120728189514
H           -6.06697039864508        4.96730484188110       -3.55678886381147
C           -4.90984902348674        1.83603927844387       -2.99620430536742
23
 energy: -33.896902116980 gnorm: 0.007949640584 xtb: 6.7.1 (edcfbbe)
C           -7.19293281223823       -3.64393583608179       -3.26076181104900
C           -8.18199352353904       -3.57224975356018       -4.23757815031289
N           -5.92815115768948       -0.26415115850476       -3.06090263002465
H           -5.71920434597034       -2.58723460336321       -2.12962184211984
C           -8.41065358267632       -2.34774346609016       -4.85110122613216
H           -8.74739032101574       -4.45146811529641       -4.52134297749443
C           -7.70629689461540       -1.22088639452113       -4.49771061371048
H           -9.16729913981547       -2.27991336500292       -5.63052764981838
C           -6.72733712522123       -1.25169483891085       -3.46734416687312
H           -7.88263473487248       -0.29871763892947       -5.03566105671813
C           -6.49185629579988       -2.52780603039402       -2.88520033570903
H           -6.97326641313798       -4.60156728353508       -2.79396211972609
C           -6.06637411666332        1.05071159465300       -3.23852537082761
C           -7.25406302120473        1.78295576350729       -3.51168485250343
H           -3.99536681766501        3.76244782109845       -2.93864069747718
H           -3.99562022671104        1.30471034865845       -2.75596372767310
C           -7.24127046785917        3.15362619537567       -3.62330782490512
H           -8.19351309009771        1.25467046134254       -3.60884690974201
C           -6.07613546653633        3.88797830764969       -3.44718328301931
H           -8.16574182579417        3.67789542410136       -3.85812164649016
C           -4.91025429574737        3.20256586026893       -3.11800321426950
H           -6.07676068599616        4.96628024118735       -3.54894415670306
C           -4.90201663913309        1.83585746634720       -3.01603673670162
23
 energy: -33.897236725145 gnorm: 0.005739917346 xtb: 6.7.1 (edcfbbe)
C           -7.20984158725409       -3.63967978278331       -3.24731532900630
C           -8.18386068530112       -3.56788895238319       -4.23879274169212
N           -5.92069042097868       -0.26568145691380       -3.06730139532351
H           -5.74396552109187       -2.58143981520117       -2.10267435130351
C           -8.39883662571308       -2.34605667642526       -4.86347563014627
H           -8.74899525572019       -4.44585439930514       -4.52525677422170
C           -7.69055510607400       -1.22085984375263       -4.50771876319455
H           -9.14536568647871       -2.27980563504873       -5.65244793644462
C           -6.72431325719588       -1.25292247225174       -3.46657012241720
H           -7.85188577964269       -0.29826333578396       -5.04991387576152
C           -6.50587028884188       -2.52432412076657       -2.86984486221436
H           -7.00492665912116       -4.59557443815070       -2.77025667620784
C           -6.05900831085849        1.04914807006193       -3.24385620978430
C           -7.25311832013349        1.77612116173599       -3.49902679454743
H           -3.99395000085160        3.76844691131940       -2.96741888140859
H           -3.98232741954348        1.30584714733086       -2.79291934813046
C           -7.24780763121962        3.14838544375018       -3.60662958510489
H           -8.18958793611062        1.24031331706074       -3.58542204596319
C           -6.08258865363946        3.88605620009423       -3.44291378991401
H           -8.17696344302108        3.67072184773745       -3.82647346087378
C           -4.90872917475883        3.20470089473878       -3.13455916128787
H           -6.08903855864847        4.96455810851679       -3.53864376562064
C           -4.89390667780107        1.83638282641979       -3.03754149943172
23
 energy: -33.897569024929 gnorm: 0.003972881158 xtb: 6.7.1 (edcfbbe)
C           -7.22767872614251       -3.63424284585037       -3.23375919361622
C           -8.18617753660070       -3.56176131739374       -4.23952282615751
N           -5.91164868453996       -0.26786663267367       -3.07199655628158
H           -5.77063619906807       -2.57844927578457       -2.07538082607938
C           -8.38622183731349       -2.34312654534507       -4.87562602099610
H           -8.75239149478502       -4.43832144767216       -4.52871569931123
C           -7.67307131666814       -1.22093963642256       -4.51799206802465
H           -9.12221787607841       -2.27724417594579       -5.67373858025473
C           -6.72006580624300       -1.25413245248391       -3.46587605524104
H           -7.82028056246470       -0.29902471676739       -5.06546591522503
C           -6.52042142457155       -2.52051372564086       -2.85456237357937
H           -7.03743751120521       -4.58760697791886       -2.74649968363708
C           -6.05086300497977        1.04724177470810       -3.24859851998643
C           -7.25127144643923        1.76819490996322       -3.48581351165989
H           -3.99371028409996        3.77388244291997       -2.99643137191949
H           -3.96712520341859        1.31080677115199       -2.83202145708550
C           -7.25456120716754        3.14126537997066       -3.58972228536447
H           -8.18494194267028        1.22598231160913       -3.56238779717996
C           -6.08992773542026        3.88261354626560       -3.43856154076763
H           -8.18855640726867        3.65991038105342       -3.79498205369301
C           -4.90800228723859        3.20659730644452       -3.15150096830457
H           -6.10326596264789        4.96184689301384       -3.52776971913791
C           -4.88565854296795        1.83721903279840       -3.06004797649773
23
 energy: -33.897902435085 gnorm: 0.003141866315 xtb: 6.7.1 (edcfbbe)
C           -7.24659271706972       -3.62750670409569       -3.22027279827420
C           -8.18930006198751       -3.55409141120971       -4.24006354720260
N           -5.90099784120360       -0.27074084449551       -3.07434042568793
H           -5.79856015382111       -2.57748900059323       -2.04806645248332
C           -8.37210464457992       -2.33885237168045       -4.88769387091430
H           -8.75842197250236       -4.42862442207988       -4.53146500360429
C           -7.65369561747132       -1.22076154665003       -4.52833580388775
H           -9.09650036368300       -2.27240043718143       -5.69570640749651
C           -6.71444565040195       -1.25493616812963       -3.46458639843887
H           -7.78677512684936       -0.30057742307645       -5.08255850142523
C           -6.53512548246986       -2.51661183914946       -2.83947443649944
H           -7.07209099579090       -4.57776681665003       -2.72200954001858
C           -6.04191245413008        1.04439639658017       -3.25277277329889
C           -7.24877167358461        1.75896515160495       -3.47205366415207
H           -3.99441332849470        3.77895293673036       -3.02766558680849
H           -3.95079183684477        1.31859822872982       -2.87276806497915
C           -7.26152795320446        3.13211111238514       -3.57207757205448
H           -8.17996469181715        1.21118057814120       -3.53873264429055
C           -6.09828358100993        3.87809620761672       -3.43437956955383
H           -8.20099410938208        3.64579109594485       -3.76188494617838
C           -4.90831625329282        3.20812999486597       -3.16925843830936
H           -6.11917757742488        4.95816875993019       -3.51763894675474
C           -4.87736891298329        1.83829952246202       -3.08316760768762
23
 energy: -33.898224738340 gnorm: 0.002602367083 xtb: 6.7.1 (edcfbbe)
C           -7.26692524383836       -3.61969974408869       -3.20670259468772
C           -8.19361519437532       -3.54529429073132       -4.24052363809381
N           -5.88902034249235       -0.27420905781201       -3.07425970460930
H           -5.82659661065028       -2.57761950507999       -2.02146875737913
C           -8.35615976284881       -2.33347853166803       -4.89993730536488
H           -8.76728790420565       -4.41687325174750       -4.53356215345380
C           -7.63231430395699       -1.22020466097445       -4.53865709369318
H           -9.06809281473491       -2.26568261840919       -5.71854385407545
C           -6.70723125249767       -1.25540897206912       -3.46269368572082
H           -7.75082089737383       -0.30234043880458       -5.10038995916191
C           -6.54963064022016       -2.51296827509412       -2.82474677606433
H           -7.10917145521722       -4.56666335973038       -2.69727242876712
C           -6.03245809004520        1.04053816244499       -3.25591686394870
C           -7.24595583140468        1.74856365839239       -3.45742287249440
H           -3.99614634773771        3.78409643294769       -3.06165870932013
H           -3.93457203197831        1.32779809850748       -2.91386052989293
C           -7.26872433988814        3.12131816918327       -3.55330090171076
H           -8.17474206674930        1.19541587402005       -3.51390173114008
C           -6.10748851341102        3.87309718940905       -3.43093623010794
H           -8.21412684531182        3.62919296556423       -3.72695900874794
C           -4.90959159381760        3.20939928198927       -3.18847479798002
H           -6.13618972782737        4.95373917145291       -3.50945231700437
C           -4.86927118941659        1.83961470229792       -3.10633108658199
23
 energy: -33.898521123024 gnorm: 0.001961037757 xtb: 6.7.1 (edcfbbe)
C           -7.28798456020613       -3.61129734086571       -3.19375778387743
C           -8.19891469623936       -3.53573313325770       -4.24115384317039
N           -5.87645667719795       -0.27799822151762       -3.07225131697270
H           -5.85381458896267       -2.57788089177470       -1.99604099072587
C           -8.33903971909977       -2.32735581661597       -4.91201565179617
H           -8.77835128494062       -4.40341240601358       -4.53532159432938
C           -7.60947154705666       -1.21931722023999       -4.54853194317887
H           -9.03776262992661       -2.25787549093434       -5.74181876769198
C           -6.69894306429229       -1.25580150216728       -3.46007114508130
H           -7.71232144836198       -0.30396149313588       -5.11795770873153
C           -6.56346500142351       -2.50981414196293       -2.81073799351011
H           -7.14835356315354       -4.55494753406250       -2.67299012570741
C           -6.02289133933719        1.03600215689559       -3.25794094523810
C           -7.24304634457059        1.73740114873188       -3.44192805576836
H           -3.99890389392776        3.78960178195158       -3.09823055596279
H           -3.91955015397338        1.33691421156460       -2.95404065683522
C           -7.27588291200596        3.10953731543634       -3.53409133356275
H           -8.16929282313964        1.17862081128772       -3.48728925314313
C           -6.11718595697337        3.86794514284679       -3.42866405458092
H           -8.22740060460927        3.61134146331107       -3.69089072499399
C           -4.91180366334162        3.21054798648312       -3.20866359879978
H           -6.15357205863227        4.94873647417153       -3.50390426448718
C           -4.86172446862704        1.84107769986782       -3.12868069185546
23
 energy: -33.898900160817 gnorm: 0.001889799717 xtb: 6.7.1 (edcfbbe)
C           -7.32057827555217       -3.59805111267639       -3.17479526520715
C           -8.20775938034996       -3.52041680710587       -4.24246334299943
N           -5.85756979797536       -0.28380881783119       -3.06754192224757
H           -5.89321131541472       -2.57756129469195       -1.95944114619627
C           -8.31200965484919       -2.31752903720780       -4.93030927838803
H           -8.79663810290667       -4.38122614142287       -4.53821301531671
C           -7.57350507626342       -1.21767569049135       -4.56276173286079
H           -8.99052911048469       -2.24547224386826       -5.77679286010921
C           -6.68552034513080       -1.25665923663446       -3.45540165569671
H           -7.65131374838720       -0.30578192068060       -5.14252158371187
C           -6.58354715592840       -2.50563314215461       -2.79019225349827
H           -7.20903244280644       -4.53692087726426       -2.63850753827044
C           -6.00891298707801        1.02878097030630       -3.25912257516033
C           -7.23896696022343        1.72006046486845       -3.41682896558829
H           -4.00457633290540        3.79830417811981       -3.15609142669942
H           -3.89949381567603        1.34914690368835       -3.01220456914140
C           -7.28664298771410        3.09120082302896       -3.50468067203573
H           -8.16073338840260        1.15196411967523       -3.44415866087961
C           -6.13201817976577        3.85995313146674       -3.42731764669055
H           -8.24678324902995        3.58401553825516       -3.63626020253632
C           -4.91594789644047        3.21199403825615       -3.24072012158488
H           -6.17954666418236        4.94044645664577       -3.49966892901671
C           -4.85129613253187        1.84320069771849       -3.16097763616525
23
 energy: -33.899198313000 gnorm: 0.002353853941 xtb: 6.7.1 (edcfbbe)
C           -7.35235270755563       -3.58426405282445       -3.15796351401227
C           -8.21567301226859       -3.50436471483472       -4.24494276023166
N           -5.84022040885132       -0.28920979576467       -3.06261924917151
H           -5.93267394490758       -2.57464386904346       -1.92300187880899
C           -8.28481418874866       -2.30794759237482       -4.94813185734693
H           -8.81359821628531       -4.35794488679404       -4.54266764619162
C           -7.53735238659815       -1.21624292339774       -4.57560706016643
H           -8.94218368643435       -2.23472780588366       -5.81146560734724
C           -6.67300451546063       -1.25799423378682       -3.44964492117132
H           -7.58781640814683       -0.30744864738802       -5.16399668294096
C           -6.60330661819475       -2.50116219165722       -2.77008703658181
H           -7.27106032728900       -4.51810296447341       -2.60649912425240
C           -5.99604605864959        1.02191666223171       -3.25876942100531
C           -7.23526950060023        1.70301265390501       -3.38949964298978
H           -4.01176078870780        3.80674273259607       -3.21702783876447
H           -3.88275502211913        1.35838763018404       -3.06891335462147
C           -7.29664442354131        3.07323543130084       -3.47563673712315
H           -8.15166701240108        1.12480460684240       -3.39604236439016
C           -6.14627597914442        3.85131694667959       -3.42821054204902
H           -8.26426143746756        3.55827171382906       -3.58113354576917
C           -4.92091578178806        3.21284789640537       -3.27352907924836
H           -6.20407754602609        4.93115063730622       -3.49969127738932
C           -4.84240302881279        1.84469776694249       -3.19189185842777
23
 energy: -33.899364334862 gnorm: 0.002756246561 xtb: 6.7.1 (edcfbbe)
C           -7.37760894930441       -3.57339871875026       -3.14384844710206
C           -8.22110400273868       -3.49251424686476       -4.24686681651434
N           -5.82823423154516       -0.29295806326570       -3.05914991669418
H           -5.96289783951521       -2.57110835401379       -1.89648957907267
C           -8.26300855606855       -2.30167683441297       -4.96286809332920
H           -8.82435025251079       -4.34114229534928       -4.54735747756572
C           -7.50996190936368       -1.21572101924284       -4.58536936115242
H           -8.90509213015707       -2.22811993145141       -5.83724446665421
C           -6.66403396443804       -1.25924756625280       -3.44553559666147
H           -7.54072861858343       -0.30892982900854       -5.17767072300602
C           -6.61965988712352       -2.49709403637247       -2.75378380757572
H           -7.31637307063810       -4.50336052730584       -2.58529230551950
C           -5.98737292262209        1.01720657978114       -3.25738187114477
C           -7.23288682189427        1.69102206539707       -3.36686214892995
H           -4.01792064836478        3.81211588181591       -3.26392491839053
H           -3.87256451196916        1.36398430190553       -3.11038516153391
C           -7.30391624252636        3.06062944937454       -3.45239301192153
H           -8.14452037824150        1.10530789270896       -3.35749210929997
C           -6.15633740900067        3.84472568548847       -3.42974680379788
H           -8.27560074934635        3.54040524036798       -3.53971510621239
C           -4.92426685281198        3.21288578603176       -3.30027156977804
H           -6.22122809524483        4.92398814324986       -3.50181377618534
C           -4.83646495599007        1.84533139616918       -3.21550993195942
23
 energy: -33.899501049764 gnorm: 0.003346338111 xtb: 6.7.1 (edcfbbe)
C           -7.40872622805286       -3.55847907326745       -3.12979601264575
C           -8.22596809363439       -3.47644771470492       -4.25182841077726
N           -5.81324550094629       -0.29785819385741       -3.05372250374238
H           -6.00810281348782       -2.56400594232058       -1.85698833622025
C           -8.23395628900849       -2.29370009342596       -4.98107391809628
H           -8.83682488040741       -4.31837051116753       -4.55531860112263
C           -7.47357929764425       -1.21541927023832       -4.59686885387355
H           -8.85195022932956       -2.22148210905657       -5.87364236141110
C           -6.65353644215214       -1.26086926500640       -3.43847091423309
H           -7.47464534901154       -0.31211752621726       -5.19654307889070
C           -6.64140843397252       -2.49083384800856       -2.73346509474629
H           -7.38284071525371       -4.48185284531557       -2.55328465551768
C           -5.97622453712468        1.01105793201644       -3.25487302579345
C           -7.22928358255204        1.67522974731492       -3.33459353665119
H           -4.02656256362115        3.81865028863244       -3.33256179968678
H           -3.85924468405641        1.37028281979899       -3.17056004750629
C           -7.31244305865602        3.04383023800594       -3.42134463914780
H           -8.13461246302544        1.07985848530940       -3.30036522203009
C           -6.16945064851325        3.83530144046339       -3.43272541549334
H           -8.29018280856621        3.51748049502476       -3.47934714044731
C           -4.93012733626735        3.21258486718960       -3.33582663115223
H           -6.24346010886487        4.91372501536704       -3.50663387014454
C           -4.82975693585014        1.84576606346330       -3.24713893067146
23
 energy: -33.899540000282 gnorm: 0.002485601725 xtb: 6.7.1 (edcfbbe)
C           -7.42887632601051       -3.54945442626716       -3.11868251332869
C           -8.22862930204014       -3.46865516556492       -4.25388248575108
N           -5.80624390545892       -0.30017816825776       -3.05056858084706
H           -6.03400318880490       -2.55876296615788       -1.83699926661700
C           -8.21627576210605       -2.29105888876073       -4.99230950206550
H           -8.84096198409968       -4.30779003430665       -4.56150082536126
C           -7.45355028384638       -1.21631161042795       -4.60339114577338
H           -8.82148790862374       -2.22007580804190       -5.89311082594759
C           -6.64883050411202       -1.26158330714625       -3.43423396314866
H           -7.44001572148266       -0.31519324426242       -5.20532680214999
C           -6.65657226724554       -2.48617573233166       -2.71973759963626
H           -7.41544688350025       -4.46898115438971       -2.54082383841055
C           -5.97076680908450        1.00802220322901       -3.25357860498848
C           -7.22709749827332        1.66789823833999       -3.31553306033192
H           -4.03230070638855        3.82065059687741       -3.37082592954379
H           -3.85471616143612        1.37276987152837       -3.20285734205283
C           -7.31623188619105        3.03602037217748       -3.40260991399469
H           -8.12877118412871        1.06813513008057       -3.26699198500373
C           -6.17577551147764        3.83056613912461       -3.43454522082524
H           -8.29548197592892        3.50680558477150       -3.44605936382072
C           -4.93303436728312        3.21172985015221       -3.35760061174718
H           -6.25432591070501        4.90853624960931       -3.50974932782504
C           -4.82673695177071        1.84541727002422       -3.26605429083085
23
 energy: -33.899550663869 gnorm: 0.001157954315 xtb: 6.7.1 (edcfbbe)
C           -7.43249673909163       -3.54724885530161       -3.11826776043673
C           -8.22720295570377       -3.46765742495494       -4.25602132426845
N           -5.80561479948787       -0.30053111596935       -3.04940212798172
H           -6.04358624891927       -2.55574604912346       -1.83055652065214
C           -8.21079672592388       -2.29173213623009       -4.99538270312619
H           -8.83966302424445       -4.30650741829716       -4.56422563494530
C           -7.44887493779318       -1.21725240306003       -4.60456939700134
H           -8.81257433107330       -2.22184268674638       -5.89746327595522
C           -6.64818113739560       -1.26172859331925       -3.43347118316902
H           -7.43276828160228       -0.31686976204331       -5.20591992141147
C           -6.66060890427702       -2.48433295172974       -2.71752900259184
H           -7.42612958544203       -4.46487435022614       -2.53593992484417
C           -5.97038625943083        1.00767632297267       -3.25214448935137
C           -7.22641644666894        1.66719672729501       -3.30911895141217
H           -4.03427304165097        3.81995496488531       -3.38260134652887
H           -3.85492611212566        1.37250722784951       -3.21288704958558
C           -7.31627382180020        3.03519575482803       -3.39670787073199
H           -8.12682621030689        1.06712682291413       -3.25710354155630
C           -6.17664772748495        3.82964100292307       -3.43520273591317
H           -8.29498327971525        3.50581591809778       -3.43603804232972
C           -4.93402842773219        3.21108176368604       -3.36401510984779
H           -6.25579198316655        4.90750896168121       -3.51129149550983
C           -4.82708201896173        1.84494927986836       -3.27111359085117
23
 energy: -33.899553949846 gnorm: 0.001182915519 xtb: 6.7.1 (edcfbbe)