 Entering Gaussian System
 *********************************************
 Gaussian 98:
 frequency output generated by the xtb code
 *********************************************
                         Standard orientation:
 --------------------------------------------------------------------
  Center     Atomic     Atomic              Coordinates (Angstroms)
  Number     Number      Type              X           Y           Z
 --------------------------------------------------------------------
    1          6             0       -4.176843   -1.988520    1.992693
    2          6             0       -3.840758   -2.438092    0.728431
    3          1             0       -6.977209   -3.773459    2.510785
    4          6             0       -5.308280   -2.468883    2.638208
    5          1             0       -3.571838   -1.255772    2.509415
    6          6             0       -4.637274   -3.377860    0.093347
    7          1             0       -2.955468   -2.059107    0.229100
    8          6             0       -5.768923   -3.863639    0.729211
    9          1             0       -4.375910   -3.731918   -0.897861
   10          6             0       -6.099561   -3.410041    1.993469
   11          1             0       -6.391039   -4.599126    0.230483
   12          6             0       -5.685017   -1.958514    4.067708
   13          8             0       -4.912168   -1.118581    4.551857
   14          8             0       -6.714359   -2.450977    4.552603
 --------------------------------------------------------------------
     1 basis functions        1 primitive gaussians
     1 alpha electrons        1 beta electrons
 
 Harmonic frequencies (cm**-1), IR intensities (km*mol⁻¹),
 Raman scattering activities (A**4/amu), Raman depolarization ratios,
 reduced masses (AMU), force constants (mDyne/A) and normal coordinates:
                      1                      2                      3
                        a                      a                      a 
 Frequencies --    30.4536               133.6480               174.4952
 Red. masses --    14.0284                11.3169                12.8353
 Frc consts  --     0.0000                 0.0000                 0.0000
 IR Inten    --     0.0000                 7.5840                 1.2959
 Raman Activ --     0.0000                 0.0000                 0.0000
 Depolar     --     0.0000                 0.0000                 0.0000
 Atom AN      X      Y      Z        X      Y      Z        X      Y      Z
   1   6    -0.13   0.18  -0.10    -0.21   0.28  -0.15    -0.22  -0.07   0.18
   2   6    -0.14   0.19  -0.11     0.05  -0.06   0.03     0.01   0.12   0.20
   3   1     0.06  -0.09   0.05    -0.08   0.11  -0.06    -0.05  -0.10  -0.11
   4   6    -0.00  -0.00  -0.00    -0.27   0.36  -0.20    -0.27  -0.20   0.00
   5   1    -0.06   0.09  -0.05    -0.08   0.11  -0.06    -0.11  -0.02   0.11
   6   6     0.00  -0.00   0.00     0.22  -0.30   0.16     0.16   0.12  -0.00
   7   1    -0.07   0.10  -0.06     0.04  -0.06   0.03     0.01   0.07   0.11
   8   6     0.14  -0.19   0.11     0.05  -0.06   0.03     0.11  -0.02  -0.20
   9   1     0.00  -0.00   0.00     0.14  -0.19   0.10     0.09   0.07  -0.00
  10   6     0.13  -0.18   0.10    -0.21   0.28  -0.15    -0.13  -0.20  -0.18
  11   1     0.07  -0.10   0.06     0.04  -0.06   0.03     0.07  -0.01  -0.11
  12   6    -0.00  -0.00  -0.00    -0.01   0.02  -0.01    -0.02  -0.01   0.00
  13   8     0.32  -0.43   0.24     0.16  -0.21   0.12     0.26  -0.03  -0.41
  14   8    -0.32   0.43  -0.24     0.16  -0.21   0.12     0.05   0.26   0.41
                      4                      5                      6
                        a                      a                      a 
 Frequencies --   344.0060               353.0916               393.9879
 Red. masses --    13.3567                 8.8324                10.0595
 Frc consts  --     0.0000                 0.0000                 0.0000
 IR Inten    --     2.0263                 0.0012                 1.7894
 Raman Activ --     0.0000                 0.0000                 0.0000
 Depolar     --     0.0000                 0.0000                 0.0000
 Atom AN      X      Y      Z        X      Y      Z        X      Y      Z
   1   6     0.03   0.13   0.20    -0.23   0.32  -0.18     0.10  -0.14   0.08
   2   6    -0.00   0.13   0.23     0.22  -0.30   0.17     0.14  -0.19   0.10
   3   1    -0.02   0.04   0.10     0.14  -0.20   0.11     0.09  -0.13   0.07
   4   6     0.01  -0.01  -0.02     0.00  -0.00  -0.00    -0.32   0.43  -0.24
   5   1    -0.03   0.03   0.10    -0.14   0.20  -0.11     0.09  -0.13   0.07
   6   6    -0.09   0.12   0.35     0.00   0.00   0.00    -0.23   0.31  -0.17
   7   1    -0.01   0.02   0.04     0.15  -0.20   0.11     0.10  -0.13   0.07
   8   6    -0.12   0.04   0.23    -0.22   0.30  -0.17     0.14  -0.19   0.10
   9   1    -0.03   0.04   0.10    -0.00  -0.00   0.00    -0.14   0.18  -0.10
  10   6    -0.13   0.01   0.20     0.23  -0.32   0.18     0.10  -0.14   0.08
  11   1    -0.01   0.01   0.04    -0.15   0.20  -0.11     0.10  -0.13   0.07
  12   6     0.08  -0.11  -0.30     0.00   0.00  -0.00    -0.14   0.19  -0.11
  13   8     0.16  -0.12  -0.43     0.01  -0.01   0.01     0.06  -0.08   0.05
  14   8     0.06  -0.19  -0.43    -0.01   0.01  -0.01     0.06  -0.08   0.05
                      7                      8                      9
                        a                      a                      a 
 Frequencies --   504.2452               586.3744               640.0239
 Red. masses --    13.7153                11.1878                11.1053
 Frc consts  --     0.0000                 0.0000                 0.0000
 IR Inten    --     0.4763                 0.1361                 8.0534
 Raman Activ --     0.0000                 0.0000                 0.0000
 Depolar     --     0.0000                 0.0000                 0.0000
 Atom AN      X      Y      Z        X      Y      Z        X      Y      Z
   1   6    -0.23  -0.11   0.10     0.17   0.29   0.30    -0.20   0.26  -0.14
   2   6    -0.08   0.01   0.13    -0.35  -0.09   0.31     0.19  -0.27   0.15
   3   1    -0.06  -0.09  -0.07     0.10   0.06  -0.03    -0.05   0.07  -0.04
   4   6    -0.18  -0.13   0.00     0.14   0.10  -0.00     0.15  -0.20   0.12
   5   1    -0.10  -0.03   0.07     0.08   0.08   0.03    -0.06   0.07  -0.04
   6   6     0.03   0.02  -0.00    -0.15  -0.11   0.00    -0.22   0.29  -0.17
   7   1    -0.02   0.03   0.08    -0.11  -0.06   0.03     0.09  -0.12   0.07
   8   6    -0.02  -0.08  -0.13    -0.19  -0.31  -0.31     0.20  -0.26   0.15
   9   1     0.04   0.03  -0.00     0.08   0.06  -0.00    -0.06   0.08  -0.05
  10   6    -0.18  -0.19  -0.10     0.33   0.08  -0.30    -0.19   0.27  -0.14
  11   1     0.02  -0.02  -0.08    -0.09  -0.09  -0.03     0.09  -0.12   0.07
  12   6     0.29   0.22  -0.00     0.00   0.00  -0.00     0.19  -0.25   0.15
  13   8     0.06   0.29   0.44     0.02   0.01  -0.01    -0.05   0.08  -0.05
  14   8     0.29  -0.03  -0.44     0.01   0.01   0.01    -0.06   0.07  -0.05
                     10                     11                     12
                        a                      a                      a 
 Frequencies --   640.9036               701.8831               764.5238
 Red. masses --    12.4808                 5.2739                13.1785
 Frc consts  --     0.0000                 0.0000                 0.0000
 IR Inten    --    21.6283                53.0961               150.5915
 Raman Activ --     0.0000                 0.0000                 0.0000
 Depolar     --     0.0000                 0.0000                 0.0000
 Atom AN      X      Y      Z        X      Y      Z        X      Y      Z
   1   6     0.24   0.14  -0.08     0.00  -0.00   0.00     0.12   0.04  -0.09
   2   6     0.26   0.15  -0.06     0.11  -0.16   0.09     0.21   0.10  -0.11
   3   1    -0.04   0.01   0.06    -0.19   0.26  -0.14    -0.02  -0.01   0.00
   4   6     0.10  -0.14  -0.37     0.10  -0.13   0.07     0.02  -0.03  -0.09
   5   1     0.00   0.04   0.06    -0.19   0.26  -0.14     0.01   0.01   0.00
   6   6    -0.09   0.13   0.34     0.02  -0.02   0.01    -0.06   0.07   0.21
   7   1     0.05  -0.03  -0.11    -0.18   0.25  -0.14     0.04  -0.02  -0.10
   8   6    -0.21  -0.20  -0.06     0.11  -0.16   0.09    -0.16  -0.18  -0.11
   9   1    -0.03   0.03   0.09    -0.21   0.29  -0.16    -0.01   0.02   0.05
  10   6    -0.20  -0.19  -0.08     0.00  -0.00   0.00    -0.07  -0.10  -0.09
  11   1     0.01  -0.06  -0.11    -0.18   0.25  -0.14     0.01  -0.05  -0.10
  12   6     0.05  -0.07  -0.18    -0.25   0.34  -0.19    -0.14   0.19   0.55
  13   8    -0.27  -0.08   0.22     0.08  -0.11   0.06     0.36   0.21  -0.10
  14   8     0.15   0.24   0.22     0.08  -0.11   0.06    -0.31  -0.28  -0.10
                     13                     14                     15
                        a                      a                      a 
 Frequencies --   782.3784               878.0031               894.4730
 Red. masses --     9.2169                 3.4261                 4.0617
 Frc consts  --     0.0000                 0.0000                 0.0000
 IR Inten    --    10.3815                 0.0000                 0.0396
 Raman Activ --     0.0000                 0.0000                 0.0000
 Depolar     --     0.0000                 0.0000                 0.0000
 Atom AN      X      Y      Z        X      Y      Z        X      Y      Z
   1   6     0.06  -0.08   0.05     0.07  -0.10   0.05    -0.13   0.17  -0.10
   2   6     0.03  -0.04   0.02     0.17  -0.22   0.12    -0.02   0.03  -0.01
   3   1    -0.06   0.08  -0.05     0.16  -0.22   0.12     0.22  -0.30   0.16
   4   6    -0.24   0.32  -0.18    -0.00  -0.00  -0.00     0.07  -0.10   0.05
   5   1    -0.06   0.08  -0.05    -0.16   0.22  -0.12     0.22  -0.30   0.16
   6   6     0.10  -0.14   0.07    -0.00  -0.00  -0.00     0.20  -0.27   0.15
   7   1    -0.13   0.18  -0.10    -0.30   0.40  -0.22     0.03  -0.03   0.02
   8   6     0.03  -0.04   0.02    -0.17   0.22  -0.12    -0.02   0.03  -0.01
   9   1    -0.20   0.26  -0.15    -0.00   0.00  -0.00    -0.34   0.46  -0.25
  10   6     0.06  -0.08   0.05    -0.07   0.10  -0.05    -0.13   0.17  -0.10
  11   1    -0.13   0.18  -0.10     0.30  -0.40   0.22     0.03  -0.03   0.02
  12   6     0.34  -0.47   0.26     0.00   0.00   0.00    -0.05   0.06  -0.04
  13   8    -0.10   0.13  -0.07     0.00  -0.00   0.00     0.01  -0.01   0.01
  14   8    -0.10   0.13  -0.07    -0.00   0.00  -0.00     0.01  -0.02   0.01
                     16                     17                     18
                        a                      a                      a 
 Frequencies --   926.4139               931.8158               976.9688
 Red. masses --     2.4571                 4.0564                11.2841
 Frc consts  --     0.0000                 0.0000                 0.0000
 IR Inten    --     0.4042                 0.0054                 7.4890
 Raman Activ --     0.0000                 0.0000                 0.0000
 Depolar     --     0.0000                 0.0000                 0.0000
 Atom AN      X      Y      Z        X      Y      Z        X      Y      Z
   1   6     0.07  -0.09   0.05     0.18  -0.24   0.13     0.35   0.35   0.17
   2   6    -0.11   0.15  -0.08    -0.10   0.14  -0.08    -0.20  -0.10   0.09
   3   1    -0.20   0.27  -0.15     0.29  -0.40   0.22    -0.12  -0.07   0.04
   4   6     0.02  -0.03   0.02     0.00  -0.00  -0.00     0.06  -0.09  -0.24
   5   1    -0.20   0.27  -0.15    -0.29   0.40  -0.22     0.10   0.10   0.04
   6   6     0.08  -0.10   0.06     0.00  -0.00   0.00     0.10  -0.14  -0.38
   7   1     0.26  -0.35   0.20     0.14  -0.20   0.11    -0.06  -0.06  -0.03
   8   6    -0.11   0.15  -0.08     0.10  -0.14   0.08     0.16   0.16   0.09
   9   1    -0.20   0.27  -0.15    -0.00   0.00  -0.00     0.03  -0.04  -0.10
  10   6     0.07  -0.09   0.05    -0.17   0.24  -0.13    -0.44  -0.23   0.17
  11   1     0.26  -0.35   0.20    -0.14   0.20  -0.11     0.07   0.04  -0.03
  12   6     0.01  -0.01   0.00     0.00   0.00  -0.00    -0.02   0.03   0.09
  13   8     0.00  -0.00   0.00     0.00  -0.00   0.00     0.05   0.05   0.01
  14   8     0.00  -0.00   0.00    -0.00   0.00  -0.00    -0.06  -0.04   0.01
                     19                     20                     21
                        a                      a                      a 
 Frequencies --  1072.2540              1099.4601              1129.8155
 Red. masses --     6.6205                 3.6085                 8.7109
 Frc consts  --     0.0000                 0.0000                 0.0000
 IR Inten    --     2.0514                 0.1991                37.6032
 Raman Activ --     0.0000                 0.0000                 0.0000
 Depolar     --     0.0000                 0.0000                 0.0000
 Atom AN      X      Y      Z        X      Y      Z        X      Y      Z
   1   6     0.05  -0.05  -0.14    -0.07  -0.15  -0.17     0.15   0.16   0.09
   2   6    -0.31  -0.19   0.07    -0.14  -0.04   0.12     0.23   0.09  -0.13
   3   1    -0.06  -0.22  -0.31     0.05   0.26   0.41    -0.14  -0.24  -0.26
   4   6     0.01  -0.01  -0.02     0.09   0.07   0.00    -0.15   0.20   0.57
   5   1     0.22  -0.01  -0.31     0.27  -0.03  -0.41     0.27   0.06  -0.26
   6   6    -0.11   0.14   0.40     0.16   0.12  -0.00     0.02  -0.03  -0.08
   7   1    -0.14  -0.20  -0.17     0.01   0.14   0.24     0.06   0.01  -0.06
   8   6     0.27   0.24   0.07    -0.08  -0.12  -0.12    -0.16  -0.19  -0.13
   9   1    -0.03   0.04   0.12     0.29   0.21  -0.00     0.01  -0.01  -0.03
  10   6     0.03  -0.06  -0.14    -0.16  -0.02   0.17    -0.19  -0.09   0.09
  11   1     0.23   0.07  -0.17     0.13  -0.03  -0.24    -0.03  -0.05  -0.06
  12   6    -0.00   0.00   0.01     0.01   0.00  -0.00     0.04  -0.05  -0.15
  13   8    -0.00  -0.00  -0.00    -0.01  -0.01  -0.02    -0.02  -0.03  -0.03
  14   8     0.00   0.00  -0.00    -0.02  -0.00   0.02     0.04   0.01  -0.03
                     22                     23                     24
                        a                      a                      a 
 Frequencies --  1182.8587              1187.0102              1271.2116
 Red. masses --     1.5479                 2.7746                 3.9155
 Frc consts  --     0.0000                 0.0000                 0.0000
 IR Inten    --     0.0926                 0.0195                 0.4914
 Raman Activ --     0.0000                 0.0000                 0.0000
 Depolar     --     0.0000                 0.0000                 0.0000
 Atom AN      X      Y      Z        X      Y      Z        X      Y      Z
   1   6     0.02  -0.05  -0.11    -0.04   0.03   0.11     0.11  -0.04  -0.23
   2   6    -0.03  -0.03  -0.01    -0.00  -0.08  -0.14    -0.08  -0.07  -0.01
   3   1    -0.05  -0.09  -0.10     0.06   0.20   0.28    -0.11  -0.25  -0.32
   4   6    -0.02  -0.01  -0.00    -0.06   0.09   0.25     0.23   0.17  -0.00
   5   1    -0.10  -0.02   0.10    -0.21   0.00   0.28    -0.27  -0.03   0.32
   6   6     0.09   0.07  -0.00     0.00  -0.00  -0.00    -0.14  -0.10   0.00
   7   1    -0.09  -0.24  -0.32    -0.10  -0.31  -0.44     0.06   0.23   0.33
   8   6    -0.04  -0.02   0.01     0.08  -0.02  -0.14    -0.09  -0.06   0.01
   9   1     0.61   0.45  -0.00     0.00  -0.00  -0.00     0.18   0.13  -0.00
  10   6    -0.04   0.03   0.11    -0.01   0.05   0.11    -0.01   0.12   0.23
  11   1    -0.25  -0.01   0.32     0.33   0.00  -0.44     0.23  -0.01  -0.33
  12   6    -0.00  -0.00   0.00     0.01  -0.02  -0.06    -0.02  -0.01  -0.00
  13   8    -0.00  -0.00  -0.00    -0.01  -0.01  -0.01    -0.01  -0.01  -0.02
  14   8    -0.00  -0.00   0.00     0.01   0.00  -0.01    -0.01  -0.00   0.02
                     25                     26                     27
                        a                      a                      a 
 Frequencies --  1287.2916              1325.8852              1439.2602
 Red. masses --    14.5097                11.9072                 8.6875
 Frc consts  --     0.0000                 0.0000                 0.0000
 IR Inten    --   409.0384                 0.4129                 1.0333
 Raman Activ --     0.0000                 0.0000                 0.0000
 Depolar     --     0.0000                 0.0000                 0.0000
 Atom AN      X      Y      Z        X      Y      Z        X      Y      Z
   1   6    -0.02   0.01   0.04    -0.22   0.00   0.30     0.06   0.16   0.21
   2   6     0.02   0.02   0.00    -0.09  -0.25  -0.33     0.14  -0.06  -0.30
   3   1    -0.01  -0.02  -0.02    -0.01  -0.03  -0.05     0.08   0.09   0.06
   4   6     0.00  -0.00  -0.00     0.35   0.26  -0.00    -0.33  -0.24   0.00
   5   1     0.02   0.01  -0.02    -0.03   0.00   0.05     0.11   0.05  -0.06
   6   6     0.01  -0.01  -0.03     0.31   0.23  -0.00    -0.31  -0.23   0.00
   7   1     0.00  -0.01  -0.03     0.01   0.02   0.03     0.10   0.15   0.14
   8   6    -0.02  -0.01   0.00    -0.26  -0.01   0.33    -0.02   0.15   0.30
   9   1     0.00  -0.00  -0.01     0.03   0.02  -0.00     0.32   0.24  -0.00
  10   6    -0.00   0.02   0.04    -0.06  -0.22  -0.30     0.17   0.01  -0.21
  11   1     0.01  -0.01  -0.03     0.02  -0.00  -0.03     0.17   0.05  -0.14
  12   6    -0.14   0.19   0.54    -0.01  -0.01  -0.00     0.01   0.01   0.00
  13   8    -0.33  -0.38  -0.25    -0.00  -0.01  -0.02     0.01   0.02   0.02
  14   8     0.46   0.20  -0.25    -0.01   0.00   0.02     0.02   0.00  -0.02
                     28                     29                     30
                        a                      a                      a 
 Frequencies --  1459.2128              1589.9803              1590.0858
 Red. masses --     8.7085                11.4357                11.5962
 Frc consts  --     0.0000                 0.0000                 0.0000
 IR Inten    --     0.0167                 2.3314                 0.0945
 Raman Activ --     0.0000                 0.0000                 0.0000
 Depolar     --     0.0000                 0.0000                 0.0000
 Atom AN      X      Y      Z        X      Y      Z        X      Y      Z
   1   6    -0.28  -0.09   0.20     0.18  -0.08  -0.39     0.28   0.11  -0.16
   2   6     0.16   0.23   0.20     0.02   0.24   0.41    -0.21  -0.20  -0.08
   3   1    -0.03  -0.14  -0.22     0.05   0.07   0.06     0.02  -0.02  -0.06
   4   6     0.09  -0.12  -0.33    -0.04   0.09   0.22    -0.41  -0.30   0.01
   5   1     0.14  -0.02  -0.22    -0.08  -0.03   0.05    -0.02   0.02   0.06
   6   6     0.06  -0.09  -0.24     0.03  -0.09  -0.20     0.43   0.32  -0.01
   7   1    -0.03  -0.15  -0.24    -0.04  -0.08  -0.09    -0.03   0.01   0.06
   8   6    -0.27  -0.09   0.20    -0.21   0.07   0.40    -0.27  -0.13   0.13
   9   1     0.02  -0.03  -0.07     0.02  -0.01  -0.05    -0.11  -0.08  -0.00
  10   6     0.17   0.24   0.20     0.00  -0.22  -0.40     0.19   0.21   0.12
  11   1     0.15  -0.02  -0.24     0.09   0.02  -0.08     0.01  -0.03  -0.07
  12   6     0.01  -0.01  -0.02    -0.00   0.00   0.01    -0.01  -0.01   0.00
  13   8     0.03   0.04   0.03    -0.01  -0.01  -0.01     0.01   0.02   0.02
  14   8    -0.05  -0.02   0.03     0.01   0.01  -0.01     0.02   0.00  -0.02
                     31                     32                     33
                        a                      a                      a 
 Frequencies --  1758.4612              3005.3540              3012.1275
 Red. masses --    13.2010                 1.7276                 1.8063
 Frc consts  --     0.0000                 0.0000                 0.0000
 IR Inten    --   505.6530                 0.3387               153.2449
 Raman Activ --     0.0000                 0.0000                 0.0000
 Depolar     --     0.0000                 0.0000                 0.0000
 Atom AN      X      Y      Z        X      Y      Z        X      Y      Z
   1   6    -0.01  -0.01  -0.00    -0.00  -0.00  -0.01    -0.01  -0.01  -0.01
   2   6     0.01   0.01   0.00     0.11   0.05  -0.06     0.15   0.07  -0.09
   3   1    -0.00   0.01   0.02    -0.03  -0.01   0.02     0.06   0.02  -0.03
   4   6     0.02   0.02  -0.00     0.00  -0.00  -0.00    -0.00  -0.00   0.00
   5   1     0.01  -0.00  -0.02     0.02   0.03   0.02     0.04   0.05   0.03
   6   6    -0.01  -0.00  -0.00    -0.04   0.05   0.15     0.00   0.00   0.00
   7   1    -0.00  -0.00  -0.00    -0.42  -0.18   0.24    -0.55  -0.24   0.31
   8   6     0.01   0.00  -0.00    -0.08  -0.09  -0.06     0.11   0.13   0.09
   9   1     0.00   0.00   0.00     0.15  -0.20  -0.57    -0.00  -0.00  -0.00
  10   6    -0.01  -0.00   0.00     0.00  -0.00  -0.01    -0.01  -0.00   0.01
  11   1    -0.00  -0.00   0.00     0.30   0.35   0.24    -0.39  -0.46  -0.31
  12   6    -0.67  -0.50   0.00    -0.00   0.00   0.00     0.00   0.00  -0.00
  13   8     0.24   0.26   0.15    -0.00  -0.00  -0.00    -0.00  -0.00   0.00
  14   8     0.32   0.16  -0.15     0.00   0.00  -0.00    -0.00  -0.00  -0.00
                     34                     35                     36
                        a                      a                      a 
 Frequencies --  3029.3788              3067.8962              3068.3829
 Red. masses --     1.8844                 1.8267                 1.8346
 Frc consts  --     0.0000                 0.0000                 0.0000
 IR Inten    --   193.7453                59.6316                 0.3420
 Raman Activ --     0.0000                 0.0000                 0.0000
 Depolar     --     0.0000                 0.0000                 0.0000
 Atom AN      X      Y      Z        X      Y      Z        X      Y      Z
   1   6     0.01   0.01   0.01     0.11   0.13   0.09    -0.10  -0.13  -0.09
   2   6    -0.10  -0.05   0.06     0.02   0.01  -0.01    -0.03  -0.01   0.01
   3   1     0.08   0.03  -0.04    -0.54  -0.23   0.31    -0.56  -0.23   0.32
   4   6    -0.00   0.00   0.00     0.00   0.00   0.00     0.00  -0.00  -0.01
   5   1    -0.05  -0.06  -0.04    -0.39  -0.47  -0.33     0.37   0.45   0.31
   6   6    -0.05   0.07   0.20    -0.00  -0.00  -0.00    -0.00   0.01   0.02
   7   1     0.35   0.15  -0.20    -0.05  -0.02   0.03     0.07   0.03  -0.04
   8   6     0.07   0.09   0.06     0.01   0.02   0.01     0.02   0.02   0.02
   9   1     0.18  -0.24  -0.67     0.00   0.00   0.00     0.02  -0.02  -0.06
  10   6    -0.02  -0.01   0.01     0.15   0.06  -0.09     0.16   0.06  -0.09
  11   1    -0.25  -0.29  -0.20    -0.04  -0.04  -0.03    -0.05  -0.06  -0.04
  12   6     0.00  -0.00  -0.00     0.00   0.00   0.00     0.00  -0.00  -0.00
  13   8     0.00   0.00   0.00    -0.00  -0.00  -0.00     0.00   0.00   0.00
  14   8    -0.00  -0.00   0.00    -0.00  -0.00   0.00    -0.00  -0.00   0.00
