      -----------------------------------------------------------      
     |                   =====================                   |     
     |                           x T B                           |     
     |                   =====================                   |     
     |                         S. Grimme                         |     
     |          Mulliken Center for Theoretical Chemistry        |     
     |                    University of Bonn                     |     
      -----------------------------------------------------------      

   * xtb version 6.7.1 (edcfbbe) compiled by 'albert@albert-system' on 2024-07-22

   xtb is free software: you can redistribute it and/or modify it under
   the terms of the GNU Lesser General Public License as published by
   the Free Software Foundation, either version 3 of the License, or
   (at your option) any later version.
   
   xtb is distributed in the hope that it will be useful,
   but WITHOUT ANY WARRANTY; without even the implied warranty of
   MERCHANTABILITY or FITNESS FOR A PARTICULAR PURPOSE.  See the
   GNU Lesser General Public License for more details.
   
   Cite this work as:
   * C. Bannwarth, E. Caldeweyher, S. Ehlert, A. Hansen, P. Pracht,
     J. Seibert, S. Spicher, S. Grimme, WIREs Comput. Mol. Sci., 2020, 11,
     e01493. DOI: 10.1002/wcms.1493
   
   for GFN2-xTB:
   * C. Bannwarth, S. Ehlert and S. Grimme., J. Chem. Theory Comput., 2019,
     15, 1652-1671. DOI: 10.1021/acs.jctc.8b01176
   for GFN1-xTB:
   * S. Grimme, C. Bannwarth, P. Shushkov, J. Chem. Theory Comput., 2017,
     13, 1989-2009. DOI: 10.1021/acs.jctc.7b00118
   for GFN0-xTB:
   * P. Pracht, E. Caldeweyher, S. Ehlert, S. Grimme, ChemRxiv, 2019, preprint.
     DOI: 10.26434/chemrxiv.8326202.v1
   for GFN-FF:
   * S. Spicher and S. Grimme, Angew. Chem. Int. Ed., 2020, 59, 15665-15673.
     DOI: 10.1002/anie.202004239
   
   for ALPB and GBSA implicit solvation:
   * S. Ehlert, M. Stahn, S. Spicher, S. Grimme, J. Chem. Theory Comput.,
     2021, 17, 4250-4261. DOI: 10.1021/acs.jctc.1c00471
   
   for ddCOSMO and CPCM-X implicit solvation:
   * M. Stahn, S. Ehlert, S. Grimme, J. Phys. Chem. A,
     2023, XX, XXXX-XXXX. DOI: 10.1021/acs.jpca.3c04382
   
   for DFT-D4:
   * E. Caldeweyher, C. Bannwarth and S. Grimme, J. Chem. Phys., 2017,
     147, 034112. DOI: 10.1063/1.4993215
   * E. Caldeweyher, S. Ehlert, A. Hansen, H. Neugebauer, S. Spicher,
     C. Bannwarth and S. Grimme, J. Chem. Phys., 2019, 150, 154122.
     DOI: 10.1063/1.5090222
   * E. Caldeweyher, J.-M. Mewes, S. Ehlert and S. Grimme, Phys. Chem. Chem. Phys.
     2020, 22, 8499-8512. DOI: 10.1039/D0CP00502A
   
   for sTDA-xTB:
   * S. Grimme and C. Bannwarth, J. Chem. Phys., 2016, 145, 054103.
     DOI: 10.1063/1.4959605
   
   in the mass-spec context:
   * V. Asgeirsson, C. Bauer and S. Grimme, Chem. Sci., 2017, 8, 4879.
     DOI: 10.1039/c7sc00601b
   * J. Koopman and S. Grimme, ACS Omega 2019, 4, 12, 15120-15133.
     DOI: 10.1021/acsomega.9b02011
   
   for metadynamics refer to:
   * S. Grimme, J. Chem. Theory Comput., 2019, 155, 2847-2862
     DOI: 10.1021/acs.jctc.9b00143
   
   for SPH calculations refer to:
   * S. Spicher and S. Grimme, J. Chem. Theory Comput., 2021, 17, 1701-1714
     DOI: 10.1021/acs.jctc.0c01306
   
   for ONIOM refer to:
   * C. Plett, A. Katbashev, S. Ehlert, S. Grimme, M. Bursch,
     Phys. Chem. Chem. Phys., 2023, 25, 17860-17868. DOI: 10.1039/D3CP02178E
   
   for DIPRO refer to:
   * J. Kohn, N. Gildemeister, S. Grimme, D. Fazzi, A. Hansen,
     J. Chem. Phys., 2023, just accepted.
   
   for PTB refer to:
   * S. Grimme, M. Mueller, A. Hansen, J. Chem. Phys., 2023, 158, 124111.
     DOI: 10.1063/5.0137838
   
   with help from (in alphabetical order)
   P. Atkinson, C. Bannwarth, F. Bohle, G. Brandenburg, E. Caldeweyher
   M. Checinski, S. Dohm, S. Ehlert, S. Ehrlich, I. Gerasimov, C. Hölzer
   A. Katbashev, J. Kohn, J. Koopman, C. Lavigne, S. Lehtola, F. März, M. Müller,
   F. Musil, H. Neugebauer, J. Pisarek, C. Plett, P. Pracht, F. Pultar,
   J. Seibert, P. Shushkov, S. Spicher, M. Stahn, M. Steiner, T. Strunk,
   J. Stückrath, T. Rose, and J. Unsleber
   
 * started run on 2025/10/18 at 03:34:21.395     
   ID    Z sym.   atoms
    1    6 C      1, 2, 4, 6, 8, 10, 12
    2    1 H      3, 5, 7, 9, 11
    3    8 O      13, 14

           -------------------------------------------------
          |                Calculation Setup                |
           -------------------------------------------------

          program call               : xtb xyz.xyz --charge -1 --ohess
          hostname                   : m003
          coordinate file            : xyz.xyz
          omp threads                :                     2


           -------------------------------------------------
          |                 G F N 2 - x T B                 |
           -------------------------------------------------

        Reference                      10.1021/acs.jctc.8b01176
      * Hamiltonian:
        H0-scaling (s, p, d)           1.850000    2.230000    2.230000
        zeta-weighting                 0.500000
      * Dispersion:
        s8                             2.700000
        a1                             0.520000
        a2                             5.000000
        s9                             5.000000
      * Repulsion:
        kExp                           1.500000    1.000000
        rExp                           1.000000
      * Coulomb:
        alpha                          2.000000
        third order                    shell-resolved
        anisotropic                    true
        a3                             3.000000
        a5                             4.000000
        cn-shift                       1.200000
        cn-exp                         4.000000
        max-rad                        5.000000


          ...................................................
          :                      SETUP                      :
          :.................................................:
          :  # basis functions                  41          :
          :  # atomic orbitals                  41          :
          :  # shells                           23          :
          :  # electrons                        46          :
          :  max. iterations                   250          :
          :  Hamiltonian                  GFN2-xTB          :
          :  restarted?                      false          :
          :  GBSA solvation                  false          :
          :  PC potential                    false          :
          :  electronic temp.          300.0000000     K    :
          :  accuracy                    1.0000000          :
          :  -> integral cutoff          0.2500000E+02      :
          :  -> integral neglect         0.1000000E-07      :
          :  -> SCF convergence          0.1000000E-05 Eh   :
          :  -> wf. convergence          0.1000000E-03 e    :
          :  Broyden damping             0.4000000          :
          :  net charge                         -1          :
          :  unpaired electrons                  0          :
          ...................................................

 iter      E             dE          RMSdq      gap      omega  full diag
   1    -26.1294447 -0.261294E+02  0.522E+00    3.97       0.0  T
   2    -26.2082690 -0.788243E-01  0.259E+00    2.41       1.0  T
   3    -26.2082876 -0.186619E-04  0.139E+00    2.24       1.0  T
   4    -26.2148348 -0.654718E-02  0.530E-01    1.99       1.0  T
   5    -26.2171478 -0.231299E-02  0.143E-01    2.11       1.0  T
   6    -26.2173405 -0.192660E-03  0.617E-02    2.14       1.0  T
   7    -26.2173448 -0.438050E-05  0.140E-02    2.16       1.9  T
   8    -26.2173454 -0.586935E-06  0.741E-03    2.16       3.6  T
   9    -26.2173457 -0.249498E-06  0.325E-03    2.16       8.2  T
  10    -26.2173458 -0.764996E-07  0.723E-04    2.16      37.0  T
  11    -26.2173458 -0.252680E-09  0.383E-04    2.16      69.8  T

   *** convergence criteria satisfied after 11 iterations ***

         #    Occupation            Energy/Eh            Energy/eV
      -------------------------------------------------------------
         1        2.0000           -0.5070419             -13.7973
       ...           ...                  ...                  ...
        17        2.0000           -0.2946402              -8.0176
        18        2.0000           -0.2783574              -7.5745
        19        2.0000           -0.2682821              -7.3003
        20        2.0000           -0.2557589              -6.9596
        21        2.0000           -0.1964141              -5.3447
        22        2.0000           -0.1815990              -4.9416
        23        2.0000           -0.1770723              -4.8184 (HOMO)
        24                         -0.0978269              -2.6620 (LUMO)
        25                         -0.0915732              -2.4918
        26                          0.0012605               0.0343
        27                          0.0711611               1.9364
        28                          0.2380301               6.4771
       ...                                ...                  ...
        41                          0.8117404              22.0886
      -------------------------------------------------------------
                  HL-Gap            0.0792455 Eh            2.1564 eV
             Fermi-level           -0.1374496 Eh           -3.7402 eV

 SCC (total)                   0 d,  0 h,  0 min,  0.063 sec
 SCC setup                      ...        0 min,  0.000 sec (  0.276%)
 Dispersion                     ...        0 min,  0.000 sec (  0.203%)
 classical contributions        ...        0 min,  0.000 sec (  0.050%)
 integral evaluation            ...        0 min,  0.001 sec (  2.067%)
 iterations                     ...        0 min,  0.058 sec ( 92.845%)
 molecular gradient             ...        0 min,  0.003 sec (  4.277%)
 printout                       ...        0 min,  0.000 sec (  0.236%)

         :::::::::::::::::::::::::::::::::::::::::::::::::::::
         ::                     SUMMARY                     ::
         :::::::::::::::::::::::::::::::::::::::::::::::::::::
         :: total energy             -25.881533032499 Eh    ::
         :: gradient norm              0.072032490045 Eh/a0 ::
         :: HOMO-LUMO gap              2.156378556507 eV    ::
         ::.................................................::
         :: SCC energy               -26.217328918743 Eh    ::
         :: -> isotropic ES            0.195522733893 Eh    ::
         :: -> anisotropic ES          0.007990059959 Eh    ::
         :: -> anisotropic XC          0.007471464398 Eh    ::
         :: -> dispersion             -0.012189535436 Eh    ::
         :: repulsion energy           0.335795886244 Eh    ::
         :: add. restraining           0.000000000000 Eh    ::
         :: total charge              -1.000000000000 e     ::
         :::::::::::::::::::::::::::::::::::::::::::::::::::::

      ----------------------------------------------------------- 
     |                   =====================                   |
     |                        A N C O P T                        |
     |                   =====================                   |
     |               Approximate Normal Coordinate               |
     |                Rational Function Optimizer                |
      ----------------------------------------------------------- 
      ----------------------------------------------------------- 
     |                   =====================                   |
     |                        A N C O P T                        |
     |                   =====================                   |
     |               Approximate Normal Coordinate               |
     |                Rational Function Optimizer                |
      ----------------------------------------------------------- 

          ...................................................
          :                      SETUP                      :
          :.................................................:
          :   optimization level            normal          :
          :   max. optcycles                   200          :
          :   ANC micro-cycles                  20          :
          :   degrees of freedom                36          :
          :.................................................:
          :   RF solver                   davidson          :
          :   write xtbopt.log                true          :
          :   linear?                        false          :
          :   energy convergence         0.5000000E-05 Eh   :
          :   grad. convergence          0.1000000E-02 Eh/α :
          :   maxmium RF displ.          1.0000000          :
          :   Hlow (freq-cutoff)         0.1000000E-01      :
          :   Hmax (freq-cutoff)         5.0000000          :
          :   S6 in model hess.         20.0000000          :
          ...................................................

generating ANC from exact Hessian ...
Using Lindh-Hessian (1995)
 Shifting diagonal of input Hessian by   5.061917514263889E-003
 Lowest  eigenvalues of input Hessian
    0.000000    0.000000    0.000000    0.000000    0.000000    0.000000
    0.010000    0.014328    0.019373    0.021427    0.023823    0.028383
    0.046144    0.069442    0.069776    0.075235    0.096571    0.098158
 Highest eigenvalues
    1.510350    1.697026    1.816420    1.915157    1.953512    2.225540
 

........................................................................
.............................. CYCLE    1 ..............................
........................................................................

 iter      E             dE          RMSdq      gap      omega  full diag
   1    -26.2173458 -0.262173E+02  0.470E-05    2.16       0.0  T
   2    -26.2173458 -0.239453E-11  0.263E-05    2.16    1014.4  T
   3    -26.2173458  0.106581E-12  0.114E-05    2.16    2342.1  T
     SCC iter.                  ...        0 min,  0.001 sec
     gradient                   ...        0 min,  0.002 sec
 * total energy  :   -25.8815330 Eh     change       -0.7146816E-09 Eh
   gradient norm :     0.0720356 Eh/α   predicted     0.0000000E+00 (-100.00%)
   displ. norm   :     0.1099847 α      lambda       -0.4729349E-02
   maximum displ.:     0.0571591 α      in ANC's #19, #8, #20, ...

........................................................................
.............................. CYCLE    2 ..............................
........................................................................

 iter      E             dE          RMSdq      gap      omega  full diag
   1    -26.2428991 -0.262429E+02  0.154E-01    2.19       0.0  T
   2    -26.2430156 -0.116462E-03  0.890E-02    2.21       1.0  T
   3    -26.2430340 -0.184273E-04  0.504E-02    2.23       1.0  T
   4    -26.2430357 -0.164743E-05  0.731E-03    2.24       3.7  T
   5    -26.2430359 -0.204039E-06  0.412E-03    2.24       6.5  T
   6    -26.2430360 -0.159144E-06  0.148E-03    2.23      18.0  T
   7    -26.2430360 -0.626601E-08  0.497E-04    2.23      53.8  T
   8    -26.2430360  0.758043E-10  0.191E-04    2.23     139.9  T
     SCC iter.                  ...        0 min,  0.003 sec
     gradient                   ...        0 min,  0.002 sec
 * total energy  :   -25.8846273 Eh     change       -0.3094221E-02 Eh
   gradient norm :     0.0309320 Eh/α   predicted    -0.2393280E-02 ( -22.65%)
   displ. norm   :     0.0469672 α      lambda       -0.1017041E-02
   maximum displ.:     0.0258023 α      in ANC's #11, #32, #20, ...

........................................................................
.............................. CYCLE    3 ..............................
........................................................................

 iter      E             dE          RMSdq      gap      omega  full diag
   1    -26.2515341 -0.262515E+02  0.790E-02    2.23       0.0  T
   2    -26.2515784 -0.442696E-04  0.442E-02    2.27       1.0  T
   3    -26.2515861 -0.771001E-05  0.253E-02    2.28       1.1  T
   4    -26.2515864 -0.281423E-06  0.940E-03    2.28       2.8  T
   5    -26.2515869 -0.553258E-06  0.328E-03    2.29       8.2  T
   6    -26.2515870 -0.994480E-07  0.102E-03    2.28      26.2  T
   7    -26.2515870 -0.274446E-08  0.279E-04    2.28      95.9  T
   8    -26.2515870 -0.592877E-09  0.107E-04    2.28     250.5  T
     SCC iter.                  ...        0 min,  0.003 sec
     gradient                   ...        0 min,  0.002 sec
 * total energy  :   -25.8852404 Eh     change       -0.6131748E-03 Eh
   gradient norm :     0.0107609 Eh/α   predicted    -0.5096436E-03 ( -16.88%)
   displ. norm   :     0.0247201 α      lambda       -0.2146694E-03
   maximum displ.:     0.0129885 α      in ANC's #11, #25, #32, ...

........................................................................
.............................. CYCLE    4 ..............................
........................................................................

 iter      E             dE          RMSdq      gap      omega  full diag
   1    -26.2510155 -0.262510E+02  0.382E-02    2.28       0.0  T
   2    -26.2510228 -0.729383E-05  0.250E-02    2.30       1.1  T
   3    -26.2510243 -0.159901E-05  0.136E-02    2.30       2.0  T
   4    -26.2510248 -0.448037E-06  0.535E-03    2.30       5.0  T
   5    -26.2510249 -0.123539E-06  0.150E-03    2.31      17.8  T
   6    -26.2510249 -0.162976E-07  0.629E-04    2.30      42.5  T
   7    -26.2510249 -0.100394E-08  0.159E-04    2.30     168.4  T
     SCC iter.                  ...        0 min,  0.003 sec
     gradient                   ...        0 min,  0.002 sec
 * total energy  :   -25.8853856 Eh     change       -0.1451853E-03 Eh
   gradient norm :     0.0043692 Eh/α   predicted    -0.1074013E-03 ( -26.02%)
   displ. norm   :     0.0177921 α      lambda       -0.5974645E-04
   maximum displ.:     0.0099111 α      in ANC's #8, #19, #25, ...

........................................................................
.............................. CYCLE    5 ..............................
........................................................................

 iter      E             dE          RMSdq      gap      omega  full diag
   1    -26.2492325 -0.262492E+02  0.236E-02    2.30       0.0  T
   2    -26.2492345 -0.201006E-05  0.166E-02    2.31       1.6  T
   3    -26.2492349 -0.440886E-06  0.858E-03    2.31       3.1  T
   4    -26.2492352 -0.242920E-06  0.294E-03    2.31       9.1  T
   5    -26.2492352 -0.447208E-07  0.817E-04    2.31      32.7  T
   6    -26.2492352 -0.342810E-08  0.377E-04    2.31      70.9  T
     SCC iter.                  ...        0 min,  0.002 sec
     gradient                   ...        0 min,  0.002 sec
 * total energy  :   -25.8854179 Eh     change       -0.3232554E-04 Eh
   gradient norm :     0.0007776 Eh/α   predicted    -0.2988322E-04 (  -7.56%)
   displ. norm   :     0.0055200 α      lambda       -0.1392741E-05
   maximum displ.:     0.0042780 α      in ANC's #8, #11, #19, ...

........................................................................
.............................. CYCLE    6 ..............................
........................................................................

 iter      E             dE          RMSdq      gap      omega  full diag
   1    -26.2488451 -0.262488E+02  0.608E-03    2.32       0.0  T
   2    -26.2488451 -0.383152E-07  0.401E-03    2.32       6.7  T
   3    -26.2488451  0.170768E-07  0.195E-03    2.32      13.7  T
   4    -26.2488452 -0.367862E-07  0.294E-04    2.32      90.8  T
   5    -26.2488452 -0.507566E-09  0.108E-04    2.32     247.2  T
     SCC iter.                  ...        0 min,  0.002 sec
     gradient                   ...        0 min,  0.002 sec
 * total energy  :   -25.8854188 Eh     change       -0.8508474E-06 Eh
   gradient norm :     0.0003959 Eh/α   predicted    -0.6972488E-06 ( -18.05%)
   displ. norm   :     0.0063754 α      lambda       -0.8884458E-06
   maximum displ.:     0.0036847 α      in ANC's #7, #1, #8, ...

   *** GEOMETRY OPTIMIZATION CONVERGED AFTER 6 ITERATIONS ***

------------------------------------------------------------------------
 total energy gain   :        -0.0038858 Eh       -2.4384 kcal/mol
 total RMSD          :         0.0390190 a0        0.0206 Å
 total power (kW/mol):        -1.7003430 (step) -270.1815 (real)
------------------------------------------------------------------------

 ANCopt (total)                0 d,  0 h,  0 min,  0.038 sec
 optimizer setup                ...        0 min,  0.000 sec (  0.538%)
 model hessian                  ...        0 min,  0.001 sec (  3.871%)
 ANC generation                 ...        0 min,  0.000 sec (  0.607%)
 coordinate transformation      ...        0 min,  0.000 sec (  0.121%)
 single point calculation       ...        0 min,  0.034 sec ( 90.358%)
 optimization log               ...        0 min,  0.000 sec (  0.931%)
 hessian update                 ...        0 min,  0.000 sec (  0.174%)
 rational function              ...        0 min,  0.001 sec (  2.642%)

================
 final structure:
================
14
 xtb: 6.7.1 (edcfbbe)
C           -4.17683875311447       -1.98854562447024        1.99267501820845
C           -3.84074727314820       -2.43811288265106        0.72841292939683
H           -6.97719707186064       -3.77349948822435        2.51075412815265
C           -5.30827624920652       -2.46891545562110        2.63818464653302
H           -3.57183958443098       -1.25579469175044        2.50939990797561
C           -4.63725597571731       -3.37788393003386        0.09332511214270
H           -2.95545793063086       -2.05912293384068        0.22908612260089
C           -5.76890453126208       -3.86367049576158        0.72918355506920
H           -4.37588662822185       -3.73193870996697       -0.89788278696751
C           -6.09954965407047       -3.41007646965946        1.99344120976799
H           -6.39101486196819       -4.59915932695665        0.23045239465449
C           -5.68502069795383       -1.95855080871035        4.06768417230520
O           -4.91217802420183       -1.11861416887735        4.55183717044939
O           -6.71436176421278       -2.45102001347591        4.55257441971107
 
 Bond Distances (Angstroems)
 ---------------------------
C1-C2=1.3833         C1-C4=1.3884         C1-H5=1.0816         C2-C1=1.3833         C2-C6=1.3860         C2-H7=1.0848         
H3-C10=1.0816        C4-C1=1.3884         C4-C10=1.3884        C4-C12=1.5639        H5-C1=1.0816         C6-C2=1.3860         
C6-C8=1.3860         C6-H9=1.0845         H7-C2=1.0848         C8-C6=1.3860         C8-C10=1.3833        C8-H11=1.0848        
H9-C6=1.0845         C10-H3=1.0816        C10-C4=1.3884        C10-C8=1.3833        H11-C8=1.0848        C12-C4=1.5639        
C12-O13=1.2398       C12-O14=1.2398       O13-C12=1.2398       O14-C12=1.2398       
 C  H  Rav=1.0835 sigma=0.0015  Rmin=1.0816  Rmax=1.0848     5
 C  C  Rav=1.4113 sigma=0.0623  Rmin=1.3833  Rmax=1.5639     7
 O  C  Rav=1.2398 sigma=0.0000  Rmin=1.2398  Rmax=1.2398     2
 
 selected bond angles (degree)
 --------------------
C4-C1-C2=120.70                H5-C1-C2=121.39                H5-C1-C4=117.91                C6-C2-C1=119.97                
H7-C2-C1=120.36                H7-C2-C6=119.67                C10-C4-C1=118.89               C12-C4-C1=120.56               
C12-C4-C10=120.56              C8-C6-C2=119.78                H9-C6-C2=120.11                H9-C6-C8=120.11                
C10-C8-C6=119.97               H11-C8-C6=119.67               H11-C8-C10=120.36              C4-C10-H3=117.91               
C8-C10-H3=121.39               C8-C10-C4=120.70               
 
 selected dihedral angles (degree)
 ---------------------------------
C6-C2-C1-C4=  0.00            C6-C2-C1-H5=180.00            H7-C2-C1-C4=180.00            H7-C2-C1-H5=  0.00            
C10-C4-C1-C2=  0.00           C10-C4-C1-H5=180.00           C12-C4-C1-C2=179.99           C12-C4-C1-H5=  0.00           
C8-C6-C2-C1=  0.00            C8-C6-C2-H7=180.00            H9-C6-C2-C1=180.00            H9-C6-C2-H7=  0.00            
C10-C8-C6-C2=  0.00           C10-C8-C6-H9=180.00           H11-C8-C6-C2=180.00           H11-C8-C6-H9=  0.00           
H3-C10-C4-C1=180.00           H3-C10-C4-C12=  0.00          C8-C10-C4-C1=  0.00           C8-C10-C4-C12=180.01          
H3-C10-C8-C6=180.00           H3-C10-C8-H11=  0.00          C4-C10-C8-C6=  0.00           C4-C10-C8-H11=180.00          
           -------------------------------------------------
          |                Final Singlepoint                |
           -------------------------------------------------

          ...................................................
          :                      SETUP                      :
          :.................................................:
          :  # basis functions                  41          :
          :  # atomic orbitals                  41          :
          :  # shells                           23          :
          :  # electrons                        46          :
          :  max. iterations                   250          :
          :  Hamiltonian                  GFN2-xTB          :
          :  restarted?                      false          :
          :  GBSA solvation                  false          :
          :  PC potential                    false          :
          :  electronic temp.          300.0000000     K    :
          :  accuracy                    1.0000000          :
          :  -> integral cutoff          0.2500000E+02      :
          :  -> integral neglect         0.1000000E-07      :
          :  -> SCF convergence          0.1000000E-05 Eh   :
          :  -> wf. convergence          0.1000000E-03 e    :
          :  Broyden damping             0.4000000          :
          :  net charge                         -1          :
          :  unpaired electrons                  0          :
          ...................................................

 iter      E             dE          RMSdq      gap      omega  full diag
   1    -26.2488452 -0.262488E+02  0.498E-05    2.32       0.0  T
   2    -26.2488452 -0.314770E-11  0.283E-05    2.32     943.0  T
   3    -26.2488452  0.294875E-12  0.168E-05    2.32    1593.4  T

   *** convergence criteria satisfied after 3 iterations ***

         #    Occupation            Energy/Eh            Energy/eV
      -------------------------------------------------------------
         1        2.0000           -0.5054514             -13.7540
       ...           ...                  ...                  ...
        17        2.0000           -0.2942026              -8.0057
        18        2.0000           -0.2762483              -7.5171
        19        2.0000           -0.2660007              -7.2382
        20        2.0000           -0.2551378              -6.9427
        21        2.0000           -0.2026140              -5.5134
        22        2.0000           -0.1879997              -5.1157
        23        2.0000           -0.1737180              -4.7271 (HOMO)
        24                         -0.0885935              -2.4108 (LUMO)
        25                         -0.0839532              -2.2845
        26                          0.0140822               0.3832
        27                          0.0802937               2.1849
        28                          0.2379674               6.4754
       ...                                ...                  ...
        41                          0.9069382              24.6790
      -------------------------------------------------------------
                  HL-Gap            0.0851245 Eh            2.3164 eV
             Fermi-level           -0.1311557 Eh           -3.5689 eV

 SCC (total)                   0 d,  0 h,  0 min,  0.005 sec
 SCC setup                      ...        0 min,  0.000 sec (  1.806%)
 Dispersion                     ...        0 min,  0.000 sec (  1.303%)
 classical contributions        ...        0 min,  0.000 sec (  0.306%)
 integral evaluation            ...        0 min,  0.001 sec ( 20.422%)
 iterations                     ...        0 min,  0.001 sec ( 25.846%)
 molecular gradient             ...        0 min,  0.002 sec ( 48.074%)
 printout                       ...        0 min,  0.000 sec (  1.697%)

         :::::::::::::::::::::::::::::::::::::::::::::::::::::
         ::                     SUMMARY                     ::
         :::::::::::::::::::::::::::::::::::::::::::::::::::::
         :: total energy             -25.885418791152 Eh    ::
         :: gradient norm              0.000395899102 Eh/a0 ::
         :: HOMO-LUMO gap              2.316354678553 eV    ::
         ::.................................................::
         :: SCC energy               -26.248828709845 Eh    ::
         :: -> isotropic ES            0.190755844293 Eh    ::
         :: -> anisotropic ES          0.007745436814 Eh    ::
         :: -> anisotropic XC          0.006515577165 Eh    ::
         :: -> dispersion             -0.012279752046 Eh    ::
         :: repulsion energy           0.363409918693 Eh    ::
         :: add. restraining           0.000000000000 Eh    ::
         :: total charge              -1.000000000000 e     ::
         :::::::::::::::::::::::::::::::::::::::::::::::::::::

           ------------------------------------------------- 
          |                Numerical Hessian                |
           ------------------------------------------------- 
step length          :   0.00500
SCC accuracy         :   0.30000
Hessian scale factor :   1.00000
frozen atoms in %    :   0.00000    0
RMS gradient         :   0.00040
estimated CPU  time      0.02 min
estimated wall time      0.01 min

writing file <hessian>.

 projected vibrational frequencies (cm⁻¹)
eigval :       -0.00    -0.00    -0.00    -0.00     0.00     0.00
eigval :       30.45   133.65   174.50   344.01   353.09   393.99
eigval :      504.25   586.37   640.02   640.90   701.88   764.52
eigval :      782.38   878.00   894.47   926.41   931.82   976.97
eigval :     1072.25  1099.46  1129.82  1182.86  1187.01  1271.21
eigval :     1287.29  1325.89  1439.26  1459.21  1589.98  1590.09
eigval :     1758.46  3005.35  3012.13  3029.38  3067.90  3068.38
           -------------------------------------------------
          |                Property Printout                |
           -------------------------------------------------

    * Orbital Energies and Occupations

         #    Occupation            Energy/Eh            Energy/eV
      -------------------------------------------------------------
         1        2.0000           -0.5054513             -13.7540
       ...           ...                  ...                  ...
        11        2.0000           -0.3496307              -9.5139
        12        2.0000           -0.3421295              -9.3098
        13        2.0000           -0.3406690              -9.2701
        14        2.0000           -0.3360623              -9.1447
        15        2.0000           -0.3165768              -8.6145
        16        2.0000           -0.2962482              -8.0613
        17        2.0000           -0.2942026              -8.0057
        18        2.0000           -0.2762483              -7.5171
        19        2.0000           -0.2660007              -7.2382
        20        2.0000           -0.2551378              -6.9427
        21        2.0000           -0.2026139              -5.5134
        22        2.0000           -0.1879996              -5.1157
        23        2.0000           -0.1737180              -4.7271 (HOMO)
        24                         -0.0885935              -2.4108 (LUMO)
        25                         -0.0839533              -2.2845
        26                          0.0140823               0.3832
        27                          0.0802937               2.1849
        28                          0.2379674               6.4754
        29                          0.2547289               6.9315
        30                          0.2945836               8.0160
        31                          0.2965599               8.0698
        32                          0.3350728               9.1178
        33                          0.3355416               9.1306
        34                          0.5241336              14.2624
       ...                                ...                  ...
        41                          0.9069382              24.6790
      -------------------------------------------------------------
                  HL-Gap            0.0851245 Eh            2.3164 eV
             Fermi-level           -0.1311557 Eh           -3.5689 eV

     #   Z          covCN         q      C6AA      α(0)
     1   6 C        2.923    -0.029    28.726     8.789
     2   6 C        2.918    -0.042    29.051     8.839
     3   1 H        0.925     0.034     2.529     2.487
     4   6 C        2.963    -0.036    28.889     8.816
     5   1 H        0.925     0.034     2.529     2.487
     6   6 C        2.920    -0.045    29.112     8.848
     7   1 H        0.925    -0.008     3.204     2.799
     8   6 C        2.918    -0.042    29.051     8.839
     9   1 H        0.925    -0.012     3.271     2.828
    10   6 C        2.923    -0.029    28.726     8.789
    11   1 H        0.925    -0.008     3.204     2.799
    12   6 C        2.684     0.364    20.833     7.470
    13   8 O        0.856    -0.590    25.876     6.820
    14   8 O        0.856    -0.590    25.876     6.820

 Mol. C6AA /au·bohr⁶  :       3073.278107
 Mol. C8AA /au·bohr⁸  :      74507.266065
 Mol. α(0) /au        :         87.430096


Wiberg/Mayer (AO) data.
largest (>0.10) Wiberg bond orders for each atom

 ---------------------------------------------------------------------------
     #   Z sym  total        # sym  WBO       # sym  WBO       # sym  WBO
 ---------------------------------------------------------------------------
     1   6 C    3.991 --     2 C    1.448     4 C    1.409     5 H    0.966
                             8 C    0.107
     2   6 C    3.991 --     1 C    1.448     6 C    1.433     7 H    0.971
                            10 C    0.107
     3   1 H    0.999 --    10 C    0.966
     4   6 C    3.945 --     1 C    1.409    10 C    1.409    12 C    0.878
                             6 C    0.112
     5   1 H    0.999 --     1 C    0.966
     6   6 C    3.990 --     2 C    1.433     8 C    1.433     9 H    0.972
                             4 C    0.112
     7   1 H    0.999 --     2 C    0.971
     8   6 C    3.991 --    10 C    1.448     6 C    1.433    11 H    0.971
                             1 C    0.107
     9   1 H    0.999 --     6 C    0.972
    10   6 C    3.991 --     8 C    1.448     4 C    1.409     3 H    0.966
                             2 C    0.107
    11   1 H    0.999 --     8 C    0.971
    12   6 C    3.947 --    13 O    1.520    14 O    1.520     4 C    0.878
    13   8 O    1.853 --    12 C    1.520    14 O    0.241
    14   8 O    1.853 --    12 C    1.520    13 O    0.241
 ---------------------------------------------------------------------------

Topologies differ in total number of bonds
Writing topology from bond orders to xtbtopo.mol

molecular dipole:
                 x           y           z       tot (Debye)
 q only:       10.706       3.751      -7.543
   full:       10.798       3.626      -7.892      35.223
molecular quadrupole (traceless):
                xx          xy          yy          xz          yz          zz
 q only:      -76.974     -62.645      75.339     124.837      37.441       1.635
  q+dip:      -77.539     -59.942      78.388     129.946      40.060      -0.849
   full:      -77.683     -61.820      79.395     131.017      38.611      -1.713

           -------------------------------------------------
          |                Geometry Summary                 |
           -------------------------------------------------

      molecular mass/u    :      121.1136649
   center of mass at/Å    :       -5.2600414      -2.5342197       2.4549869
  moments of inertia/u·Å² :        0.1272897E+03   0.4039206E+03   0.5312102E+03
rotational constants/cm⁻¹ :        0.1324352E+00   0.4173502E-01   0.3173439E-01

 * 13 selected distances

     #   Z          #   Z                                           value/Å
     1   6 C        2   6 C                                       1.3832669
     1   6 C        4   6 C                                       1.3883764
     1   6 C        5   1 H                                       1.0816435 (min)
     2   6 C        6   6 C                                       1.3859771
     2   6 C        7   1 H                                       1.0847572
     6   6 C        8   6 C                                       1.3859774
     6   6 C        9   1 H                                       1.0845100
     3   1 H       10   6 C                                       1.0816442
     4   6 C       10   6 C                                       1.3883775 (max)
     8   6 C       10   6 C                                       1.3832648
     8   6 C       11   1 H                                       1.0847571
    12   6 C       13   8 O                                       1.2398322
    12   6 C       14   8 O                                       1.2398338

 * 3 distinct bonds (by element types)

   Z      Z             #   av. dist./Å        max./Å        min./Å
   1 H    6 C           5     1.0834624     1.0847572     1.0816435
   6 C    6 C           6     1.3858734     1.3883775     1.3832648
   6 C    8 O           2     1.2398330     1.2398338     1.2398322

           -------------------------------------------------
          |               Frequency Printout                |
           -------------------------------------------------
 projected vibrational frequencies (cm⁻¹)
eigval :       -0.00    -0.00    -0.00    -0.00     0.00     0.00
eigval :       30.45   133.65   174.50   344.01   353.09   393.99
eigval :      504.25   586.37   640.02   640.90   701.88   764.52
eigval :      782.38   878.00   894.47   926.41   931.82   976.97
eigval :     1072.25  1099.46  1129.82  1182.86  1187.01  1271.21
eigval :     1287.29  1325.89  1439.26  1459.21  1589.98  1590.09
eigval :     1758.46  3005.35  3012.13  3029.38  3067.90  3068.38
 reduced masses (amu)
   1: 13.22   2: 12.31   3: 11.66   4: 11.76   5: 12.44   6: 13.78   7: 14.03   8: 11.32
   9: 12.84  10: 13.36  11:  8.83  12: 10.06  13: 13.72  14: 11.19  15: 11.11  16: 12.48
  17:  5.27  18: 13.18  19:  9.22  20:  3.43  21:  4.06  22:  2.46  23:  4.06  24: 11.28
  25:  6.62  26:  3.61  27:  8.71  28:  1.55  29:  2.77  30:  3.92  31: 14.51  32: 11.91
  33:  8.69  34:  8.71  35: 11.44  36: 11.60  37: 13.20  38:  1.73  39:  1.81  40:  1.88
  41:  1.83  42:  1.83
 IR intensities (km·mol⁻¹)
   1: 10.07   2:  5.36   3:  1.82   4:  2.02   5:  6.72   6: 12.42   7:  0.00   8:  7.58
   9:  1.30  10:  2.03  11:  0.00  12:  1.79  13:  0.48  14:  0.14  15:  8.05  16: 21.63
  17: 53.10  18:150.59  19: 10.38  20:  0.00  21:  0.04  22:  0.40  23:  0.01  24:  7.49
  25:  2.05  26:  0.20  27: 37.60  28:  0.09  29:  0.02  30:  0.49  31:409.04  32:  0.41
  33:  1.03  34:  0.02  35:  2.33  36:  0.09  37:505.65  38:  0.34  39:153.24  40:193.75
  41: 59.63  42:  0.34
 Raman intensities (Ä⁴*amu⁻¹)
   1:  0.00   2:  0.00   3:  0.00   4:  0.00   5:  0.00   6:  0.00   7:  0.00   8:  0.00
   9:  0.00  10:  0.00  11:  0.00  12:  0.00  13:  0.00  14:  0.00  15:  0.00  16:  0.00
  17:  0.00  18:  0.00  19:  0.00  20:  0.00  21:  0.00  22:  0.00  23:  0.00  24:  0.00
  25:  0.00  26:  0.00  27:  0.00  28:  0.00  29:  0.00  30:  0.00  31:  0.00  32:  0.00
  33:  0.00  34:  0.00  35:  0.00  36:  0.00  37:  0.00  38:  0.00  39:  0.00  40:  0.00
  41:  0.00  42:  0.00
 output can be read by thermo (or use thermo option).
 writing <g98.out> molden fake output.
 recommended (thermochemical) frequency scaling factor: 1.0
           -------------------------------------------------
          |             Thermodynamic Functions             |
           -------------------------------------------------

Molecule has the following symmetry elements: (C2) 2*(sigma) 
It seems to be the C2v point group
c2v symmetry found (for desy threshold:  0.10E+00) used in thermo

          ...................................................
          :                      SETUP                      :
          :.................................................:
          :  # frequencies                          36      :
          :  # imaginary freq.                       0      :
          :  linear?                             false      :
          :  only rotor calc.                    false      :
          :  symmetry                              c2v      :
          :  rotational number                       2      :
          :  scaling factor                  1.0000000      :
          :  rotor cutoff                   50.0000000 cm⁻¹ :
          :  imag. cutoff                  -20.0000000 cm⁻¹ :
          :.................................................:

    mode    ω/cm⁻¹     T·S(HO)/kcal·mol⁻¹    T·S(FR)/kcal·mol⁻¹   T·S(vib)
   ------------------------------------------------------------------------
       1     30.45    -1.72916 ( 12.10%)    -1.20297 ( 87.90%)    -1.26662
       2    133.65    -0.86251 ( 98.08%)    -0.76518 (  1.92%)    -0.86064
       3    174.50    -0.71154 ( 99.33%)    -0.68620 (  0.67%)    -0.71137
   ------------------------------------------------------------------------

   temp. (K)  partition function   enthalpy   heat capacity  entropy
                                   cal/mol     cal/K/mol   cal/K/mol   J/K/mol
 298.15  VIB   72.9                 2861.137     20.342     16.564
         ROT  0.200E+06              888.752      2.981     27.234
         INT  0.146E+08             3749.889     23.323     43.797
         TR   0.129E+28             1481.254      4.968     40.271
         TOT                        5231.1433    28.2907    84.0681   351.7407

       T/K    H(0)-H(T)+PV         H(T)/Eh          T*S/Eh         G(T)/Eh
   ------------------------------------------------------------------------
    298.15    0.833636E-02    0.106830E+00    0.399434E-01    0.668863E-01
   ------------------------------------------------------------------------

         :::::::::::::::::::::::::::::::::::::::::::::::::::::
         ::                  THERMODYNAMIC                  ::
         :::::::::::::::::::::::::::::::::::::::::::::::::::::
         :: total free energy         -25.818532453795 Eh   ::
         ::.................................................::
         :: total energy              -25.885418791153 Eh   ::
         :: zero point energy           0.098493425113 Eh   ::
         :: G(RRHO) w/o ZPVE           -0.031607087754 Eh   ::
         :: G(RRHO) contrib.            0.066886337359 Eh   ::
         :::::::::::::::::::::::::::::::::::::::::::::::::::::

optimized geometry written to: xtbopt.xyz


           -------------------------------------------------
          | TOTAL ENERGY              -25.885418791153 Eh   |
          | TOTAL ENTHALPY            -25.778589008616 Eh   |
          | TOTAL FREE ENERGY         -25.818532453795 Eh   |
          | GRADIENT NORM               0.000395927633 Eh/α |
          | HOMO-LUMO GAP               2.316355242224 eV   |
           -------------------------------------------------

------------------------------------------------------------------------
 * finished run on 2025/10/18 at 03:34:22.212     
------------------------------------------------------------------------
 total:
 * wall-time:     0 d,  0 h,  0 min,  0.817 sec
 *  cpu-time:     0 d,  0 h,  0 min,  1.171 sec
 * ratio c/w:     1.434 speedup
 SCF:
 * wall-time:     0 d,  0 h,  0 min,  0.063 sec
 *  cpu-time:     0 d,  0 h,  0 min,  0.076 sec
 * ratio c/w:     1.216 speedup
 ANC optimizer:
 * wall-time:     0 d,  0 h,  0 min,  0.087 sec
 *  cpu-time:     0 d,  0 h,  0 min,  0.130 sec
 * ratio c/w:     1.500 speedup
 analytical hessian:
 * wall-time:     0 d,  0 h,  0 min,  0.407 sec
 *  cpu-time:     0 d,  0 h,  0 min,  0.746 sec
 * ratio c/w:     1.833 speedup

