14
 energy: -25.881533033213 gnorm: 0.072035634184 xtb: 6.7.1 (edcfbbe)
C           -4.17047200000000       -1.98088300000000        1.99793000000000
C           -3.83283100000000       -2.43643200000000        0.72090100000000
H           -6.99746400000000       -3.79524500000000        2.49834200000000
C           -5.31343100000000       -2.46140500000000        2.65841600000000
H           -3.54434500000000       -1.24245700000000        2.49655100000000
C           -4.63461600000000       -3.38155400000000        0.08323600000000
H           -2.94453500000000       -2.04976600000000        0.23149800000000
C           -5.77282500000000       -3.87059900000000        0.72192800000000
H           -4.37325400000000       -3.73598100000000       -0.90853600000000
C           -6.10827500000000       -3.41350100000000        1.99882900000000
H           -6.40347300000000       -4.60666700000000        0.23362900000000
C           -5.67954400000000       -1.96638000000000        4.04505500000000
O           -4.90971200000000       -1.10393100000000        4.57580600000000
O           -6.72975200000000       -2.45010400000000        4.57554300000000
14
 energy: -25.884627254560 gnorm: 0.030932030621 xtb: 6.7.1 (edcfbbe)
C           -4.17762147171937       -1.98735539281122        1.99578169005310
C           -3.84129954877038       -2.43813027097081        0.72916413440035
H           -6.98185449753670       -3.78122242345089        2.50283009182973
C           -5.31075461148360       -2.46521097942039        2.64793959436624
H           -3.56256989267879       -1.25342284798642        2.50110898055982
C           -4.63711584822357       -3.37811993247264        0.09280191103312
H           -2.95488351182858       -2.05418387571164        0.23735411764886
C           -5.76873390227758       -3.86307709131906        0.73007182800460
H           -4.37581979459259       -3.73225109206374       -0.89834826881011
C           -6.10019104429005       -3.40872662436994        1.99664889300806
H           -6.39610772867248       -4.59817601674684        0.23914291974527
C           -5.67896640339570       -1.96700618320001        4.04314922861662
O           -4.91475840270327       -1.11875797971590        4.55571407583458
O           -6.71385234182735       -2.44926428976051        4.55576880370976
14
 energy: -25.885240429387 gnorm: 0.010760942917 xtb: 6.7.1 (edcfbbe)
C           -4.17903147560948       -1.98937457603330        1.99401768416560
C           -3.84306999084436       -2.43841305720251        0.73102461706810
H           -6.97590361972799       -3.77368685469448        2.50850393494466
C           -5.30909412277503       -2.46764476344600        2.64130792265209
H           -3.57177347339679       -1.25701423856759        2.50692729346971
C           -4.63768446591014       -3.37732185396939        0.09500837067233
H           -2.95735026710774       -2.05711360314804        0.23535101994982
C           -5.76794944537505       -3.86151798341225        0.73184496838612
H           -4.37634497649413       -3.73137386939597       -0.89605706326816
C           -6.09801188070683       -3.40811598949248        1.99483523525444
H           -6.39247272280334       -4.59674383774829        0.23687193702796
C           -5.68124088549921       -1.96379573021295        4.05199701082542
O           -4.91501379436497       -1.12291137314751        4.54854410204396
O           -6.70958787938494       -2.44987726952924        4.54895096680795
14
 energy: -25.885385614719 gnorm: 0.004369151674 xtb: 6.7.1 (edcfbbe)
C           -4.17799981322436       -1.98911253216217        1.99311432047800
C           -3.84206429005201       -2.43823916235975        0.72999027777258
H           -6.97574511256151       -3.77208258561691        2.51120365174840
C           -5.30850212137003       -2.46857088868097        2.63885024530105
H           -3.57353036232141       -1.25675279956409        2.50976106300285
C           -4.63750520651126       -3.37754917480658        0.09435417844673
H           -2.95659914559689       -2.05855500471038        0.23173070980797
C           -5.76840479541850       -3.86244963259025        0.73076692859523
H           -4.37613818715101       -3.73158548562042       -0.89672632542747
C           -6.09865112774927       -3.40911292795267        1.99389146300777
H           -6.39124453446805       -4.59790704628248        0.23311663015350
C           -5.68345735295256       -1.96071717123027        4.06058602138196
O           -4.91308411721718       -1.12126620405735        4.54891105275846
O           -6.71160283340596       -2.45100438436574        4.54957778297296
14
 energy: -25.885417940255 gnorm: 0.000777566280 xtb: 6.7.1 (edcfbbe)
C           -4.17696526219588       -1.98857642017417        1.99268244452334
C           -3.84094352587069       -2.43809709038540        0.72875648083252
H           -6.97680445381115       -3.77261768118178        2.51161893629888
C           -5.30832818297895       -2.46886042743878        2.63803900686188
H           -3.57280319254053       -1.25591784640448        2.51026071179117
C           -4.63728351911090       -3.37784423315194        0.09354114916619
H           -2.95561985245779       -2.05920152036442        0.22926724871887
C           -5.76886394554940       -3.86348323008034        0.72951838424889
H           -4.37589593250627       -3.73190510587145       -0.89759144430266
C           -6.09949734699147       -3.40997754543583        1.99344061550181
H           -6.39088351195599       -4.59903499069165        0.23060937960436
C           -5.68501215101402       -1.95856541121042        4.06633074864585
O           -4.91184308484314       -1.11930816324277        4.55093955539162
O           -6.71378503817380       -2.45151533436656        4.55171478271727
14
 energy: -25.885418791103 gnorm: 0.000395903639 xtb: 6.7.1 (edcfbbe)
C           -4.17683875311447       -1.98854562447024        1.99267501820845
C           -3.84074727314820       -2.43811288265106        0.72841292939683
H           -6.97719707186064       -3.77349948822435        2.51075412815265
C           -5.30827624920652       -2.46891545562110        2.63818464653302
H           -3.57183958443098       -1.25579469175044        2.50939990797561
C           -4.63725597571731       -3.37788393003386        0.09332511214270
H           -2.95545793063086       -2.05912293384068        0.22908612260089
C           -5.76890453126208       -3.86367049576158        0.72918355506920
H           -4.37588662822185       -3.73193870996697       -0.89788278696751
C           -6.09954965407047       -3.41007646965946        1.99344120976799
H           -6.39101486196819       -4.59915932695665        0.23045239465449
C           -5.68502069795383       -1.95855080871035        4.06768417230520
O           -4.91217802420183       -1.11861416887735        4.55183717044939
O           -6.71436176421278       -2.45102001347591        4.55257441971107
