 Entering Gaussian System
 *********************************************
 Gaussian 98:
 frequency output generated by the xtb code
 *********************************************
                         Standard orientation:
 --------------------------------------------------------------------
  Center     Atomic     Atomic              Coordinates (Angstroms)
  Number     Number      Type              X           Y           Z
 --------------------------------------------------------------------
    1          6             0       -5.778972   -2.765371    2.583072
    2         17             0       -4.348402   -1.784313    2.520603
    3         17             0       -6.207075   -3.762913    1.228624
    4         17             0       -6.781486   -2.748857    3.999974
 --------------------------------------------------------------------
     1 basis functions        1 primitive gaussians
     1 alpha electrons        1 beta electrons
 
 Harmonic frequencies (cm**-1), IR intensities (km*mol⁻¹),
 Raman scattering activities (A**4/amu), Raman depolarization ratios,
 reduced masses (AMU), force constants (mDyne/A) and normal coordinates:
                      1                      2                      3
                        a                      a                      a 
 Frequencies --  -913.1106               211.0741               211.1296
 Red. masses --    14.3894                33.7089                33.7047
 Frc consts  --     0.0000                 0.0000                 0.0000
 IR Inten    --    27.1258                 4.4584                 4.2987
 Raman Activ --     0.0000                 0.0000                 0.0000
 Depolar     --     0.0000                 0.0000                 0.0000
 Atom AN      X      Y      Z        X      Y      Z        X      Y      Z
   1   6    -0.51   0.71  -0.37     0.23   0.11  -0.11    -0.04  -0.14  -0.23
   2  17     0.10  -0.14   0.07     0.34   0.34   0.20    -0.26   0.08   0.52
   3  17     0.10  -0.14   0.07    -0.47  -0.15   0.35    -0.19  -0.31  -0.35
   4  17     0.10  -0.14   0.07     0.00  -0.25  -0.48     0.47   0.31  -0.04
                      4                      5                      6
                        a                      a                      a 
 Frequencies --   448.6773               809.9811               810.1582
 Red. masses --    35.4529                16.1373                16.1337
 Frc consts  --     0.0000                 0.0000                 0.0000
 IR Inten    --     0.0002                33.5432                33.3833
 Raman Activ --     0.0000                 0.0000                 0.0000
 Depolar     --     0.0000                 0.0000                 0.0000
 Atom AN      X      Y      Z        X      Y      Z        X      Y      Z
   1   6    -0.00   0.00   0.00    -0.20   0.29   0.84     0.74   0.52  -0.01
   2  17    -0.48  -0.33   0.02     0.01   0.00  -0.01    -0.28  -0.19   0.01
   3  17     0.14   0.33   0.45    -0.07  -0.17  -0.23    -0.05  -0.11  -0.14
   4  17     0.33  -0.01  -0.47     0.17  -0.01  -0.25    -0.10  -0.00   0.13
