      -----------------------------------------------------------      
     |                   =====================                   |     
     |                           x T B                           |     
     |                   =====================                   |     
     |                         S. Grimme                         |     
     |          Mulliken Center for Theoretical Chemistry        |     
     |                    University of Bonn                     |     
      -----------------------------------------------------------      

   * xtb version 6.7.1 (edcfbbe) compiled by 'albert@albert-system' on 2024-07-22

   xtb is free software: you can redistribute it and/or modify it under
   the terms of the GNU Lesser General Public License as published by
   the Free Software Foundation, either version 3 of the License, or
   (at your option) any later version.
   
   xtb is distributed in the hope that it will be useful,
   but WITHOUT ANY WARRANTY; without even the implied warranty of
   MERCHANTABILITY or FITNESS FOR A PARTICULAR PURPOSE.  See the
   GNU Lesser General Public License for more details.
   
   Cite this work as:
   * C. Bannwarth, E. Caldeweyher, S. Ehlert, A. Hansen, P. Pracht,
     J. Seibert, S. Spicher, S. Grimme, WIREs Comput. Mol. Sci., 2020, 11,
     e01493. DOI: 10.1002/wcms.1493
   
   for GFN2-xTB:
   * C. Bannwarth, S. Ehlert and S. Grimme., J. Chem. Theory Comput., 2019,
     15, 1652-1671. DOI: 10.1021/acs.jctc.8b01176
   for GFN1-xTB:
   * S. Grimme, C. Bannwarth, P. Shushkov, J. Chem. Theory Comput., 2017,
     13, 1989-2009. DOI: 10.1021/acs.jctc.7b00118
   for GFN0-xTB:
   * P. Pracht, E. Caldeweyher, S. Ehlert, S. Grimme, ChemRxiv, 2019, preprint.
     DOI: 10.26434/chemrxiv.8326202.v1
   for GFN-FF:
   * S. Spicher and S. Grimme, Angew. Chem. Int. Ed., 2020, 59, 15665-15673.
     DOI: 10.1002/anie.202004239
   
   for ALPB and GBSA implicit solvation:
   * S. Ehlert, M. Stahn, S. Spicher, S. Grimme, J. Chem. Theory Comput.,
     2021, 17, 4250-4261. DOI: 10.1021/acs.jctc.1c00471
   
   for ddCOSMO and CPCM-X implicit solvation:
   * M. Stahn, S. Ehlert, S. Grimme, J. Phys. Chem. A,
     2023, XX, XXXX-XXXX. DOI: 10.1021/acs.jpca.3c04382
   
   for DFT-D4:
   * E. Caldeweyher, C. Bannwarth and S. Grimme, J. Chem. Phys., 2017,
     147, 034112. DOI: 10.1063/1.4993215
   * E. Caldeweyher, S. Ehlert, A. Hansen, H. Neugebauer, S. Spicher,
     C. Bannwarth and S. Grimme, J. Chem. Phys., 2019, 150, 154122.
     DOI: 10.1063/1.5090222
   * E. Caldeweyher, J.-M. Mewes, S. Ehlert and S. Grimme, Phys. Chem. Chem. Phys.
     2020, 22, 8499-8512. DOI: 10.1039/D0CP00502A
   
   for sTDA-xTB:
   * S. Grimme and C. Bannwarth, J. Chem. Phys., 2016, 145, 054103.
     DOI: 10.1063/1.4959605
   
   in the mass-spec context:
   * V. Asgeirsson, C. Bauer and S. Grimme, Chem. Sci., 2017, 8, 4879.
     DOI: 10.1039/c7sc00601b
   * J. Koopman and S. Grimme, ACS Omega 2019, 4, 12, 15120-15133.
     DOI: 10.1021/acsomega.9b02011
   
   for metadynamics refer to:
   * S. Grimme, J. Chem. Theory Comput., 2019, 155, 2847-2862
     DOI: 10.1021/acs.jctc.9b00143
   
   for SPH calculations refer to:
   * S. Spicher and S. Grimme, J. Chem. Theory Comput., 2021, 17, 1701-1714
     DOI: 10.1021/acs.jctc.0c01306
   
   for ONIOM refer to:
   * C. Plett, A. Katbashev, S. Ehlert, S. Grimme, M. Bursch,
     Phys. Chem. Chem. Phys., 2023, 25, 17860-17868. DOI: 10.1039/D3CP02178E
   
   for DIPRO refer to:
   * J. Kohn, N. Gildemeister, S. Grimme, D. Fazzi, A. Hansen,
     J. Chem. Phys., 2023, just accepted.
   
   for PTB refer to:
   * S. Grimme, M. Mueller, A. Hansen, J. Chem. Phys., 2023, 158, 124111.
     DOI: 10.1063/5.0137838
   
   with help from (in alphabetical order)
   P. Atkinson, C. Bannwarth, F. Bohle, G. Brandenburg, E. Caldeweyher
   M. Checinski, S. Dohm, S. Ehlert, S. Ehrlich, I. Gerasimov, C. Hölzer
   A. Katbashev, J. Kohn, J. Koopman, C. Lavigne, S. Lehtola, F. März, M. Müller,
   F. Musil, H. Neugebauer, J. Pisarek, C. Plett, P. Pracht, F. Pultar,
   J. Seibert, P. Shushkov, S. Spicher, M. Stahn, M. Steiner, T. Strunk,
   J. Stückrath, T. Rose, and J. Unsleber
   
 * started run on 2025/10/18 at 05:41:40.216     
   ID    Z sym.   atoms
    1    6 C      1
    2   17 Cl     2-4

           -------------------------------------------------
          |                Calculation Setup                |
           -------------------------------------------------

          program call               : xtb xyz.xyz --alpb water --charge -1 --ohess
          hostname                   : m003
          coordinate file            : xyz.xyz
          omp threads                :                     2


           -------------------------------------------------
          |                 G F N 2 - x T B                 |
           -------------------------------------------------

        Reference                      10.1021/acs.jctc.8b01176
      * Hamiltonian:
        H0-scaling (s, p, d)           1.850000    2.230000    2.230000
        zeta-weighting                 0.500000
      * Dispersion:
        s8                             2.700000
        a1                             0.520000
        a2                             5.000000
        s9                             5.000000
      * Repulsion:
        kExp                           1.500000    1.000000
        rExp                           1.000000
      * Coulomb:
        alpha                          2.000000
        third order                    shell-resolved
        anisotropic                    true
        a3                             3.000000
        a5                             4.000000
        cn-shift                       1.200000
        cn-exp                         4.000000
        max-rad                        5.000000

      * Solvation model:               ALPB
        Solvent                        water
        Parameter file                 internal GFN2-xTB/ALPB
        Dielectric constant                8.0200E+01
        Reference state                gsolv [1 M gas/solution]
        Free energy shift                  1.0808E-03 Eh       6.7819E-01 kcal/mol
        Temperature                        2.9815E+02 K
        Density                            1.0000E+00 kg/L
        Solvent mass                       1.8000E+01 g/mol
        Interaction kernel             P16
        Born radius scaling (c1)           1.4744E+00
        Born radii integrator          GBOBC
        Born offset                        0.0000E+00 a0       0.0000E+00 AA
        H-bond correction              true
        Ion screening                  false
        Surface tension                    1.0000E-05 Eh       1.5569E+01 dyn/cm
        Grid points                               230 per atom

          ...................................................
          :                      SETUP                      :
          :.................................................:
          :  # basis functions                  34          :
          :  # atomic orbitals                  31          :
          :  # shells                           11          :
          :  # electrons                        26          :
          :  max. iterations                   250          :
          :  Hamiltonian                  GFN2-xTB          :
          :  restarted?                      false          :
          :  GBSA solvation                   true          :
          :  PC potential                    false          :
          :  electronic temp.          300.0000000     K    :
          :  accuracy                    1.0000000          :
          :  -> integral cutoff          0.2500000E+02      :
          :  -> integral neglect         0.1000000E-07      :
          :  -> SCF convergence          0.1000000E-05 Eh   :
          :  -> wf. convergence          0.1000000E-03 e    :
          :  Broyden damping             0.4000000          :
          :  net charge                         -1          :
          :  unpaired electrons                  0          :
          ...................................................

 iter      E             dE          RMSdq      gap      omega  full diag
   1    -16.0215263 -0.160215E+02  0.556E+00    1.57       0.0  T
   2    -16.0331210 -0.115947E-01  0.347E+00    1.96       1.0  T
   3    -16.0336738 -0.552776E-03  0.117E+00    1.81       1.0  T
   4    -16.0339838 -0.309990E-03  0.420E-01    1.81       1.0  T
   5    -16.0340731 -0.893335E-04  0.207E-02    1.78       2.4  T
   6    -16.0340732 -0.119874E-06  0.114E-02    1.78       4.4  T
   7    -16.0340732 -0.117028E-07  0.170E-04    1.78     294.1  T
   8    -16.0340732 -0.157740E-11  0.883E-05    1.78     566.1  T

   *** convergence criteria satisfied after 8 iterations ***

         #    Occupation            Energy/Eh            Energy/eV
      -------------------------------------------------------------
         1        2.0000           -1.0546225             -28.6977
       ...           ...                  ...                  ...
         7        2.0000           -0.4546332             -12.3712
         8        2.0000           -0.4192344             -11.4079
         9        2.0000           -0.4192344             -11.4079
        10        2.0000           -0.4165516             -11.3349
        11        2.0000           -0.4165515             -11.3349
        12        2.0000           -0.4100261             -11.1574
        13        2.0000           -0.2505432              -6.8176 (HOMO)
        14                         -0.1851371              -5.0378 (LUMO)
        15                         -0.0723337              -1.9683
        16                         -0.0723336              -1.9683
        17                          0.0345126               0.9391
        18                          0.0345249               0.9395
       ...                                ...                  ...
        31                          0.2850585               7.7568
      -------------------------------------------------------------
                  HL-Gap            0.0654060 Eh            1.7798 eV
             Fermi-level           -0.2178401 Eh           -5.9277 eV

 SCC (total)                   0 d,  0 h,  0 min,  0.039 sec
 SCC setup                      ...        0 min,  0.000 sec (  0.549%)
 Dispersion                     ...        0 min,  0.000 sec (  0.083%)
 classical contributions        ...        0 min,  0.000 sec (  0.080%)
 integral evaluation            ...        0 min,  0.035 sec ( 89.505%)
 iterations                     ...        0 min,  0.003 sec (  6.655%)
 molecular gradient             ...        0 min,  0.001 sec (  2.823%)
 printout                       ...        0 min,  0.000 sec (  0.199%)

         :::::::::::::::::::::::::::::::::::::::::::::::::::::
         ::                     SUMMARY                     ::
         :::::::::::::::::::::::::::::::::::::::::::::::::::::
         :: total energy             -16.015175651023 Eh    ::
         :: total w/o Gsasa/hb       -16.015735666111 Eh    ::
         :: gradient norm              0.018730910890 Eh/a0 ::
         :: HOMO-LUMO gap              1.779789099192 eV    ::
         ::.................................................::
         :: SCC energy               -16.034072878395 Eh    ::
         :: -> isotropic ES            0.116194708282 Eh    ::
         :: -> anisotropic ES         -0.013213339712 Eh    ::
         :: -> anisotropic XC         -0.004175741943 Eh    ::
         :: -> dispersion             -0.003856805236 Eh    ::
         :: -> Gsolv                  -0.082496369413 Eh    ::
         ::    -> Gelec               -0.083056384501 Eh    ::
         ::    -> Gsasa               -0.000513141014 Eh    ::
         ::    -> Ghb                 -0.000007603596 Eh    ::
         ::    -> Gshift               0.001080759698 Eh    ::
         :: repulsion energy           0.018897227372 Eh    ::
         :: add. restraining           0.000000000000 Eh    ::
         :: total charge              -1.000000000000 e     ::
         :::::::::::::::::::::::::::::::::::::::::::::::::::::

      ----------------------------------------------------------- 
     |                   =====================                   |
     |                        A N C O P T                        |
     |                   =====================                   |
     |               Approximate Normal Coordinate               |
     |                Rational Function Optimizer                |
      ----------------------------------------------------------- 
      ----------------------------------------------------------- 
     |                   =====================                   |
     |                        A N C O P T                        |
     |                   =====================                   |
     |               Approximate Normal Coordinate               |
     |                Rational Function Optimizer                |
      ----------------------------------------------------------- 

          ...................................................
          :                      SETUP                      :
          :.................................................:
          :   optimization level            normal          :
          :   max. optcycles                   200          :
          :   ANC micro-cycles                  20          :
          :   degrees of freedom                 6          :
          :.................................................:
          :   RF solver                   davidson          :
          :   write xtbopt.log                true          :
          :   linear?                        false          :
          :   energy convergence         0.5000000E-05 Eh   :
          :   grad. convergence          0.1000000E-02 Eh/α :
          :   maxmium RF displ.          1.0000000          :
          :   Hlow (freq-cutoff)         0.1000000E-01      :
          :   Hmax (freq-cutoff)         5.0000000          :
          :   S6 in model hess.         20.0000000          :
          ...................................................

generating ANC from exact Hessian ...
Using Lindh-Hessian (1995)
 Shifting diagonal of input Hessian by   9.350350188690586E-003
 Lowest  eigenvalues of input Hessian
    0.000000    0.000000    0.000000    0.000000    0.010000    0.000000
    0.000000    0.108935    0.108935    0.539570    1.416621    1.416623
 Highest eigenvalues
    0.000000    0.108935    0.108935    0.539570    1.416621    1.416623
 

........................................................................
.............................. CYCLE    1 ..............................
........................................................................

 iter      E             dE          RMSdq      gap      omega  full diag
   1    -16.0340732 -0.160341E+02  0.270E-06    1.78       0.0  T
   2    -16.0340732  0.710543E-14  0.209E-06    1.78   23968.4  T
   3    -16.0340732 -0.710543E-14  0.862E-07    1.78   57973.6  T
     SCC iter.                  ...        0 min,  0.001 sec
     gradient                   ...        0 min,  0.001 sec
 * total energy  :   -16.0151757 Eh     change       -0.2877698E-12 Eh
   gradient norm :     0.0187308 Eh/α   predicted     0.0000000E+00 (-100.00%)
   displ. norm   :     0.0346753 α      lambda       -0.6494505E-03
   maximum displ.:     0.0346727 α      in ANC's #4, #1, #2, ...

........................................................................
.............................. CYCLE    2 ..............................
........................................................................

 iter      E             dE          RMSdq      gap      omega  full diag
   1    -16.0330342 -0.160330E+02  0.111E-01    1.71       0.0  T
   2    -16.0330534 -0.192025E-04  0.841E-02    1.69       1.0  T
   3    -16.0330546 -0.111356E-05  0.587E-02    1.69       1.0  T
   4    -16.0330559 -0.129952E-05  0.182E-02    1.70       2.7  T
   5    -16.0330560 -0.110596E-06  0.236E-04    1.70     212.1  T
   6    -16.0330560 -0.162181E-10  0.124E-04    1.70     403.1  T
     SCC iter.                  ...        0 min,  0.001 sec
     gradient                   ...        0 min,  0.001 sec
 * total energy  :   -16.0156481 Eh     change       -0.4724311E-03 Eh
   gradient norm :     0.0086124 Eh/α   predicted    -0.3251154E-03 ( -31.18%)
   displ. norm   :     0.0294985 α      lambda       -0.2539488E-03
   maximum displ.:     0.0294862 α      in ANC's #4, #1, #2, ...

........................................................................
.............................. CYCLE    3 ..............................
........................................................................

 iter      E             dE          RMSdq      gap      omega  full diag
   1    -16.0319971 -0.160320E+02  0.917E-02    1.63       0.0  T
   2    -16.0320100 -0.129582E-04  0.699E-02    1.62       1.0  T
   3    -16.0320108 -0.792337E-06  0.487E-02    1.62       1.0  T
   4    -16.0320117 -0.903677E-06  0.152E-02    1.63       3.3  T
   5    -16.0320118 -0.793546E-07  0.197E-04    1.63     253.6  T
   6    -16.0320118 -0.994049E-11  0.106E-04    1.63     470.7  T
     SCC iter.                  ...        0 min,  0.001 sec
     gradient                   ...        0 min,  0.001 sec
 * total energy  :   -16.0157805 Eh     change       -0.1324207E-03 Eh
   gradient norm :     0.0004328 Eh/α   predicted    -0.1270854E-03 (  -4.03%)
   displ. norm   :     0.0024309 α      lambda       -0.6781186E-06
   maximum displ.:     0.0023408 α      in ANC's #4, #1, #3, ...

........................................................................
.............................. CYCLE    4 ..............................
........................................................................

 iter      E             dE          RMSdq      gap      omega  full diag
   1    -16.0319220 -0.160319E+02  0.728E-03    1.62       0.0  T
   2    -16.0319220 -0.780805E-07  0.552E-03    1.62       9.1  T
   3    -16.0319220 -0.492817E-08  0.381E-03    1.62      13.1  T
   4    -16.0319221 -0.548282E-08  0.120E-03    1.62      41.6  T
   5    -16.0319221 -0.514852E-09  0.301E-05    1.62    1659.8  T
   6    -16.0319221 -0.362377E-12  0.127E-05    1.62    3949.4  T
     SCC iter.                  ...        0 min,  0.001 sec
     gradient                   ...        0 min,  0.001 sec
 * total energy  :   -16.0157808 Eh     change       -0.2740268E-06 Eh
   gradient norm :     0.0002005 Eh/α   predicted    -0.3385766E-06 (  23.56%)
   displ. norm   :     0.0008235 α      lambda       -0.9629555E-07
   maximum displ.:     0.0007372 α      in ANC's #4, #1, #3, ...

   *** GEOMETRY OPTIMIZATION CONVERGED AFTER 4 ITERATIONS ***

------------------------------------------------------------------------
 total energy gain   :        -0.0006051 Eh       -0.3797 kcal/mol
 total RMSD          :         0.0332500 a0        0.0176 Å
 total power (kW/mol):        -0.3971894 (step) -127.7336 (real)
------------------------------------------------------------------------

 ANCopt (total)                0 d,  0 h,  0 min,  0.012 sec
 optimizer setup                ...        0 min,  0.000 sec (  2.819%)
 model hessian                  ...        0 min,  0.000 sec (  0.626%)
 ANC generation                 ...        0 min,  0.000 sec (  0.433%)
 coordinate transformation      ...        0 min,  0.000 sec (  0.191%)
 single point calculation       ...        0 min,  0.011 sec ( 91.849%)
 optimization log               ...        0 min,  0.000 sec (  1.015%)
 hessian update                 ...        0 min,  0.000 sec (  0.178%)
 rational function              ...        0 min,  0.000 sec (  1.335%)

================
 final structure:
================
4
 xtb: 6.7.1 (edcfbbe)
C           -5.77896648687417       -2.76540515271572        2.58304692542227
Cl          -4.34840121414247       -1.78433951072897        2.52058420772134
Cl          -6.20705862675725       -3.76294738296024        1.22859610824445
Cl          -6.78148467222611       -2.74889895359507        3.99994475861194
 
 Bond Distances (Angstroems)
 ---------------------------
C1-Cl2=1.7358        C1-Cl3=1.7358        C1-Cl4=1.7358        Cl2-C1=1.7358        Cl3-C1=1.7358        Cl4-C1=1.7358        
 Cl C  Rav=1.7358 sigma=0.0000  Rmin=1.7358  Rmax=1.7358     3
 
 selected bond angles (degree)
 --------------------
Cl3-C1-Cl2=120.00              Cl4-C1-Cl2=120.00              Cl4-C1-Cl3=120.00              
 
 selected dihedral angles (degree)
 ---------------------------------

           -------------------------------------------------
          |                Final Singlepoint                |
           -------------------------------------------------

          ...................................................
          :                      SETUP                      :
          :.................................................:
          :  # basis functions                  34          :
          :  # atomic orbitals                  31          :
          :  # shells                           11          :
          :  # electrons                        26          :
          :  max. iterations                   250          :
          :  Hamiltonian                  GFN2-xTB          :
          :  restarted?                      false          :
          :  GBSA solvation                   true          :
          :  PC potential                    false          :
          :  electronic temp.          300.0000000     K    :
          :  accuracy                    1.0000000          :
          :  -> integral cutoff          0.2500000E+02      :
          :  -> integral neglect         0.1000000E-07      :
          :  -> SCF convergence          0.1000000E-05 Eh   :
          :  -> wf. convergence          0.1000000E-03 e    :
          :  Broyden damping             0.4000000          :
          :  net charge                         -1          :
          :  unpaired electrons                  0          :
          ...................................................

 iter      E             dE          RMSdq      gap      omega  full diag
   1    -16.0319221 -0.160319E+02  0.908E-06    1.62       0.0  T
   2    -16.0319221 -0.497380E-13  0.767E-06    1.62    6519.5  T
   3    -16.0319221 -0.959233E-13  0.294E-06    1.62   17030.4  T

   *** convergence criteria satisfied after 3 iterations ***

         #    Occupation            Energy/Eh            Energy/eV
      -------------------------------------------------------------
         1        2.0000           -1.0534915             -28.6670
       ...           ...                  ...                  ...
         7        2.0000           -0.4518766             -12.2962
         8        2.0000           -0.4189177             -11.3993
         9        2.0000           -0.4189174             -11.3993
        10        2.0000           -0.4164829             -11.3331
        11        2.0000           -0.4164825             -11.3331
        12        2.0000           -0.4103836             -11.1671
        13        2.0000           -0.2529222              -6.8824 (HOMO)
        14                         -0.1933888              -5.2624 (LUMO)
        15                         -0.0765185              -2.0822
        16                         -0.0765172              -2.0821
        17                          0.0352205               0.9584
        18                          0.0352362               0.9588
       ...                                ...                  ...
        31                          0.2591565               7.0520
      -------------------------------------------------------------
                  HL-Gap            0.0595333 Eh            1.6200 eV
             Fermi-level           -0.2231555 Eh           -6.0724 eV

 SCC (total)                   0 d,  0 h,  0 min,  0.003 sec
 SCC setup                      ...        0 min,  0.000 sec (  5.087%)
 Dispersion                     ...        0 min,  0.000 sec (  0.449%)
 classical contributions        ...        0 min,  0.000 sec (  0.234%)
 integral evaluation            ...        0 min,  0.001 sec ( 25.515%)
 iterations                     ...        0 min,  0.001 sec ( 26.458%)
 molecular gradient             ...        0 min,  0.001 sec ( 38.905%)
 printout                       ...        0 min,  0.000 sec (  2.382%)

         :::::::::::::::::::::::::::::::::::::::::::::::::::::
         ::                     SUMMARY                     ::
         :::::::::::::::::::::::::::::::::::::::::::::::::::::
         :: total energy             -16.015780776799 Eh    ::
         :: total w/o Gsasa/hb       -16.016335145386 Eh    ::
         :: gradient norm              0.000201805284 Eh/a0 ::
         :: HOMO-LUMO gap              1.619984216032 eV    ::
         ::.................................................::
         :: SCC energy               -16.031921677378 Eh    ::
         :: -> isotropic ES            0.115623525753 Eh    ::
         :: -> anisotropic ES         -0.012524193962 Eh    ::
         :: -> anisotropic XC         -0.002854228985 Eh    ::
         :: -> dispersion             -0.003846923583 Eh    ::
         :: -> Gsolv                  -0.082342261452 Eh    ::
         ::    -> Gelec               -0.082896630040 Eh    ::
         ::    -> Gsasa               -0.000518758898 Eh    ::
         ::    -> Ghb                 -0.000007632213 Eh    ::
         ::    -> Gshift               0.001080759698 Eh    ::
         :: repulsion energy           0.016140900579 Eh    ::
         :: add. restraining           0.000000000000 Eh    ::
         :: total charge              -1.000000000000 e     ::
         :::::::::::::::::::::::::::::::::::::::::::::::::::::

           ------------------------------------------------- 
          |                Numerical Hessian                |
           ------------------------------------------------- 
step length          :   0.00500
SCC accuracy         :   0.30000
Hessian scale factor :   1.00000
frozen atoms in %    :   0.00000    0
RMS gradient         :   0.00020
estimated CPU  time      0.00 min
estimated wall time      0.00 min

writing file <hessian>.

 projected vibrational frequencies (cm⁻¹)
eigval :       -0.00    -0.00    -0.00    -0.00     0.00     0.00
eigval :     -913.11   211.07   211.13   448.68   809.98   810.16
           -------------------------------------------------
          |                Property Printout                |
           -------------------------------------------------

    * Orbital Energies and Occupations

         #    Occupation            Energy/Eh            Energy/eV
      -------------------------------------------------------------
         1        2.0000           -1.0534915             -28.6670
         2        2.0000           -1.0519865             -28.6260
         3        2.0000           -1.0519863             -28.6260
         4        2.0000           -0.5426728             -14.7669
         5        2.0000           -0.4836619             -13.1611
         6        2.0000           -0.4836615             -13.1611
         7        2.0000           -0.4518766             -12.2962
         8        2.0000           -0.4189177             -11.3993
         9        2.0000           -0.4189174             -11.3993
        10        2.0000           -0.4164829             -11.3331
        11        2.0000           -0.4164825             -11.3331
        12        2.0000           -0.4103836             -11.1671
        13        2.0000           -0.2529222              -6.8824 (HOMO)
        14                         -0.1933888              -5.2624 (LUMO)
        15                         -0.0765185              -2.0822
        16                         -0.0765172              -2.0821
        17                          0.0352205               0.9584
        18                          0.0352363               0.9588
        19                          0.0352364               0.9588
        20                          0.0353098               0.9608
        21                          0.0353342               0.9615
        22                          0.0353344               0.9615
        23                          0.0363249               0.9885
        24                          0.0363251               0.9885
       ...                                ...                  ...
        31                          0.2591565               7.0520
      -------------------------------------------------------------
                  HL-Gap            0.0595333 Eh            1.6200 eV
             Fermi-level           -0.2231555 Eh           -6.0724 eV

     #   Z          covCN         q      C6AA      α(0)
     1   6 C        2.671    -0.015    28.356     8.713
     2  17 Cl       1.029    -0.328   109.738    16.027
     3  17 Cl       1.029    -0.328   109.738    16.027
     4  17 Cl       1.029    -0.328   109.738    16.027

 Mol. C6AA /au·bohr⁶  :       1350.369652
 Mol. C8AA /au·bohr⁸  :      53643.367246
 Mol. α(0) /au        :         56.793254


Wiberg/Mayer (AO) data.
largest (>0.10) Wiberg bond orders for each atom

 ---------------------------------------------------------------------------
     #   Z sym  total        # sym  WBO       # sym  WBO       # sym  WBO
 ---------------------------------------------------------------------------
     1   6 C    2.794 --     3 Cl   0.931     2 Cl   0.931     4 Cl   0.931
     2  17 Cl   1.005 --     1 C    0.931
     3  17 Cl   1.005 --     1 C    0.931
     4  17 Cl   1.005 --     1 C    0.931
 ---------------------------------------------------------------------------

Topologies differ in total number of bonds
Writing topology from bond orders to xtbtopo.mol

molecular dipole:
                 x           y           z       tot (Debye)
 q only:       10.921       5.226      -4.881
   full:       10.921       5.226      -4.881      33.179
molecular quadrupole (traceless):
                xx          xy          yy          xz          yz          zz
 q only:      -94.084     -88.795      46.092      81.597      35.953      47.993
  q+dip:      -94.284     -90.427      47.040      82.433      34.772      47.243
   full:      -94.171     -89.507      46.505      81.961      35.438      47.666

           -------------------------------------------------
          |                Geometry Summary                 |
           -------------------------------------------------

      molecular mass/u    :      118.3695486
   center of mass at/Å    :       -5.7789860      -2.7653618       2.5830675
  moments of inertia/u·Å² :        0.1602230E+03   0.1602260E+03   0.3204490E+03
rotational constants/cm⁻¹ :        0.1052136E+00   0.1052116E+00   0.5260629E-01

 * 3 selected distances

     #   Z          #   Z                                           value/Å
     1   6 C        2  17 Cl                                      1.7357733
     1   6 C        3  17 Cl                                      1.7357681 (min)
     1   6 C        4  17 Cl                                      1.7357751 (max)

 * 1 distinct bonds (by element types)

   Z      Z             #   av. dist./Å        max./Å        min./Å
   6 C   17 Cl          3     1.7357722     1.7357751     1.7357681

           -------------------------------------------------
          |               Frequency Printout                |
           -------------------------------------------------
 projected vibrational frequencies (cm⁻¹)
eigval :       -0.00    -0.00    -0.00    -0.00     0.00     0.00
eigval :     -913.11   211.07   211.13   448.68   809.98   810.16
 reduced masses (amu)
   1: 34.25   2: 34.02   3: 34.71   4: 33.92   5: 34.65   6: 34.04   7: 14.39   8: 33.71
   9: 33.70  10: 35.45  11: 16.14  12: 16.13
 IR intensities (km·mol⁻¹)
   1:  4.10   2:  4.96   3:  2.64   4:  5.45   5:  2.80   6:  5.11   7: 27.13   8:  4.46
   9:  4.30  10:  0.00  11: 33.54  12: 33.38
 Raman intensities (Ä⁴*amu⁻¹)
   1:  0.00   2:  0.00   3:  0.00   4:  0.00   5:  0.00   6:  0.00   7:  0.00   8:  0.00
   9:  0.00  10:  0.00  11:  0.00  12:  0.00
 output can be read by thermo (or use thermo option).
 writing <g98.out> molden fake output.
 recommended (thermochemical) frequency scaling factor: 1.0
           -------------------------------------------------
          |             Thermodynamic Functions             |
           -------------------------------------------------

Molecule has the following symmetry elements: (C3) 3*(C2) (S3) 4*(sigma) 
It seems to be the D3h point group
d3h symmetry found (for desy threshold:  0.10E+00) used in thermo

          ...................................................
          :                      SETUP                      :
          :.................................................:
          :  # frequencies                           5      :
          :  # imaginary freq.                       1      :
          :  linear?                             false      :
          :  only rotor calc.                    false      :
          :  symmetry                              d3h      :
          :  rotational number                       6      :
          :  scaling factor                  1.0000000      :
          :  rotor cutoff                   50.0000000 cm⁻¹ :
          :  imag. cutoff                  -20.0000000 cm⁻¹ :
          :.................................................:

    mode    ω/cm⁻¹     T·S(HO)/kcal·mol⁻¹    T·S(FR)/kcal·mol⁻¹   T·S(vib)
   ------------------------------------------------------------------------
       1    211.07    -0.60654 ( 99.69%)    -0.62980 (  0.31%)    -0.60662
       2    211.13    -0.60640 ( 99.69%)    -0.62972 (  0.31%)    -0.60647
   ------------------------------------------------------------------------

   temp. (K)  partition function   enthalpy   heat capacity  entropy
                                   cal/mol     cal/K/mol   cal/K/mol   J/K/mol
 298.15  VIB   2.88                  943.240      6.275      5.267
         ROT  0.365E+05              888.752      2.981     23.858
         INT  0.105E+06             1831.992      9.256     29.125
         TR   0.125E+28             1481.254      4.968     40.202
         TOT                        3313.2461    14.2242    69.3279   290.0678

       T/K    H(0)-H(T)+PV         H(T)/Eh          T*S/Eh         G(T)/Eh
   ------------------------------------------------------------------------
    298.15    0.527999E-02    0.109550E-01    0.329399E-01   -0.219850E-01
   ------------------------------------------------------------------------

         :::::::::::::::::::::::::::::::::::::::::::::::::::::
         ::                  THERMODYNAMIC                  ::
         :::::::::::::::::::::::::::::::::::::::::::::::::::::
         :: total free energy         -16.037765731922 Eh   ::
         ::.................................................::
         :: total energy              -16.015780776801 Eh   ::
         :: zero point energy           0.005674961605 Eh   ::
         :: G(RRHO) w/o ZPVE           -0.027659916726 Eh   ::
         :: G(RRHO) contrib.           -0.021984955121 Eh   ::
         :::::::::::::::::::::::::::::::::::::::::::::::::::::
imag cut-off (cm-1) :    5.00
 found            1  significant imaginary frequency
 writing imag mode distorted coords to xtbhess.xyz
 for further optimization.

optimized geometry written to: xtbopt.xyz


           -------------------------------------------------
          | TOTAL ENERGY              -16.015780776801 Eh   |
          | TOTAL ENTHALPY            -16.004825821426 Eh   |
          | TOTAL FREE ENERGY         -16.037765731922 Eh   |
          | GRADIENT NORM               0.000201804202 Eh/α |
          | HOMO-LUMO GAP               1.619984233240 eV   |
           -------------------------------------------------

------------------------------------------------------------------------
 * finished run on 2025/10/18 at 05:41:40.551     
------------------------------------------------------------------------
 total:
 * wall-time:     0 d,  0 h,  0 min,  0.334 sec
 *  cpu-time:     0 d,  0 h,  0 min,  0.420 sec
 * ratio c/w:     1.258 speedup
 SCF:
 * wall-time:     0 d,  0 h,  0 min,  0.039 sec
 *  cpu-time:     0 d,  0 h,  0 min,  0.046 sec
 * ratio c/w:     1.185 speedup
 ANC optimizer:
 * wall-time:     0 d,  0 h,  0 min,  0.078 sec
 *  cpu-time:     0 d,  0 h,  0 min,  0.094 sec
 * ratio c/w:     1.202 speedup
 analytical hessian:
 * wall-time:     0 d,  0 h,  0 min,  0.080 sec
 *  cpu-time:     0 d,  0 h,  0 min,  0.142 sec
 * ratio c/w:     1.788 speedup

