4
 energy: -16.015175651023 gnorm: 0.018730854223 xtb: 6.7.1 (edcfbbe)
C           -5.77897100000000       -2.76540700000000        2.58304800000000
Cl          -4.36502800000000       -1.79600000000000        2.52140700000000
Cl          -6.20174000000000       -3.75170100000000        1.24466200000000
Cl          -6.77017200000000       -2.74848300000000        3.98305500000000
4
 energy: -16.015648082084 gnorm: 0.008612385585 xtb: 6.7.1 (edcfbbe)
C           -5.77896920854008       -2.76540662912587        2.58304706050557
Cl          -4.35632223670386       -1.78997339064689        2.52100683273623
Cl          -6.20442060698368       -3.75769637755347        1.23635101431929
Cl          -6.77619894777237       -2.74851460267376        3.99176709243891
4
 energy: -16.015780502771 gnorm: 0.000433430893 xtb: 6.7.1 (edcfbbe)
C           -5.77896707844597       -2.76540563687625        2.58304674350634
Cl          -4.34894927067040       -1.78480360767948        2.52064185148825
Cl          -6.20677802553004       -3.76268407367710        1.22922827542366
Cl          -6.78121662535359       -2.74869768176718        3.99925512958174
4
 energy: -16.015780776798 gnorm: 0.000201799411 xtb: 6.7.1 (edcfbbe)
C           -5.77896648687417       -2.76540515271572        2.58304692542227
Cl          -4.34840121414247       -1.78433951072897        2.52058420772134
Cl          -6.20705862675725       -3.76294738296024        1.22859610824445
Cl          -6.78148467222611       -2.74889895359507        3.99994475861194
