 Entering Gaussian System
 *********************************************
 Gaussian 98:
 frequency output generated by the xtb code
 *********************************************
                         Standard orientation:
 --------------------------------------------------------------------
  Center     Atomic     Atomic              Coordinates (Angstroms)
  Number     Number      Type              X           Y           Z
 --------------------------------------------------------------------
    1          1             0       -3.597180    3.385857   -1.058701
    2          6             0       -0.264896    3.450745   -0.208002
    3          6             0       -2.644042    3.032247   -0.663611
    4          1             0       -1.258167    0.325739    0.802549
    5          1             0        0.718591    1.777987    0.732168
    6          6             0       -2.566532    1.752740   -0.122350
    7          6             0       -1.547207    3.853014   -0.709047
    8          6             0       -1.335954    1.325443    0.375707
    9          1             0       -3.437992    1.106427   -0.088927
   10          6             0       -0.229047    2.129522    0.339656
   11          1             0       -1.637601    4.850767   -1.138844
   12          7             0        0.828132    4.179734   -0.216651
   13          1             0        0.646186    5.099395   -0.638395
 --------------------------------------------------------------------
     1 basis functions        1 primitive gaussians
     1 alpha electrons        1 beta electrons
 
 Harmonic frequencies (cm**-1), IR intensities (km*mol⁻¹),
 Raman scattering activities (A**4/amu), Raman depolarization ratios,
 reduced masses (AMU), force constants (mDyne/A) and normal coordinates:
                      1                      2                      3
                        a                      a                      a 
 Frequencies --   182.0323               371.6228               402.5416
 Red. masses --    10.5527                 9.4242                10.4794
 Frc consts  --     0.0000                 0.0000                 0.0000
 IR Inten    --     4.9808                 0.4971                 5.7952
 Raman Activ --     0.0000                 0.0000                 0.0000
 Depolar     --     0.0000                 0.0000                 0.0000
 Atom AN      X      Y      Z        X      Y      Z        X      Y      Z
   1   1     0.00  -0.00  -0.01     0.06  -0.10  -0.25    -0.05  -0.10   0.02
   2   6    -0.03   0.05   0.12    -0.00   0.00   0.01    -0.21   0.22  -0.15
   3   6    -0.00   0.00   0.00     0.10  -0.16  -0.40    -0.07  -0.11   0.02
   4   1    -0.00   0.00   0.00    -0.06   0.09   0.22     0.10   0.02   0.02
   5   1    -0.05   0.07   0.18     0.05  -0.08  -0.20     0.02   0.17  -0.06
   6   6     0.10  -0.16  -0.38    -0.01   0.01   0.02     0.10  -0.08   0.06
   7   6    -0.10   0.16   0.39    -0.10   0.16   0.40    -0.25   0.20  -0.15
   8   6    -0.00   0.00   0.01    -0.10   0.16   0.38     0.16   0.03   0.03
   9   1     0.06  -0.09  -0.23     0.00  -0.00  -0.00     0.05  -0.05   0.03
  10   6    -0.10   0.15   0.38     0.10  -0.16  -0.39    -0.09   0.27  -0.13
  11   1    -0.05   0.08   0.18    -0.05   0.07   0.18    -0.14   0.04  -0.06
  12   7     0.12  -0.19  -0.46     0.01  -0.01  -0.03     0.26  -0.50   0.27
  13   1     0.04  -0.07  -0.16    -0.03   0.04   0.11     0.33  -0.06   0.11
                      4                      5                      6
                        a                      a                      a 
 Frequencies --   452.2516               495.9790               585.9479
 Red. masses --     8.7789                11.7211                11.2222
 Frc consts  --     0.0000                 0.0000                 0.0000
 IR Inten    --     0.2082                 3.1220                 0.2153
 Raman Activ --     0.0000                 0.0000                 0.0000
 Depolar     --     0.0000                 0.0000                 0.0000
 Atom AN      X      Y      Z        X      Y      Z        X      Y      Z
   1   1    -0.07   0.11   0.26    -0.04  -0.01  -0.01    -0.12   0.05  -0.05
   2   6     0.12  -0.19  -0.46    -0.30  -0.25   0.02     0.08  -0.10   0.06
   3   6    -0.07   0.11   0.26    -0.01   0.25  -0.11    -0.49   0.02  -0.14
   4   1    -0.07   0.11   0.28    -0.03  -0.04   0.01    -0.02   0.12  -0.05
   5   1    -0.05   0.08   0.19     0.10   0.04   0.01     0.09  -0.04   0.04
   6   6     0.10  -0.16  -0.38     0.38   0.29  -0.02    -0.09   0.12  -0.07
   7   6     0.02  -0.04  -0.09    -0.08   0.23  -0.11    -0.14  -0.37   0.11
   8   6    -0.08   0.12   0.29     0.22  -0.09   0.10     0.12   0.46  -0.16
   9   1     0.02  -0.02  -0.06     0.10   0.08  -0.01     0.07  -0.09   0.05
  10   6     0.03  -0.04  -0.11     0.22  -0.19   0.13     0.40   0.03   0.09
  11   1    -0.05   0.08   0.20     0.08   0.08  -0.01     0.01  -0.09   0.04
  12   7    -0.05   0.08   0.19    -0.41  -0.25  -0.01     0.08  -0.12   0.07
  13   1    -0.03   0.05   0.11    -0.12  -0.07  -0.00     0.06  -0.02   0.02
                      7                      8                      9
                        a                      a                      a 
 Frequencies --   636.5698               711.4557               721.1177
 Red. masses --     9.9510                 3.8626                 2.4204
 Frc consts  --     0.0000                 0.0000                 0.0000
 IR Inten    --     2.1215                67.5869                 0.7674
 Raman Activ --     0.0000                 0.0000                 0.0000
 Depolar     --     0.0000                 0.0000                 0.0000
 Atom AN      X      Y      Z        X      Y      Z        X      Y      Z
   1   1    -0.01   0.01   0.03     0.02  -0.02  -0.06     0.05  -0.08  -0.20
   2   6     0.12  -0.19  -0.47     0.07  -0.11  -0.27     0.04  -0.06  -0.16
   3   6     0.08  -0.13  -0.31    -0.00   0.00   0.01    -0.04   0.07   0.17
   4   1    -0.01   0.02   0.04     0.04  -0.05  -0.13     0.03  -0.05  -0.13
   5   1    -0.07   0.10   0.25     0.04  -0.06  -0.14     0.02  -0.04  -0.09
   6   6    -0.09   0.14   0.34    -0.04   0.06   0.14    -0.04   0.06   0.16
   7   6    -0.06   0.09   0.22    -0.03   0.05   0.12     0.00  -0.00  -0.01
   8   6     0.09  -0.13  -0.33    -0.02   0.03   0.07    -0.03   0.04   0.10
   9   1    -0.02   0.04   0.09     0.10  -0.16  -0.38     0.16  -0.24  -0.60
  10   6    -0.07   0.10   0.25    -0.00   0.00   0.01    -0.02   0.03   0.07
  11   1    -0.06   0.09   0.23     0.00  -0.01  -0.02     0.06  -0.09  -0.21
  12   7    -0.02   0.02   0.06    -0.08   0.12   0.29     0.03  -0.04  -0.10
  13   1    -0.04   0.07   0.17     0.17  -0.27  -0.65    -0.13   0.20   0.49
                     10                     11                     12
                        a                      a                      a 
 Frequencies --   770.5035               827.4246               838.6724
 Red. masses --     5.3595                 3.3719                11.2790
 Frc consts  --     0.0000                 0.0000                 0.0000
 IR Inten    --     7.9622                 0.0014                 1.1090
 Raman Activ --     0.0000                 0.0000                 0.0000
 Depolar     --     0.0000                 0.0000                 0.0000
 Atom AN      X      Y      Z        X      Y      Z        X      Y      Z
   1   1     0.03  -0.05  -0.11     0.05  -0.08  -0.20    -0.17  -0.08  -0.01
   2   6     0.08  -0.12  -0.30    -0.01   0.02   0.04     0.18   0.12  -0.00
   3   6    -0.02   0.03   0.07    -0.03   0.05   0.13    -0.43   0.11  -0.16
   4   1     0.02  -0.03  -0.07    -0.07   0.11   0.28    -0.12  -0.14   0.03
   5   1     0.09  -0.14  -0.34    -0.14   0.22   0.55    -0.01  -0.08   0.03
   6   6     0.07  -0.11  -0.26    -0.01   0.01   0.03     0.21   0.15  -0.00
   7   6    -0.08   0.12   0.30    -0.06   0.09   0.22    -0.24   0.05  -0.08
   8   6    -0.01   0.01   0.04     0.04  -0.06  -0.16    -0.02  -0.44   0.18
   9   1    -0.10   0.15   0.36     0.01  -0.01  -0.03     0.05   0.04  -0.00
  10   6    -0.06   0.10   0.24     0.08  -0.12  -0.29    -0.04  -0.22   0.08
  11   1     0.13  -0.19  -0.48     0.12  -0.18  -0.45    -0.07   0.02  -0.03
  12   7    -0.02   0.03   0.07    -0.01   0.01   0.02     0.37   0.28  -0.01
  13   1    -0.01   0.02   0.06     0.03  -0.04  -0.10     0.11   0.07  -0.00
                     13                     14                     15
                        a                      a                      a 
 Frequencies --   899.0486               902.6864               951.5068
 Red. masses --     2.7263                 3.0070                10.5759
 Frc consts  --     0.0000                 0.0000                 0.0000
 IR Inten    --     0.0213                 0.4684                13.2946
 Raman Activ --     0.0000                 0.0000                 0.0000
 Depolar     --     0.0000                 0.0000                 0.0000
 Atom AN      X      Y      Z        X      Y      Z        X      Y      Z
   1   1    -0.19   0.29   0.72     0.02  -0.03  -0.08    -0.01  -0.10   0.04
   2   6    -0.02   0.04   0.09    -0.02   0.03   0.06     0.02   0.01   0.00
   3   6     0.08  -0.13  -0.31    -0.03   0.04   0.10     0.13  -0.11   0.08
   4   1    -0.03   0.04   0.10    -0.18   0.29   0.70    -0.10   0.02  -0.03
   5   1     0.02  -0.03  -0.07     0.10  -0.15  -0.38     0.06  -0.20   0.10
   6   6    -0.01   0.02   0.05    -0.01   0.01   0.03    -0.31  -0.23   0.01
   7   6    -0.03   0.05   0.13     0.02  -0.03  -0.07    -0.19   0.48  -0.24
   8   6    -0.01   0.01   0.03     0.08  -0.13  -0.32    -0.07   0.15  -0.08
   9   1     0.05  -0.08  -0.19     0.04  -0.06  -0.14    -0.08  -0.06   0.00
  10   6     0.01  -0.01  -0.03    -0.04   0.06   0.15     0.41  -0.31   0.23
  11   1     0.09  -0.14  -0.35    -0.01   0.02   0.05    -0.16   0.11  -0.09
  12   7     0.01  -0.01  -0.02    -0.00   0.00   0.01     0.06   0.06  -0.01
  13   1    -0.01   0.02   0.04     0.01  -0.02  -0.04     0.05   0.02   0.00
                     16                     17                     18
                        a                      a                      a 
 Frequencies --  1068.7669              1098.1633              1174.2551
 Red. masses --     7.1305                 5.8211                 2.5542
 Frc consts  --     0.0000                 0.0000                 0.0000
 IR Inten    --     3.3121                 3.6692                 4.8964
 Raman Activ --     0.0000                 0.0000                 0.0000
 Depolar     --     0.0000                 0.0000                 0.0000
 Atom AN      X      Y      Z        X      Y      Z        X      Y      Z
   1   1    -0.08  -0.33   0.11     0.14   0.12  -0.01    -0.15  -0.33   0.09
   2   6     0.05  -0.04   0.03    -0.18   0.24  -0.15     0.14  -0.18   0.11
   3   6     0.18  -0.21   0.13     0.20  -0.12   0.10     0.00  -0.04   0.02
   4   1    -0.24   0.06  -0.09    -0.33  -0.09  -0.05     0.33   0.05   0.07
   5   1    -0.22  -0.33   0.08     0.17   0.19  -0.03     0.05   0.10  -0.03
   6   6     0.43   0.24   0.01    -0.04   0.24  -0.11    -0.07   0.08  -0.05
   7   6    -0.12  -0.06  -0.01    -0.03  -0.30   0.11    -0.14  -0.01  -0.03
   8   6    -0.17   0.30  -0.17    -0.03  -0.10   0.03     0.04  -0.01   0.01
   9   1     0.16   0.03   0.03    -0.18   0.29  -0.16    -0.39   0.50  -0.31
  10   6    -0.20  -0.05  -0.03     0.22  -0.10   0.10     0.06   0.12  -0.03
  11   1    -0.23  -0.05  -0.04    -0.31  -0.14  -0.03    -0.09  -0.01  -0.02
  12   7     0.02  -0.00   0.01    -0.07   0.01  -0.02     0.11  -0.03   0.04
  13   1    -0.05  -0.02  -0.01     0.28   0.08   0.04    -0.28  -0.09  -0.04
                     19                     20                     21
                        a                      a                      a 
 Frequencies --  1186.8356              1204.5788              1323.8553
 Red. masses --     2.4958                 1.7270                 3.7914
 Frc consts  --     0.0000                 0.0000                 0.0000
 IR Inten    --    27.9364                 2.0298                12.8000
 Raman Activ --     0.0000                 0.0000                 0.0000
 Depolar     --     0.0000                 0.0000                 0.0000
 Atom AN      X      Y      Z        X      Y      Z        X      Y      Z
   1   1    -0.01  -0.00  -0.00     0.23   0.48  -0.14    -0.15  -0.32   0.09
   2   6    -0.12   0.18  -0.11     0.07  -0.04   0.04     0.04  -0.07   0.04
   3   6    -0.02   0.02  -0.01     0.04   0.12  -0.04     0.06   0.10  -0.03
   4   1     0.37   0.05   0.08     0.32   0.04   0.07     0.45   0.08   0.09
   5   1    -0.25  -0.55   0.16    -0.12  -0.23   0.06     0.13   0.26  -0.07
   6   6     0.01   0.00   0.00     0.03   0.04  -0.01    -0.12   0.20  -0.11
   7   6     0.01  -0.09   0.04    -0.12  -0.02  -0.02     0.20  -0.01   0.06
   8   6     0.11  -0.02   0.03     0.11  -0.03   0.04    -0.13   0.01  -0.04
   9   1    -0.15   0.19  -0.12     0.04  -0.04   0.03     0.18  -0.22   0.13
  10   6     0.03  -0.06   0.03    -0.05  -0.03  -0.00    -0.09  -0.25   0.08
  11   1     0.24   0.02   0.06    -0.61  -0.11  -0.12    -0.31  -0.07  -0.05
  12   7    -0.19   0.01  -0.05     0.04  -0.05   0.03    -0.13   0.07  -0.06
  13   1     0.43   0.12   0.06    -0.21  -0.07  -0.03     0.32   0.10   0.04
                     22                     23                     24
                        a                      a                      a 
 Frequencies --  1375.5339              1395.4652              1491.1757
 Red. masses --     8.5192                 8.4176                10.0343
 Frc consts  --     0.0000                 0.0000                 0.0000
 IR Inten    --    13.3289               128.1355                84.6151
 Raman Activ --     0.0000                 0.0000                 0.0000
 Depolar     --     0.0000                 0.0000                 0.0000
 Atom AN      X      Y      Z        X      Y      Z        X      Y      Z
   1   1    -0.11  -0.20   0.05    -0.17  -0.22   0.05    -0.02  -0.15   0.06
   2   6    -0.21   0.38  -0.21     0.31   0.02   0.07    -0.10   0.15  -0.09
   3   6    -0.10  -0.14   0.03    -0.07   0.27  -0.13     0.34   0.31  -0.04
   4   1    -0.01  -0.03   0.01    -0.30  -0.10  -0.04     0.15  -0.02   0.05
   5   1    -0.06  -0.18   0.06    -0.08  -0.17   0.05     0.02  -0.10   0.05
   6   6    -0.27   0.24  -0.17    -0.08  -0.19   0.06    -0.03   0.03  -0.02
   7   6     0.36   0.01   0.09     0.24   0.04   0.05    -0.33  -0.26   0.02
   8   6     0.26  -0.07   0.10     0.06  -0.16   0.08    -0.40  -0.23  -0.01
   9   1     0.05  -0.11   0.06    -0.05  -0.02  -0.00     0.14  -0.18   0.11
  10   6     0.02  -0.11   0.05     0.15   0.36  -0.11     0.34   0.21   0.00
  11   1    -0.04  -0.02  -0.00    -0.33  -0.05  -0.07     0.13  -0.04   0.05
  12   7     0.10  -0.11   0.07    -0.34  -0.17  -0.02     0.10  -0.06   0.05
  13   1    -0.43  -0.13  -0.06     0.11  -0.00   0.03    -0.18  -0.06  -0.02
                     25                     26                     27
                        a                      a                      a 
 Frequencies --  1521.0246              1543.5753              1637.4098
 Red. masses --    10.8346                11.1815                11.5585
 Frc consts  --     0.0000                 0.0000                 0.0000
 IR Inten    --    21.0753               115.9846               423.2180
 Raman Activ --     0.0000                 0.0000                 0.0000
 Depolar     --     0.0000                 0.0000                 0.0000
 Atom AN      X      Y      Z        X      Y      Z        X      Y      Z
   1   1     0.07   0.02   0.01     0.07   0.15  -0.04    -0.02  -0.08   0.03
   2   6     0.18  -0.27   0.16     0.50   0.37  -0.02     0.35   0.29  -0.03
   3   6     0.13  -0.26   0.14    -0.17  -0.33   0.09     0.23   0.29  -0.06
   4   1    -0.06  -0.06   0.01     0.16   0.02   0.04    -0.09   0.01  -0.03
   5   1    -0.06  -0.08   0.02     0.09   0.08  -0.01     0.02   0.10  -0.04
   6   6    -0.34   0.43  -0.26     0.15   0.15  -0.02    -0.12  -0.10   0.01
   7   6    -0.27   0.04  -0.09    -0.00   0.12  -0.05    -0.36  -0.18  -0.02
   8   6     0.27  -0.18   0.14    -0.33  -0.09  -0.05     0.37   0.16   0.03
   9   1     0.11  -0.15   0.09     0.05   0.03   0.00    -0.03  -0.02  -0.00
  10   6    -0.01   0.25  -0.10     0.11  -0.03   0.04    -0.30  -0.34   0.06
  11   1     0.12   0.03   0.02     0.12   0.06   0.00     0.10  -0.01   0.03
  12   7    -0.06   0.04  -0.03    -0.33  -0.24   0.01    -0.14  -0.11   0.01
  13   1     0.15   0.04   0.02    -0.09  -0.07   0.00    -0.06  -0.04   0.00
                     28                     29                     30
                        a                      a                      a 
 Frequencies --  2925.2773              2943.5074              2953.5491
 Red. masses --     1.7343                 1.7558                 1.8317
 Frc consts  --     0.0000                 0.0000                 0.0000
 IR Inten    --   113.4874               202.0670               264.5193
 Raman Activ --     0.0000                 0.0000                 0.0000
 Depolar     --     0.0000                 0.0000                 0.0000
 Atom AN      X      Y      Z        X      Y      Z        X      Y      Z
   1   1    -0.74   0.28  -0.31    -0.01   0.01  -0.00     0.35  -0.13   0.15
   2   6     0.00   0.01  -0.00     0.00  -0.00   0.00     0.01   0.01  -0.00
   3   6     0.20  -0.07   0.08    -0.00  -0.00   0.00    -0.10   0.04  -0.04
   4   1    -0.00   0.08  -0.03     0.07  -0.85   0.36    -0.00   0.05  -0.02
   5   1     0.01  -0.00   0.01    -0.11   0.04  -0.04     0.05  -0.01   0.02
   6   6    -0.01  -0.02   0.00    -0.04  -0.03  -0.00     0.05   0.03  -0.00
   7   6    -0.00   0.10  -0.04    -0.00   0.03  -0.01    -0.02   0.22  -0.09
   8   6    -0.00  -0.03   0.01    -0.02   0.23  -0.10     0.00  -0.01   0.00
   9   1     0.09   0.07  -0.00     0.17   0.12  -0.01    -0.19  -0.14   0.01
  10   6    -0.00   0.00  -0.00     0.02  -0.00   0.01    -0.02   0.00  -0.00
  11   1     0.03  -0.40   0.17     0.01  -0.11   0.05     0.07  -0.77   0.33
  12   7     0.00  -0.00   0.00    -0.00   0.00  -0.00    -0.00  -0.01   0.00
  13   1    -0.00   0.00  -0.00     0.00  -0.01   0.00    -0.01   0.03  -0.01
                     31                     32                     33
                        a                      a                      a 
 Frequencies --  2994.6774              3022.8749              3187.0730
 Red. masses --     1.8502                 1.8326                 1.8445
 Frc consts  --     0.0000                 0.0000                 0.0000
 IR Inten    --   306.0057               109.5829               237.7607
 Raman Activ --     0.0000                 0.0000                 0.0000
 Depolar     --     0.0000                 0.0000                 0.0000
 Atom AN      X      Y      Z        X      Y      Z        X      Y      Z
   1   1    -0.17   0.06  -0.07    -0.05   0.02  -0.02     0.01  -0.00   0.01
   2   6    -0.00  -0.00   0.00    -0.01  -0.01  -0.00    -0.01   0.01  -0.01
   3   6     0.06  -0.02   0.02     0.02  -0.01   0.01    -0.00   0.00  -0.00
   4   1     0.01  -0.16   0.07     0.01  -0.15   0.07     0.00   0.01  -0.00
   5   1    -0.22   0.08  -0.09     0.81  -0.29   0.33     0.01  -0.00   0.00
   6   6     0.20   0.15  -0.01     0.05   0.03   0.00    -0.00  -0.00   0.00
   7   6    -0.00  -0.03   0.01     0.00  -0.02   0.01     0.00   0.00  -0.00
   8   6    -0.00   0.05  -0.02    -0.01   0.06  -0.02    -0.00  -0.00   0.00
   9   1    -0.71  -0.53   0.03    -0.16  -0.12   0.01     0.01   0.01  -0.00
  10   6     0.06  -0.02   0.02    -0.23   0.08  -0.09     0.00   0.00   0.00
  11   1    -0.01   0.11  -0.05    -0.01   0.07  -0.03     0.01  -0.03   0.01
  12   7     0.00   0.01  -0.00     0.00   0.00   0.00    -0.03   0.23  -0.10
  13   1     0.00  -0.02   0.01     0.00  -0.00   0.00     0.15  -0.87   0.39
