      -----------------------------------------------------------      
     |                   =====================                   |     
     |                           x T B                           |     
     |                   =====================                   |     
     |                         S. Grimme                         |     
     |          Mulliken Center for Theoretical Chemistry        |     
     |                    University of Bonn                     |     
      -----------------------------------------------------------      

   * xtb version 6.7.1 (edcfbbe) compiled by 'albert@albert-system' on 2024-07-22

   xtb is free software: you can redistribute it and/or modify it under
   the terms of the GNU Lesser General Public License as published by
   the Free Software Foundation, either version 3 of the License, or
   (at your option) any later version.
   
   xtb is distributed in the hope that it will be useful,
   but WITHOUT ANY WARRANTY; without even the implied warranty of
   MERCHANTABILITY or FITNESS FOR A PARTICULAR PURPOSE.  See the
   GNU Lesser General Public License for more details.
   
   Cite this work as:
   * C. Bannwarth, E. Caldeweyher, S. Ehlert, A. Hansen, P. Pracht,
     J. Seibert, S. Spicher, S. Grimme, WIREs Comput. Mol. Sci., 2020, 11,
     e01493. DOI: 10.1002/wcms.1493
   
   for GFN2-xTB:
   * C. Bannwarth, S. Ehlert and S. Grimme., J. Chem. Theory Comput., 2019,
     15, 1652-1671. DOI: 10.1021/acs.jctc.8b01176
   for GFN1-xTB:
   * S. Grimme, C. Bannwarth, P. Shushkov, J. Chem. Theory Comput., 2017,
     13, 1989-2009. DOI: 10.1021/acs.jctc.7b00118
   for GFN0-xTB:
   * P. Pracht, E. Caldeweyher, S. Ehlert, S. Grimme, ChemRxiv, 2019, preprint.
     DOI: 10.26434/chemrxiv.8326202.v1
   for GFN-FF:
   * S. Spicher and S. Grimme, Angew. Chem. Int. Ed., 2020, 59, 15665-15673.
     DOI: 10.1002/anie.202004239
   
   for ALPB and GBSA implicit solvation:
   * S. Ehlert, M. Stahn, S. Spicher, S. Grimme, J. Chem. Theory Comput.,
     2021, 17, 4250-4261. DOI: 10.1021/acs.jctc.1c00471
   
   for ddCOSMO and CPCM-X implicit solvation:
   * M. Stahn, S. Ehlert, S. Grimme, J. Phys. Chem. A,
     2023, XX, XXXX-XXXX. DOI: 10.1021/acs.jpca.3c04382
   
   for DFT-D4:
   * E. Caldeweyher, C. Bannwarth and S. Grimme, J. Chem. Phys., 2017,
     147, 034112. DOI: 10.1063/1.4993215
   * E. Caldeweyher, S. Ehlert, A. Hansen, H. Neugebauer, S. Spicher,
     C. Bannwarth and S. Grimme, J. Chem. Phys., 2019, 150, 154122.
     DOI: 10.1063/1.5090222
   * E. Caldeweyher, J.-M. Mewes, S. Ehlert and S. Grimme, Phys. Chem. Chem. Phys.
     2020, 22, 8499-8512. DOI: 10.1039/D0CP00502A
   
   for sTDA-xTB:
   * S. Grimme and C. Bannwarth, J. Chem. Phys., 2016, 145, 054103.
     DOI: 10.1063/1.4959605
   
   in the mass-spec context:
   * V. Asgeirsson, C. Bauer and S. Grimme, Chem. Sci., 2017, 8, 4879.
     DOI: 10.1039/c7sc00601b
   * J. Koopman and S. Grimme, ACS Omega 2019, 4, 12, 15120-15133.
     DOI: 10.1021/acsomega.9b02011
   
   for metadynamics refer to:
   * S. Grimme, J. Chem. Theory Comput., 2019, 155, 2847-2862
     DOI: 10.1021/acs.jctc.9b00143
   
   for SPH calculations refer to:
   * S. Spicher and S. Grimme, J. Chem. Theory Comput., 2021, 17, 1701-1714
     DOI: 10.1021/acs.jctc.0c01306
   
   for ONIOM refer to:
   * C. Plett, A. Katbashev, S. Ehlert, S. Grimme, M. Bursch,
     Phys. Chem. Chem. Phys., 2023, 25, 17860-17868. DOI: 10.1039/D3CP02178E
   
   for DIPRO refer to:
   * J. Kohn, N. Gildemeister, S. Grimme, D. Fazzi, A. Hansen,
     J. Chem. Phys., 2023, just accepted.
   
   for PTB refer to:
   * S. Grimme, M. Mueller, A. Hansen, J. Chem. Phys., 2023, 158, 124111.
     DOI: 10.1063/5.0137838
   
   with help from (in alphabetical order)
   P. Atkinson, C. Bannwarth, F. Bohle, G. Brandenburg, E. Caldeweyher
   M. Checinski, S. Dohm, S. Ehlert, S. Ehrlich, I. Gerasimov, C. Hölzer
   A. Katbashev, J. Kohn, J. Koopman, C. Lavigne, S. Lehtola, F. März, M. Müller,
   F. Musil, H. Neugebauer, J. Pisarek, C. Plett, P. Pracht, F. Pultar,
   J. Seibert, P. Shushkov, S. Spicher, M. Stahn, M. Steiner, T. Strunk,
   J. Stückrath, T. Rose, and J. Unsleber
   
 * started run on 2025/10/17 at 21:56:41.439     
   ID    Z sym.   atoms
    1    1 H      1, 4, 5, 9, 11, 13
    2    6 C      2, 3, 6-8, 10
    3    7 N      12

           -------------------------------------------------
          |                Calculation Setup                |
           -------------------------------------------------

          program call               : xtb xyz.xyz --charge -1 --ohess
          hostname                   : m003
          coordinate file            : xyz.xyz
          omp threads                :                     2


           -------------------------------------------------
          |                 G F N 2 - x T B                 |
           -------------------------------------------------

        Reference                      10.1021/acs.jctc.8b01176
      * Hamiltonian:
        H0-scaling (s, p, d)           1.850000    2.230000    2.230000
        zeta-weighting                 0.500000
      * Dispersion:
        s8                             2.700000
        a1                             0.520000
        a2                             5.000000
        s9                             5.000000
      * Repulsion:
        kExp                           1.500000    1.000000
        rExp                           1.000000
      * Coulomb:
        alpha                          2.000000
        third order                    shell-resolved
        anisotropic                    true
        a3                             3.000000
        a5                             4.000000
        cn-shift                       1.200000
        cn-exp                         4.000000
        max-rad                        5.000000


          ...................................................
          :                      SETUP                      :
          :.................................................:
          :  # basis functions                  34          :
          :  # atomic orbitals                  34          :
          :  # shells                           20          :
          :  # electrons                        36          :
          :  max. iterations                   250          :
          :  Hamiltonian                  GFN2-xTB          :
          :  restarted?                      false          :
          :  GBSA solvation                  false          :
          :  PC potential                    false          :
          :  electronic temp.          300.0000000     K    :
          :  accuracy                    1.0000000          :
          :  -> integral cutoff          0.2500000E+02      :
          :  -> integral neglect         0.1000000E-07      :
          :  -> SCF convergence          0.1000000E-05 Eh   :
          :  -> wf. convergence          0.1000000E-03 e    :
          :  Broyden damping             0.4000000          :
          :  net charge                         -1          :
          :  unpaired electrons                  0          :
          ...................................................

 iter      E             dE          RMSdq      gap      omega  full diag
   1    -19.2320417 -0.192320E+02  0.406E+00    3.09       0.0  T
   2    -19.2568666 -0.248249E-01  0.228E+00    2.23       1.0  T
   3    -19.2558888  0.977818E-03  0.159E+00    2.87       1.0  T
   4    -19.2723278 -0.164390E-01  0.361E-01    2.68       1.0  T
   5    -19.2727938 -0.465962E-03  0.118E-01    2.57       1.0  T
   6    -19.2729223 -0.128502E-03  0.302E-02    2.60       1.0  T
   7    -19.2729234 -0.115786E-05  0.187E-02    2.60       1.5  T
   8    -19.2729244 -0.102137E-05  0.489E-03    2.60       5.7  T
   9    -19.2729247 -0.248388E-06  0.149E-03    2.60      18.6  T
  10    -19.2729247 -0.948661E-08  0.688E-04    2.60      40.3  T
  11    -19.2729247 -0.981142E-09  0.348E-04    2.60      79.7  T

   *** convergence criteria satisfied after 11 iterations ***

         #    Occupation            Energy/Eh            Energy/eV
      -------------------------------------------------------------
         1        2.0000           -0.4364580             -11.8766
       ...           ...                  ...                  ...
        12        2.0000           -0.2677497              -7.2858
        13        2.0000           -0.2426492              -6.6028
        14        2.0000           -0.2261423              -6.1536
        15        2.0000           -0.2164972              -5.8912
        16        2.0000           -0.2032004              -5.5294
        17        2.0000           -0.1492546              -4.0614
        18        2.0000           -0.1209929              -3.2924 (HOMO)
        19                         -0.0255723              -0.6959 (LUMO)
        20                          0.0015773               0.0429
        21                          0.1078405               2.9345
        22                          0.2783164               7.5734
        23                          0.2842982               7.7361
       ...                                ...                  ...
        34                          0.8118654              22.0920
      -------------------------------------------------------------
                  HL-Gap            0.0954206 Eh            2.5965 eV
             Fermi-level           -0.0732826 Eh           -1.9941 eV

 SCC (total)                   0 d,  0 h,  0 min,  0.031 sec
 SCC setup                      ...        0 min,  0.000 sec (  0.605%)
 Dispersion                     ...        0 min,  0.000 sec (  0.454%)
 classical contributions        ...        0 min,  0.000 sec (  0.109%)
 integral evaluation            ...        0 min,  0.001 sec (  2.964%)
 iterations                     ...        0 min,  0.028 sec ( 90.095%)
 molecular gradient             ...        0 min,  0.002 sec (  5.358%)
 printout                       ...        0 min,  0.000 sec (  0.316%)

         :::::::::::::::::::::::::::::::::::::::::::::::::::::
         ::                     SUMMARY                     ::
         :::::::::::::::::::::::::::::::::::::::::::::::::::::
         :: total energy             -18.976851542273 Eh    ::
         :: gradient norm              0.048312165793 Eh/a0 ::
         :: HOMO-LUMO gap              2.596525424667 eV    ::
         ::.................................................::
         :: SCC energy               -19.272912721069 Eh    ::
         :: -> isotropic ES            0.129843397308 Eh    ::
         :: -> anisotropic ES          0.017902208614 Eh    ::
         :: -> anisotropic XC          0.013230102355 Eh    ::
         :: -> dispersion             -0.010830593553 Eh    ::
         :: repulsion energy           0.296061178796 Eh    ::
         :: add. restraining           0.000000000000 Eh    ::
         :: total charge              -1.000000000000 e     ::
         :::::::::::::::::::::::::::::::::::::::::::::::::::::

      ----------------------------------------------------------- 
     |                   =====================                   |
     |                        A N C O P T                        |
     |                   =====================                   |
     |               Approximate Normal Coordinate               |
     |                Rational Function Optimizer                |
      ----------------------------------------------------------- 
      ----------------------------------------------------------- 
     |                   =====================                   |
     |                        A N C O P T                        |
     |                   =====================                   |
     |               Approximate Normal Coordinate               |
     |                Rational Function Optimizer                |
      ----------------------------------------------------------- 

          ...................................................
          :                      SETUP                      :
          :.................................................:
          :   optimization level            normal          :
          :   max. optcycles                   200          :
          :   ANC micro-cycles                  20          :
          :   degrees of freedom                33          :
          :.................................................:
          :   RF solver                   davidson          :
          :   write xtbopt.log                true          :
          :   linear?                        false          :
          :   energy convergence         0.5000000E-05 Eh   :
          :   grad. convergence          0.1000000E-02 Eh/α :
          :   maxmium RF displ.          1.0000000          :
          :   Hlow (freq-cutoff)         0.1000000E-01      :
          :   Hmax (freq-cutoff)         5.0000000          :
          :   S6 in model hess.         20.0000000          :
          ...................................................

generating ANC from exact Hessian ...
Using Lindh-Hessian (1995)
 Shifting diagonal of input Hessian by   2.997898137750411E-003
 Lowest  eigenvalues of input Hessian
    0.000000    0.000000    0.000000    0.000000    0.000000    0.000000
    0.010000    0.015946    0.019710    0.024929    0.034768    0.036233
    0.061192    0.071844    0.082032    0.089150    0.090416    0.093865
 Highest eigenvalues
    1.369718    1.478218    1.672259    1.747877    1.841542    1.980533
 

........................................................................
.............................. CYCLE    1 ..............................
........................................................................

 iter      E             dE          RMSdq      gap      omega  full diag
   1    -19.2729247 -0.192729E+02  0.872E-05    2.60       0.0  T
   2    -19.2729247 -0.445510E-11  0.524E-05    2.60     529.5  T
   3    -19.2729247  0.315836E-11  0.283E-05    2.60     979.8  T
     SCC iter.                  ...        0 min,  0.001 sec
     gradient                   ...        0 min,  0.002 sec
 * total energy  :   -18.9768515 Eh     change       -0.8345964E-09 Eh
   gradient norm :     0.0483165 Eh/α   predicted     0.0000000E+00 (-100.00%)
   displ. norm   :     0.1364021 α      lambda       -0.4538489E-02
   maximum displ.:     0.0778093 α      in ANC's #19, #20, #9, ...

........................................................................
.............................. CYCLE    2 ..............................
........................................................................

 iter      E             dE          RMSdq      gap      omega  full diag
   1    -19.3003042 -0.193003E+02  0.204E-01    2.72       0.0  T
   2    -19.3003566 -0.523524E-04  0.125E-01    2.73       1.0  T
   3    -19.3003581 -0.147259E-05  0.702E-02    2.73       1.0  T
   4    -19.3003789 -0.208228E-04  0.147E-02    2.73       1.9  T
   5    -19.3003813 -0.244802E-05  0.398E-03    2.73       7.0  T
   6    -19.3003814 -0.388884E-07  0.168E-03    2.73      16.5  T
   7    -19.3003814 -0.782699E-08  0.747E-04    2.73      37.1  T
   8    -19.3003814 -0.136231E-08  0.193E-04    2.73     143.8  T
     SCC iter.                  ...        0 min,  0.002 sec
     gradient                   ...        0 min,  0.002 sec
 * total energy  :   -18.9795832 Eh     change       -0.2731703E-02 Eh
   gradient norm :     0.0141057 Eh/α   predicted    -0.2311466E-02 ( -15.38%)
   displ. norm   :     0.0442248 α      lambda       -0.3151197E-03
   maximum displ.:     0.0298984 α      in ANC's #6, #20, #19, ...

........................................................................
.............................. CYCLE    3 ..............................
........................................................................

 iter      E             dE          RMSdq      gap      omega  full diag
   1    -19.3061454 -0.193061E+02  0.584E-02    2.76       0.0  T
   2    -19.3061579 -0.125170E-04  0.368E-02    2.77       1.0  T
   3    -19.3061639 -0.595099E-05  0.202E-02    2.77       1.4  T
   4    -19.3061642 -0.339052E-06  0.673E-03    2.77       4.1  T
   5    -19.3061646 -0.423228E-06  0.147E-03    2.77      18.9  T
   6    -19.3061646 -0.397308E-08  0.796E-04    2.77      34.8  T
   7    -19.3061646 -0.301912E-08  0.259E-04    2.77     107.2  T
     SCC iter.                  ...        0 min,  0.002 sec
     gradient                   ...        0 min,  0.002 sec
 * total energy  :   -18.9797580 Eh     change       -0.1747518E-03 Eh
   gradient norm :     0.0030958 Eh/α   predicted    -0.1578671E-03 (  -9.66%)
   displ. norm   :     0.0215644 α      lambda       -0.2763002E-04
   maximum displ.:     0.0193157 α      in ANC's #6, #10, #17, ...

........................................................................
.............................. CYCLE    4 ..............................
........................................................................

 iter      E             dE          RMSdq      gap      omega  full diag
   1    -19.3059440 -0.193059E+02  0.175E-02    2.77       0.0  T
   2    -19.3059450 -0.106461E-05  0.120E-02    2.77       2.3  T
   3    -19.3059456 -0.569372E-06  0.640E-03    2.77       4.3  T
   4    -19.3059456 -0.160802E-07  0.193E-03    2.77      14.4  T
   5    -19.3059456 -0.374465E-07  0.555E-04    2.77      50.0  T
   6    -19.3059456 -0.231360E-09  0.273E-04    2.77     101.7  T
     SCC iter.                  ...        0 min,  0.002 sec
     gradient                   ...        0 min,  0.002 sec
 * total energy  :   -18.9797762 Eh     change       -0.1821076E-04 Eh
   gradient norm :     0.0011545 Eh/α   predicted    -0.1382167E-04 ( -24.10%)
   displ. norm   :     0.0174234 α      lambda       -0.5785992E-05
   maximum displ.:     0.0155004 α      in ANC's #6, #17, #10, ...

........................................................................
.............................. CYCLE    5 ..............................
........................................................................

 iter      E             dE          RMSdq      gap      omega  full diag
   1    -19.3053046 -0.193053E+02  0.132E-02    2.77       0.0  T
   2    -19.3053049 -0.347766E-06  0.911E-03    2.77       3.0  T
   3    -19.3053051 -0.187207E-06  0.506E-03    2.77       5.5  T
   4    -19.3053051 -0.425983E-07  0.117E-03    2.77      23.8  T
   5    -19.3053052 -0.131511E-07  0.445E-04    2.77      62.3  T
   6    -19.3053052 -0.196486E-09  0.171E-04    2.77     162.1  T
     SCC iter.                  ...        0 min,  0.002 sec
     gradient                   ...        0 min,  0.002 sec
 * total energy  :   -18.9797787 Eh     change       -0.2487901E-05 Eh
   gradient norm :     0.0005780 Eh/α   predicted    -0.2894602E-05 (  16.35%)
   displ. norm   :     0.0052359 α      lambda       -0.9080142E-06
   maximum displ.:     0.0041528 α      in ANC's #6, #17, #5, ...

   *** GEOMETRY OPTIMIZATION CONVERGED AFTER 5 ITERATIONS ***

------------------------------------------------------------------------
 total energy gain   :        -0.0029272 Eh       -1.8368 kcal/mol
 total RMSD          :         0.0485537 a0        0.0257 Å
 total power (kW/mol):        -1.5370485 (step) -331.0184 (real)
------------------------------------------------------------------------

 ANCopt (total)                0 d,  0 h,  0 min,  0.023 sec
 optimizer setup                ...        0 min,  0.000 sec (  1.566%)
 model hessian                  ...        0 min,  0.001 sec (  5.561%)
 ANC generation                 ...        0 min,  0.000 sec (  0.912%)
 coordinate transformation      ...        0 min,  0.000 sec (  0.175%)
 single point calculation       ...        0 min,  0.020 sec ( 87.414%)
 optimization log               ...        0 min,  0.000 sec (  1.217%)
 hessian update                 ...        0 min,  0.000 sec (  0.194%)
 rational function              ...        0 min,  0.000 sec (  1.899%)

================
 final structure:
================
13
 xtb: 6.7.1 (edcfbbe)
H           -3.59719322513276        3.38584004987739       -1.05870790625776
C           -0.26491285109978        3.45074351618990       -0.20799707855246
C           -2.64405538196019        3.03223379135718       -0.66361465600310
H           -1.25817156820579        0.32573088362797        0.80254551302041
H            0.71857881704793        1.77798931472611        0.73217331527602
C           -2.56654011972019        1.75272683898601       -0.12235551097622
C           -1.54722462279399        3.85300710143178       -0.70904593335432
C           -1.33596217761137        1.32543547287188        0.37570503412520
H           -3.43799697008592        1.10640881061373       -0.08893717757872
C           -0.22905897348068        2.12952003778735        0.33965847786018
H           -1.63762210273598        4.85076034944318       -1.13884155748792
N            0.82811069393125        4.17973813308155       -0.21664037327242
H            0.64616148184746        5.09939870000598       -0.63838414679891
 
 Bond Distances (Angstroems)
 ---------------------------
H1-C3=1.0907         C2-C7=1.4343         C2-C10=1.4307        C2-N12=1.3139        C3-H1=1.0907         C3-C6=1.3914         
C3-C7=1.3707         H4-C8=1.0898         H5-C10=1.0843        C6-C3=1.3914         C6-C8=1.3946         C6-H9=1.0855         
C7-C2=1.4343         C7-C3=1.3707         C7-H11=1.0901        C8-H4=1.0898         C8-C6=1.3946         C8-C10=1.3686        
H9-C6=1.0855         C10-C2=1.4307        C10-H5=1.0843        C10-C8=1.3686        H11-C7=1.0901        N12-C2=1.3139        
N12-H13=1.0280       H13-N12=1.0280       
 C  H  Rav=1.0881 sigma=0.0027  Rmin=1.0843  Rmax=1.0907     5
 C  C  Rav=1.3984 sigma=0.0260  Rmin=1.3686  Rmax=1.4343     6
 N  H  Rav=1.0280 sigma=0.0000  Rmin=1.0280  Rmax=1.0280     1
 N  C  Rav=1.3139 sigma=0.0000  Rmin=1.3139  Rmax=1.3139     1
 
 selected bond angles (degree)
 --------------------
C10-C2-C7=114.53               N12-C2-C7=125.86               N12-C2-C10=119.61              C6-C3-H1=119.19                
C7-C3-H1=119.55                C7-C3-C6=121.26                C8-C6-C3=118.02                H9-C6-C3=120.98                
H9-C6-C8=121.00                C3-C7-C2=122.40                H11-C7-C2=117.94               H11-C7-C3=119.65               
C6-C8-H4=118.94                C10-C8-H4=119.44               C10-C8-C6=121.62               H5-C10-C2=117.38               
C8-C10-C2=122.17               C8-C10-H5=120.45               
 
 selected dihedral angles (degree)
 ---------------------------------
C8-C6-C3-H1=179.99            C8-C6-C3-C7=  0.00            H9-C6-C3-H1=  0.00            H9-C6-C3-C7=180.02            
C3-C7-C2-C10=359.98           C3-C7-C2-N12=180.02           H11-C7-C2-C10=179.98          H11-C7-C2-N12=  0.00          
C2-C7-C3-H1=180.02            C2-C7-C3-C6=  0.00            H11-C7-C3-H1=  0.02           H11-C7-C3-C6=180.01           
H4-C8-C6-C3=180.03            H4-C8-C6-H9=  0.02            C10-C8-C6-C3=  0.00           C10-C8-C6-H9=179.98           
H5-C10-C2-C7=180.01           H5-C10-C2-N12=359.97          C8-C10-C2-C7=  0.00           C8-C10-C2-N12=179.98          
C2-C10-C8-H4=179.95           C2-C10-C8-C6=  0.00           H5-C10-C8-H4=359.97           H5-C10-C8-C6=180.01           
           -------------------------------------------------
          |                Final Singlepoint                |
           -------------------------------------------------

          ...................................................
          :                      SETUP                      :
          :.................................................:
          :  # basis functions                  34          :
          :  # atomic orbitals                  34          :
          :  # shells                           20          :
          :  # electrons                        36          :
          :  max. iterations                   250          :
          :  Hamiltonian                  GFN2-xTB          :
          :  restarted?                      false          :
          :  GBSA solvation                  false          :
          :  PC potential                    false          :
          :  electronic temp.          300.0000000     K    :
          :  accuracy                    1.0000000          :
          :  -> integral cutoff          0.2500000E+02      :
          :  -> integral neglect         0.1000000E-07      :
          :  -> SCF convergence          0.1000000E-05 Eh   :
          :  -> wf. convergence          0.1000000E-03 e    :
          :  Broyden damping             0.4000000          :
          :  net charge                         -1          :
          :  unpaired electrons                  0          :
          ...................................................

 iter      E             dE          RMSdq      gap      omega  full diag
   1    -19.3053052 -0.193053E+02  0.423E-05    2.77       0.0  T
   2    -19.3053052 -0.155964E-11  0.240E-05    2.77    1153.8  T
   3    -19.3053052  0.103029E-12  0.154E-05    2.77    1798.2  T

   *** convergence criteria satisfied after 3 iterations ***

         #    Occupation            Energy/Eh            Energy/eV
      -------------------------------------------------------------
         1        2.0000           -0.4377077             -11.9106
       ...           ...                  ...                  ...
        12        2.0000           -0.2668210              -7.2606
        13        2.0000           -0.2409787              -6.5574
        14        2.0000           -0.2244779              -6.1084
        15        2.0000           -0.2190093              -5.9595
        16        2.0000           -0.2039950              -5.5510
        17        2.0000           -0.1458064              -3.9676
        18        2.0000           -0.1199244              -3.2633 (HOMO)
        19                         -0.0180135              -0.4902 (LUMO)
        20                          0.0099628               0.2711
        21                          0.1209479               3.2912
        22                          0.2896969               7.8831
        23                          0.2953906               8.0380
       ...                                ...                  ...
        34                          0.8719878              23.7280
      -------------------------------------------------------------
                  HL-Gap            0.1019109 Eh            2.7731 eV
             Fermi-level           -0.0689689 Eh           -1.8767 eV

 SCC (total)                   0 d,  0 h,  0 min,  0.003 sec
 SCC setup                      ...        0 min,  0.000 sec (  2.350%)
 Dispersion                     ...        0 min,  0.000 sec (  1.517%)
 classical contributions        ...        0 min,  0.000 sec (  0.346%)
 integral evaluation            ...        0 min,  0.001 sec ( 20.947%)
 iterations                     ...        0 min,  0.001 sec ( 24.343%)
 molecular gradient             ...        0 min,  0.002 sec ( 47.824%)
 printout                       ...        0 min,  0.000 sec (  1.944%)

         :::::::::::::::::::::::::::::::::::::::::::::::::::::
         ::                     SUMMARY                     ::
         :::::::::::::::::::::::::::::::::::::::::::::::::::::
         :: total energy             -18.979778696805 Eh    ::
         :: gradient norm              0.000577172255 Eh/a0 ::
         :: HOMO-LUMO gap              2.773135664378 eV    ::
         ::.................................................::
         :: SCC energy               -19.305293635200 Eh    ::
         :: -> isotropic ES            0.130046950225 Eh    ::
         :: -> anisotropic ES          0.016921358627 Eh    ::
         :: -> anisotropic XC          0.012691933916 Eh    ::
         :: -> dispersion             -0.010932909949 Eh    ::
         :: repulsion energy           0.325514938395 Eh    ::
         :: add. restraining           0.000000000000 Eh    ::
         :: total charge              -1.000000000000 e     ::
         :::::::::::::::::::::::::::::::::::::::::::::::::::::

           ------------------------------------------------- 
          |                Numerical Hessian                |
           ------------------------------------------------- 
step length          :   0.00500
SCC accuracy         :   0.30000
Hessian scale factor :   1.00000
frozen atoms in %    :   0.00000    0
RMS gradient         :   0.00058
estimated CPU  time      0.01 min
estimated wall time      0.01 min

writing file <hessian>.

 projected vibrational frequencies (cm⁻¹)
eigval :       -0.00    -0.00    -0.00    -0.00     0.00     0.00
eigval :      182.03   371.62   402.54   452.25   495.98   585.95
eigval :      636.57   711.46   721.12   770.50   827.42   838.67
eigval :      899.05   902.69   951.51  1068.77  1098.16  1174.26
eigval :     1186.84  1204.58  1323.86  1375.53  1395.47  1491.18
eigval :     1521.02  1543.58  1637.41  2925.28  2943.51  2953.55
eigval :     2994.68  3022.87  3187.07
           -------------------------------------------------
          |                Property Printout                |
           -------------------------------------------------

    * Orbital Energies and Occupations

         #    Occupation            Energy/Eh            Energy/eV
      -------------------------------------------------------------
         1        2.0000           -0.4377077             -11.9106
       ...           ...                  ...                  ...
         6        2.0000           -0.3539987              -9.6328
         7        2.0000           -0.3285745              -8.9410
         8        2.0000           -0.3079369              -8.3794
         9        2.0000           -0.2919521              -7.9444
        10        2.0000           -0.2859620              -7.7814
        11        2.0000           -0.2734160              -7.4400
        12        2.0000           -0.2668211              -7.2606
        13        2.0000           -0.2409788              -6.5574
        14        2.0000           -0.2244780              -6.1084
        15        2.0000           -0.2190093              -5.9595
        16        2.0000           -0.2039950              -5.5510
        17        2.0000           -0.1458064              -3.9676
        18        2.0000           -0.1199244              -3.2633 (HOMO)
        19                         -0.0180135              -0.4902 (LUMO)
        20                          0.0099628               0.2711
        21                          0.1209478               3.2912
        22                          0.2896969               7.8831
        23                          0.2953906               8.0380
        24                          0.3180200               8.6538
        25                          0.3627350               9.8705
        26                          0.3672935               9.9946
        27                          0.3900114              10.6127
        28                          0.4442553              12.0888
        29                          0.5830852              15.8666
       ...                                ...                  ...
        34                          0.8719877              23.7280
      -------------------------------------------------------------
                  HL-Gap            0.1019109 Eh            2.7731 eV
             Fermi-level           -0.0689690 Eh           -1.8767 eV

     #   Z          covCN         q      C6AA      α(0)
     1   1 H        0.924    -0.051     4.123     3.175
     2   6 C        2.885     0.089    26.012     8.361
     3   6 C        2.912    -0.049    29.229     8.865
     4   1 H        0.925    -0.047     4.027     3.138
     5   1 H        0.925    -0.026     3.554     2.948
     6   6 C        2.915    -0.096    30.407     9.042
     7   6 C        2.917    -0.097    30.446     9.048
     8   6 C        2.913    -0.050    29.238     8.867
     9   1 H        0.925    -0.054     4.199     3.205
    10   6 C        2.923    -0.087    30.179     9.009
    11   1 H        0.925    -0.050     4.091     3.163
    12   7 N        1.781    -0.516    34.870     8.745
    13   1 H        0.859     0.035     2.529     2.491

 Mol. C6AA /au·bohr⁶  :       2489.625236
 Mol. C8AA /au·bohr⁸  :      58721.972129
 Mol. α(0) /au        :         80.058861


Wiberg/Mayer (AO) data.
largest (>0.10) Wiberg bond orders for each atom

 ---------------------------------------------------------------------------
     #   Z sym  total        # sym  WBO       # sym  WBO       # sym  WBO
 ---------------------------------------------------------------------------
     1   1 H    0.997 --     3 C    0.968
     2   6 C    3.982 --    12 N    1.517    10 C    1.196     7 C    1.190
     3   6 C    3.984 --     7 C    1.524     6 C    1.379     1 H    0.968
     4   1 H    0.997 --     8 C    0.969
     5   1 H    0.999 --    10 C    0.971
     6   6 C    3.957 --     3 C    1.379     8 C    1.363     9 H    0.971
     7   6 C    3.967 --     3 C    1.524     2 C    1.190    11 H    0.967
                            12 N    0.102
     8   6 C    3.985 --    10 C    1.541     6 C    1.363     4 H    0.969
     9   1 H    0.997 --     6 C    0.971
    10   6 C    3.977 --     8 C    1.541     2 C    1.196     5 H    0.971
    11   1 H    0.998 --     7 C    0.967
    12   7 N    2.808 --     2 C    1.517    13 H    0.974     7 C    0.102
    13   1 H    0.998 --    12 N    0.974
 ---------------------------------------------------------------------------

Topologies differ in total number of bonds
Writing topology from bond orders to xtbtopo.mol

molecular dipole:
                 x           y           z       tot (Debye)
 q only:        1.283      -5.955       0.368
   full:        0.784      -5.894       0.212      15.122
molecular quadrupole (traceless):
                xx          xy          yy          xz          yz          zz
 q only:        9.932       5.356     -35.409      -2.035       5.384      25.477
  q+dip:       10.181       0.589     -32.409      -0.562       1.180      22.228
   full:        9.136       0.290     -32.797      -1.233       2.060      23.661

           -------------------------------------------------
          |                Geometry Summary                 |
           -------------------------------------------------

      molecular mass/u    :       92.1187631
   center of mass at/Å    :       -1.0874995       2.8432130      -0.1769250
  moments of inertia/u·Å² :        0.8851175E+02   0.1842761E+03   0.2727878E+03
rotational constants/cm⁻¹ :        0.1904564E+00   0.9148031E-01   0.6179760E-01

 * 11 selected distances

     #   Z          #   Z                                           value/Å
     1   1 H        3   6 C                                       1.0906915
     3   6 C        6   6 C                                       1.3914412
     3   6 C        7   6 C                                       1.3706826
     4   1 H        8   6 C                                       1.0897952
     6   6 C        8   6 C                                       1.3946199
     6   6 C        9   1 H                                       1.0854865
     2   6 C       10   6 C                                       1.4306795 (max)
     5   1 H       10   6 C                                       1.0842783 (min)
     8   6 C       10   6 C                                       1.3686075
     7   6 C       11   1 H                                       1.0901412
     2   6 C       12   7 N                                       1.3138526

 * 3 distinct bonds (by element types)

   Z      Z             #   av. dist./Å        max./Å        min./Å
   1 H    6 C           5     1.0880785     1.0906915     1.0842783
   6 C    6 C           5     1.3912061     1.4306795     1.3686075
   6 C    7 N           1     1.3138526     1.3138526     1.3138526

           -------------------------------------------------
          |               Frequency Printout                |
           -------------------------------------------------
 projected vibrational frequencies (cm⁻¹)
eigval :       -0.00    -0.00    -0.00    -0.00     0.00     0.00
eigval :      182.03   371.62   402.54   452.25   495.98   585.95
eigval :      636.57   711.46   721.12   770.50   827.42   838.67
eigval :      899.05   902.69   951.51  1068.77  1098.16  1174.26
eigval :     1186.84  1204.58  1323.86  1375.53  1395.47  1491.18
eigval :     1521.02  1543.58  1637.41  2925.28  2943.51  2953.55
eigval :     2994.68  3022.87  3187.07
 reduced masses (amu)
   1: 11.64   2: 10.86   3: 10.22   4: 11.15   5: 10.97   6: 11.87   7: 10.55   8:  9.42
   9: 10.48  10:  8.78  11: 11.72  12: 11.22  13:  9.95  14:  3.86  15:  2.42  16:  5.36
  17:  3.37  18: 11.28  19:  2.73  20:  3.01  21: 10.58  22:  7.13  23:  5.82  24:  2.55
  25:  2.50  26:  1.73  27:  3.79  28:  8.52  29:  8.42  30: 10.03  31: 10.83  32: 11.18
  33: 11.56  34:  1.73  35:  1.76  36:  1.83  37:  1.85  38:  1.83  39:  1.84
 IR intensities (km·mol⁻¹)
   1: 11.33   2:  3.76   3:  2.00   4:  5.87   5:  3.54   6: 10.29   7:  4.98   8:  0.50
   9:  5.80  10:  0.21  11:  3.12  12:  0.22  13:  2.12  14: 67.59  15:  0.77  16:  7.96
  17:  0.00  18:  1.11  19:  0.02  20:  0.47  21: 13.29  22:  3.31  23:  3.67  24:  4.90
  25: 27.94  26:  2.03  27: 12.80  28: 13.33  29:128.14  30: 84.62  31: 21.08  32:115.98
  33:423.22  34:113.49  35:202.07  36:264.52  37:306.01  38:109.58  39:237.76
 Raman intensities (Ä⁴*amu⁻¹)
   1:  0.00   2:  0.00   3:  0.00   4:  0.00   5:  0.00   6:  0.00   7:  0.00   8:  0.00
   9:  0.00  10:  0.00  11:  0.00  12:  0.00  13:  0.00  14:  0.00  15:  0.00  16:  0.00
  17:  0.00  18:  0.00  19:  0.00  20:  0.00  21:  0.00  22:  0.00  23:  0.00  24:  0.00
  25:  0.00  26:  0.00  27:  0.00  28:  0.00  29:  0.00  30:  0.00  31:  0.00  32:  0.00
  33:  0.00  34:  0.00  35:  0.00  36:  0.00  37:  0.00  38:  0.00  39:  0.00
 output can be read by thermo (or use thermo option).
 writing <g98.out> molden fake output.
 recommended (thermochemical) frequency scaling factor: 1.0
           -------------------------------------------------
          |             Thermodynamic Functions             |
           -------------------------------------------------

Molecule has the following symmetry elements: (sigma) 
It seems to be the Cs point group
cs  symmetry found (for desy threshold:  0.10E+00) used in thermo

          ...................................................
          :                      SETUP                      :
          :.................................................:
          :  # frequencies                          33      :
          :  # imaginary freq.                       0      :
          :  linear?                             false      :
          :  only rotor calc.                    false      :
          :  symmetry                               cs      :
          :  rotational number                       1      :
          :  scaling factor                  1.0000000      :
          :  rotor cutoff                   50.0000000 cm⁻¹ :
          :  imag. cutoff                  -20.0000000 cm⁻¹ :
          :.................................................:

    mode    ω/cm⁻¹     T·S(HO)/kcal·mol⁻¹    T·S(FR)/kcal·mol⁻¹   T·S(vib)
   ------------------------------------------------------------------------
       1    182.03    -0.68797 ( 99.43%)    -0.67361 (  0.57%)    -0.68789
   ------------------------------------------------------------------------

   temp. (K)  partition function   enthalpy   heat capacity  entropy
                                   cal/mol     cal/K/mol   cal/K/mol   J/K/mol
 298.15  VIB   4.00                 1739.083     16.255      8.587
         ROT  0.161E+06              888.752      2.981     26.808
         INT  0.644E+06             2627.836     19.236     35.395
         TR   0.855E+27             1481.254      4.968     39.455
         TOT                        4109.0895    24.2045    74.8504   313.1739

       T/K    H(0)-H(T)+PV         H(T)/Eh          T*S/Eh         G(T)/Eh
   ------------------------------------------------------------------------
    298.15    0.654825E-02    0.106325E+00    0.355638E-01    0.707612E-01
   ------------------------------------------------------------------------

         :::::::::::::::::::::::::::::::::::::::::::::::::::::
         ::                  THERMODYNAMIC                  ::
         :::::::::::::::::::::::::::::::::::::::::::::::::::::
         :: total free energy         -18.909017449256 Eh   ::
         ::.................................................::
         :: total energy              -18.979778696806 Eh   ::
         :: zero point energy           0.099776815229 Eh   ::
         :: G(RRHO) w/o ZPVE           -0.029015567679 Eh   ::
         :: G(RRHO) contrib.            0.070761247550 Eh   ::
         :::::::::::::::::::::::::::::::::::::::::::::::::::::

optimized geometry written to: xtbopt.xyz


           -------------------------------------------------
          | TOTAL ENERGY              -18.979778696806 Eh   |
          | TOTAL ENTHALPY            -18.873453630670 Eh   |
          | TOTAL FREE ENERGY         -18.909017449256 Eh   |
          | GRADIENT NORM               0.000577036715 Eh/α |
          | HOMO-LUMO GAP               2.773135433234 eV   |
           -------------------------------------------------

------------------------------------------------------------------------
 * finished run on 2025/10/17 at 21:56:42.015     
------------------------------------------------------------------------
 total:
 * wall-time:     0 d,  0 h,  0 min,  0.575 sec
 *  cpu-time:     0 d,  0 h,  0 min,  0.832 sec
 * ratio c/w:     1.448 speedup
 SCF:
 * wall-time:     0 d,  0 h,  0 min,  0.031 sec
 *  cpu-time:     0 d,  0 h,  0 min,  0.041 sec
 * ratio c/w:     1.327 speedup
 ANC optimizer:
 * wall-time:     0 d,  0 h,  0 min,  0.138 sec
 *  cpu-time:     0 d,  0 h,  0 min,  0.166 sec
 * ratio c/w:     1.198 speedup
 analytical hessian:
 * wall-time:     0 d,  0 h,  0 min,  0.233 sec
 *  cpu-time:     0 d,  0 h,  0 min,  0.443 sec
 * ratio c/w:     1.903 speedup

