13
 energy: -18.976851543108 gnorm: 0.048316481849 xtb: 6.7.1 (edcfbbe)
H           -3.60385300000000        3.40064700000000       -1.06632800000000
C           -0.24742600000000        3.45641200000000       -0.20522700000000
C           -2.65398300000000        3.03186100000000       -0.66570200000000
H           -1.25607000000000        0.30462500000000        0.81116400000000
H            0.73117500000000        1.75864300000000        0.74465600000000
C           -2.58708800000000        1.73736100000000       -0.12141700000000
C           -1.53769200000000        3.86162700000000       -0.70922000000000
C           -1.34519400000000        1.30727900000000        0.38077600000000
H           -3.46445600000000        1.08974300000000       -0.09153300000000
C           -0.22055700000000        2.12401500000000        0.34558100000000
H           -1.62830400000000        4.86497300000000       -1.14033900000000
N            0.86605700000000        4.21528100000000       -0.22212600000000
H            0.62150400000000        5.11706600000000       -0.65472700000000
13
 energy: -18.979583246141 gnorm: 0.014105678515 xtb: 6.7.1 (edcfbbe)
H           -3.59067466806650        3.39553773070802       -1.06041616801467
C           -0.26028961733922        3.44834813475871       -0.20511911299726
C           -2.64141127219301        3.03326755201234       -0.66331075122401
H           -1.25473853565768        0.32342018403659        0.80472107961189
H            0.71771590000191        1.76597272805612        0.73787880543641
C           -2.56861966133194        1.75143070635495       -0.12299877703467
C           -1.54029914543444        3.85362237432177       -0.70669282414096
C           -1.33804362386337        1.32229983564419        0.37594167449507
H           -3.44211230153224        1.10679451710042       -0.09156267216453
C           -0.22727349365343        2.12727564018044        0.34153591827297
H           -1.63325802079868        4.85165522419513       -1.13697700494667
N            0.83602290268661        4.18999291531209       -0.21943646002677
H            0.61709453718199        5.09991545731923       -0.64800570726679
13
 energy: -18.979757997909 gnorm: 0.003095835787 xtb: 6.7.1 (edcfbbe)
H           -3.59220940719946        3.39013344560054       -1.05893500197368
C           -0.26350949044895        3.44843300494122       -0.20647386513778
C           -2.64112933537866        3.03283654789343       -0.66308304052361
H           -1.25652474412112        0.32687805050926        0.80266119137819
H            0.71618679246067        1.77250818358751        0.73436207191442
C           -2.56549098431283        1.75370347236906       -0.12283717226734
C           -1.54360574299335        3.85190946162988       -0.70727059417948
C           -1.33627987920507        1.32583575143376        0.37532178312444
H           -3.43761136084410        1.10861649981604       -0.09044473251787
C           -0.22883295128920        2.12894289531289        0.34021866929672
H           -1.63540869907614        4.84917323309350       -1.13689789886387
N            0.82800268180551        4.18203546547384       -0.21805358100065
H            0.63052612060271        5.09852698833908       -0.64300982924950
13
 energy: -18.979776208672 gnorm: 0.001154490788 xtb: 6.7.1 (edcfbbe)
H           -3.59498489885692        3.38767250275538       -1.05862951016439
C           -0.26429167520903        3.44980793096500       -0.20689618007416
C           -2.64268577113138        3.03242474192491       -0.66343304245305
H           -1.25762785407063        0.32656108464224        0.80269778349996
H            0.71725505881373        1.77546030599769        0.73310801278949
C           -2.56590698066581        1.75316745784756       -0.12274974742965
C           -1.54561053487894        3.85230173159238       -0.70806661653907
C           -1.33600183040736        1.32568922087098        0.37515138508557
H           -3.43767650464873        1.10749830223104       -0.08957917151358
C           -0.22893797126127        2.12931556711288        0.33976596113516
H           -1.63653317925872        4.84973321676849       -1.13782441899499
N            0.82764659899021        4.18068105087433       -0.21717992378152
H            0.63946854258483        5.09921988641712       -0.64080653155977
13
 energy: -18.979778696573 gnorm: 0.000577978188 xtb: 6.7.1 (edcfbbe)
H           -3.59719322513276        3.38584004987739       -1.05870790625776
C           -0.26491285109978        3.45074351618990       -0.20799707855246
C           -2.64405538196019        3.03223379135718       -0.66361465600310
H           -1.25817156820579        0.32573088362797        0.80254551302041
H            0.71857881704793        1.77798931472611        0.73217331527602
C           -2.56654011972019        1.75272683898601       -0.12235551097622
C           -1.54722462279399        3.85300710143178       -0.70904593335432
C           -1.33596217761137        1.32543547287188        0.37570503412520
H           -3.43799697008592        1.10640881061373       -0.08893717757872
C           -0.22905897348068        2.12952003778735        0.33965847786018
H           -1.63762210273598        4.85076034944318       -1.13884155748792
N            0.82811069393125        4.17973813308155       -0.21664037327242
H            0.64616148184746        5.09939870000598       -0.63838414679891
