13
 energy: -18.979778696805 gnorm: 0.000577172255 xtb: 6.7.1 (edcfbbe)
H           -3.59717919246255        3.38585703691097       -1.05870125908226
C           -0.26489550911343        3.45074454019821       -0.20800217651417
C           -2.64404182164551        3.03224647733866       -0.66361071874997
H           -1.25816706124029        0.32573887208543        0.80254933635394
H            0.71859068232685        1.77798683009926        0.73216770378043
C           -2.56653136952620        1.75274006378354       -0.12234961114562
C           -1.54720692353252        3.85301396511663       -0.70904725728213
C           -1.33595392616767        1.32544312365542        0.37570738418877
H           -3.43799148733173        1.10642665668388       -0.08892710775234
C           -0.22904663771341        2.12952182991456        0.33965556071063
H           -1.63760067952868        4.85076693630590       -1.13884430727366
N            0.82813182272753        4.17973341893562       -0.21665055894163
H            0.64618595380587        5.09939420245584       -0.63839530245284
