13
 energy: -19.065246252414 gnorm: 0.038468866974 xtb: 6.7.1 (edcfbbe)
H           -3.60385300000000        3.40064700000000       -1.06632800000000
C           -0.24742600000000        3.45641200000000       -0.20522700000000
C           -2.65398300000000        3.03186100000000       -0.66570200000000
H           -1.25607000000000        0.30462500000000        0.81116400000000
H            0.73117500000000        1.75864300000000        0.74465600000000
C           -2.58708800000000        1.73736100000000       -0.12141700000000
C           -1.53769200000000        3.86162700000000       -0.70922000000000
C           -1.34519400000000        1.30727900000000        0.38077600000000
H           -3.46445600000000        1.08974300000000       -0.09153300000000
C           -0.22055700000000        2.12401500000000        0.34558100000000
H           -1.62830400000000        4.86497300000000       -1.14033900000000
N            0.86605700000000        4.21528100000000       -0.22212600000000
H            0.62150400000000        5.11706600000000       -0.65472700000000
13
 energy: -19.067860869103 gnorm: 0.008490818006 xtb: 6.7.1 (edcfbbe)
H           -3.58724473783059        3.39577135940720       -1.05966626139055
C           -0.26396814396082        3.44491920165793       -0.20473605878283
C           -2.64192597746616        3.03147670031320       -0.66281365436530
H           -1.25483269142679        0.32578913627356        0.80376115870222
H            0.71753057071534        1.76856700942016        0.73655975560316
C           -2.56851517021347        1.75152347195582       -0.12297452232737
C           -1.53979151575205        3.85155124332365       -0.70574003994582
C           -1.34027456724534        1.32147452351458        0.37576389156934
H           -3.43973235873406        1.10918538500290       -0.09181891837117
C           -0.22900343105621        2.12665158849605        0.34146036937183
H           -1.62719429869635        4.85069648511078       -1.13505981574328
N            0.83701612529146        4.19185398274636       -0.22003649075276
H            0.61204919637504        5.10007291277781       -0.64914141356748
13
 energy: -19.067971922834 gnorm: 0.002211677072 xtb: 6.7.1 (edcfbbe)
H           -3.58726377560959        3.39205776396515       -1.05852938328557
C           -0.26866881717268        3.44309428171889       -0.20566779364644
C           -2.64204345720883        3.03093948292570       -0.66267560793018
H           -1.25601947245132        0.32926783800669        0.80188486638224
H            0.71673170014945        1.77560918547161        0.73295191346451
C           -2.56534611347300        1.75396723179941       -0.12280700790625
C           -1.54226916795092        3.84952480009331       -0.70598041989708
C           -1.33918461417838        1.32383970027769        0.37535272450745
H           -3.43490840623203        1.11199268553072       -0.09091877745990
C           -0.23052061598476        2.12750819110431        0.34040719466450
H           -1.62580051234657        4.84850489120691       -1.13420426336379
N            0.82969377975111        4.18515154704793       -0.21878102965155
H            0.61971247270753        5.09807540085168       -0.64547441587794
13
 energy: -19.067982453080 gnorm: 0.000931590308 xtb: 6.7.1 (edcfbbe)
H           -3.58928096003088        3.39042786530251       -1.05836506190705
C           -0.26991430772820        3.44361666759311       -0.20589114949371
C           -2.64338454905411        3.03076772020131       -0.66309013479277
H           -1.25693900465614        0.32897996209466        0.80190633000432
H            0.71796133851605        1.77854792705478        0.73169041703063
C           -2.56525965944056        1.75390636680619       -0.12274898188340
C           -1.54376761644372        3.84980847277564       -0.70665521989128
C           -1.33884490735846        1.32350870669037        0.37530917339670
H           -3.43460986290576        1.11155497061598       -0.09014701455121
C           -0.23044246751102        2.12752431481476        0.34012293434369
H           -1.62560322195821        4.84901228399999       -1.13482654460286
N            0.82879335009760        4.18369884827161       -0.21788596883292
H            0.62540486847343        5.09817889377908       -0.64386077882013
13
 energy: -19.067984122215 gnorm: 0.000471508375 xtb: 6.7.1 (edcfbbe)
H           -3.59126553168037        3.38884635707670       -1.05849211568705
C           -0.27070504558236        3.44414476069264       -0.20679458662088
C           -2.64463676256695        3.03077638882464       -0.66331470797063
H           -1.25776532275450        0.32809924037014        0.80168390508798
H            0.71940626761362        1.78112615359311        0.73070244717059
C           -2.56542190671746        1.75388306665713       -0.12238071420319
C           -1.54510900732851        3.85044546047236       -0.70757059999256
C           -1.33863581705420        1.32319914292668        0.37586923837576
H           -3.43464574342768        1.11086860102661       -0.08948518321066
C           -0.23035468548630        2.12745868156864        0.34011892702632
H           -1.62586595924847        4.84992199974124       -1.13569015734684
N            0.82874414293030        4.18255467472265       -0.21722334754684
H            0.63036837130288        5.09820847232747       -0.64186510508198
