 Entering Gaussian System
 *********************************************
 Gaussian 98:
 frequency output generated by the xtb code
 *********************************************
                         Standard orientation:
 --------------------------------------------------------------------
  Center     Atomic     Atomic              Coordinates (Angstroms)
  Number     Number      Type              X           Y           Z
 --------------------------------------------------------------------
    1          1             0       -5.185008   -2.561274   -0.947639
    2          6             0       -4.216124   -2.406512   -2.906684
    3          8             0       -3.035428   -2.111103   -2.403873
    4          1             0       -6.701248   -0.642285   -1.139867
    5          6             0       -5.279825   -2.032755   -1.891642
    6          6             0       -6.102712   -0.994832   -1.974723
    7          1             0       -6.201476   -0.427681   -2.889046
    8          1             0       -4.467815   -1.872811   -3.883698
    9          1             0       -4.358238   -3.522559   -3.160193
 --------------------------------------------------------------------
     1 basis functions        1 primitive gaussians
     1 alpha electrons        1 beta electrons
 
 Harmonic frequencies (cm**-1), IR intensities (km*mol⁻¹),
 Raman scattering activities (A**4/amu), Raman depolarization ratios,
 reduced masses (AMU), force constants (mDyne/A) and normal coordinates:
                      1                      2                      3
                        a                      a                      a 
 Frequencies --   108.5441               291.1502               387.6469
 Red. masses --    10.6337                 7.5482                 7.2259
 Frc consts  --     0.0000                 0.0000                 0.0000
 IR Inten    --    22.5492                60.1354                 0.8752
 Raman Activ --     0.0000                 0.0000                 0.0000
 Depolar     --     0.0000                 0.0000                 0.0000
 Atom AN      X      Y      Z        X      Y      Z        X      Y      Z
   1   1    -0.13  -0.17  -0.08     0.39   0.23   0.04    -0.03   0.03  -0.13
   2   6    -0.06  -0.30  -0.05    -0.08  -0.06  -0.32     0.21  -0.27  -0.03
   3   8    -0.31   0.47   0.10    -0.35  -0.01   0.37     0.15  -0.02   0.03
   4   1     0.18   0.08   0.04     0.28   0.12   0.14    -0.02  -0.17   0.22
   5   6    -0.11  -0.31  -0.15     0.32   0.10  -0.12    -0.05   0.26  -0.39
   6   6     0.42   0.15   0.07     0.04  -0.08   0.04    -0.31   0.13   0.28
   7   1     0.22   0.13   0.06    -0.32  -0.21  -0.07    -0.24   0.21   0.21
   8   1    -0.04  -0.20  -0.07     0.06   0.03  -0.07     0.14  -0.29  -0.14
   9   1     0.14  -0.12   0.08     0.02   0.00  -0.14     0.05  -0.13   0.24
                      4                      5                      6
                        a                      a                      a 
 Frequencies --   631.6776               806.9127               897.7989
 Red. masses --     7.4486                 4.3520                 5.9886
 Frc consts  --     0.0000                 0.0000                 0.0000
 IR Inten    --     0.0518                23.4478                10.8108
 Raman Activ --     0.0000                 0.0000                 0.0000
 Depolar     --     0.0000                 0.0000                 0.0000
 Atom AN      X      Y      Z        X      Y      Z        X      Y      Z
   1   1     0.04   0.18   0.12     0.14   0.14   0.04    -0.06   0.17   0.05
   2   6     0.21  -0.00   0.04    -0.06   0.07   0.09    -0.26   0.06   0.43
   3   8     0.26  -0.00  -0.09    -0.05  -0.01   0.00     0.06   0.02  -0.05
   4   1     0.28   0.34   0.11    -0.45  -0.49  -0.15     0.38  -0.26   0.26
   5   6    -0.55  -0.30  -0.06    -0.09  -0.13  -0.14     0.09  -0.07  -0.25
   6   6    -0.01   0.19   0.09     0.42   0.24   0.09     0.11  -0.13  -0.29
   7   1    -0.30  -0.21  -0.11    -0.35  -0.22  -0.10    -0.19   0.30   0.16
   8   1     0.03   0.10   0.08    -0.03  -0.02  -0.00    -0.14   0.14   0.19
   9   1     0.13   0.03  -0.10    -0.05  -0.00   0.05    -0.04   0.05  -0.04
                      7                      8                      9
                        a                      a                      a 
 Frequencies --   940.1392               998.2743              1112.3872
 Red. masses --     5.2042                 2.5333                 7.6277
 Frc consts  --     0.0000                 0.0000                 0.0000
 IR Inten    --    15.3423                17.8063                61.4941
 Raman Activ --     0.0000                 0.0000                 0.0000
 Depolar     --     0.0000                 0.0000                 0.0000
 Atom AN      X      Y      Z        X      Y      Z        X      Y      Z
   1   1     0.09  -0.29  -0.23    -0.54  -0.43  -0.19    -0.29   0.06   0.17
   2   6    -0.19   0.46   0.18    -0.03  -0.19   0.03     0.33   0.32  -0.25
   3   8     0.05  -0.09   0.00     0.03   0.06  -0.00    -0.25  -0.13  -0.02
   4   1     0.17   0.20   0.01     0.08   0.03   0.04     0.17  -0.19   0.14
   5   6     0.01  -0.05  -0.23     0.21   0.19   0.08    -0.08  -0.07   0.38
   6   6     0.09  -0.13   0.06     0.05   0.08  -0.00     0.12  -0.03  -0.22
   7   1    -0.02  -0.26  -0.12    -0.44  -0.28  -0.14    -0.24   0.16   0.08
   8   1     0.07  -0.24  -0.16    -0.03   0.13   0.10     0.02  -0.21  -0.21
   9   1    -0.18  -0.00   0.45     0.02   0.01  -0.16     0.04  -0.05   0.22
                     10                     11                     12
                        a                      a                      a 
 Frequencies --  1156.0282              1242.9328              1274.1162
 Red. masses --    12.6905                 2.6500                 3.2895
 Frc consts  --     0.0000                 0.0000                 0.0000
 IR Inten    --   246.8920                 4.9525                12.5993
 Raman Activ --     0.0000                 0.0000                 0.0000
 Depolar     --     0.0000                 0.0000                 0.0000
 Atom AN      X      Y      Z        X      Y      Z        X      Y      Z
   1   1     0.02   0.01  -0.05    -0.12   0.09   0.02     0.55  -0.48  -0.26
   2   6     0.54   0.03   0.44     0.01   0.18   0.02     0.03  -0.01   0.13
   3   8    -0.55  -0.07  -0.26    -0.05  -0.19   0.04    -0.07  -0.06  -0.06
   4   1    -0.01   0.07  -0.02    -0.07   0.08  -0.05     0.01  -0.06   0.03
   5   6     0.05   0.09  -0.19     0.11   0.05  -0.18    -0.07  -0.03   0.25
   6   6     0.00  -0.07   0.10    -0.04  -0.01   0.12    -0.09   0.21  -0.23
   7   1     0.09  -0.09  -0.03     0.06  -0.07  -0.03    -0.18   0.21   0.05
   8   1     0.10   0.12   0.06    -0.63  -0.10   0.04    -0.01  -0.01   0.01
   9   1    -0.08  -0.03  -0.12     0.64  -0.02   0.04     0.33  -0.02  -0.09
                     13                     14                     15
                        a                      a                      a 
 Frequencies --  1348.0515              1427.2660              1499.8925
 Red. masses --     2.8334                 2.4817                 1.7742
 Frc consts  --     0.0000                 0.0000                 0.0000
 IR Inten    --    60.8116                24.0766               101.7377
 Raman Activ --     0.0000                 0.0000                 0.0000
 Depolar     --     0.0000                 0.0000                 0.0000
 Atom AN      X      Y      Z        X      Y      Z        X      Y      Z
   1   1     0.16  -0.13  -0.09     0.07  -0.04  -0.06     0.02  -0.01  -0.01
   2   6     0.31  -0.09  -0.15     0.05  -0.05  -0.04    -0.01  -0.10  -0.20
   3   8     0.05   0.06   0.13     0.03   0.01   0.03    -0.09  -0.03  -0.06
   4   1    -0.00   0.06  -0.02     0.27  -0.50   0.37     0.01  -0.04   0.02
   5   6    -0.04  -0.03  -0.02    -0.24   0.24   0.06    -0.02   0.03  -0.01
   6   6    -0.00   0.02  -0.05    -0.04   0.06  -0.04     0.02  -0.02  -0.01
   7   1    -0.07   0.08   0.03     0.41  -0.38  -0.26     0.03  -0.02  -0.01
   8   1    -0.65   0.07   0.18    -0.10  -0.02  -0.02     0.16   0.57   0.35
   9   1    -0.54   0.01   0.14     0.01   0.01  -0.06     0.20  -0.07   0.65
                     16                     17                     18
                        a                      a                      a 
 Frequencies --  1658.8128              2147.5012              2370.4235
 Red. masses --    10.8692                 1.7432                 1.3495
 Frc consts  --     0.0000                 0.0000                 0.0000
 IR Inten    --    71.0774               608.3126               460.5713
 Raman Activ --     0.0000                 0.0000                 0.0000
 Depolar     --     0.0000                 0.0000                 0.0000
 Atom AN      X      Y      Z        X      Y      Z        X      Y      Z
   1   1     0.07  -0.00  -0.12    -0.00   0.00   0.02    -0.00   0.00   0.01
   2   6    -0.01  -0.07  -0.02     0.04  -0.23   0.08    -0.03  -0.03   0.13
   3   8     0.03   0.01   0.02    -0.04  -0.02  -0.01     0.08   0.02   0.04
   4   1    -0.01   0.08  -0.15    -0.00   0.00   0.01     0.01   0.01  -0.01
   5   6    -0.44   0.52   0.03     0.03  -0.05   0.00    -0.00  -0.01   0.02
   6   6     0.41  -0.51   0.03    -0.01   0.01  -0.01    -0.01   0.01  -0.00
   7   1    -0.11   0.07   0.16    -0.01   0.00   0.00    -0.01  -0.00   0.01
   8   1    -0.03   0.01  -0.03    -0.07   0.14  -0.43    -0.15   0.48  -0.70
   9   1     0.09   0.04  -0.06     0.05   0.83   0.19    -0.03  -0.47  -0.00
                     19                     20                     21
                        a                      a                      a 
 Frequencies --  2965.8846              3006.9341              3058.4568
 Red. masses --     1.7247                 1.8454                 1.7825
 Frc consts  --     0.0000                 0.0000                 0.0000
 IR Inten    --   156.1367               149.1872               111.7738
 Raman Activ --     0.0000                 0.0000                 0.0000
 Depolar     --     0.0000                 0.0000                 0.0000
 Atom AN      X      Y      Z        X      Y      Z        X      Y      Z
   1   1     0.03  -0.14   0.23    -0.09   0.46  -0.80     0.00  -0.02   0.03
   2   6     0.01   0.00  -0.01     0.01  -0.01   0.01     0.00   0.00  -0.00
   3   8    -0.00  -0.00  -0.00    -0.00  -0.00  -0.00    -0.00  -0.00  -0.00
   4   1     0.51  -0.29  -0.72     0.14  -0.08  -0.21    -0.01   0.03  -0.02
   5   6    -0.01   0.04  -0.05     0.03  -0.14   0.22     0.01   0.00  -0.02
   6   6    -0.14   0.08   0.19    -0.05   0.04   0.05    -0.03   0.14  -0.22
   7   1    -0.02   0.02   0.03     0.00  -0.02   0.04     0.08  -0.50   0.82
   8   1     0.00  -0.00   0.00    -0.00   0.00  -0.00    -0.00  -0.00   0.01
   9   1    -0.00   0.01   0.00    -0.00   0.01   0.00     0.00  -0.00   0.00
