9
 energy: -13.146093969959 gnorm: 0.050583962253 xtb: 6.7.1 (edcfbbe)
H           -5.14562153509839       -2.52278020133592       -0.89995796475081
C           -4.20511022772094       -2.40139104233660       -2.89773986918889
O           -2.92510388047487       -2.22512117620631       -2.45152126743565
H           -6.79352111457673       -0.70218222987493       -1.17278389402067
C           -5.22876966379146       -1.98995818712381       -1.85747680596197
C           -6.12219974556513       -0.99687697148897       -1.98407811706733
H           -6.20717251114880       -0.43697991749469       -2.92178544193582
H           -4.46347057616158       -1.82268259893626       -3.83597802177202
H           -4.45673997227424       -3.47404075683771       -3.17623072252412
9
 energy: -13.148474023548 gnorm: 0.022924150470 xtb: 6.7.1 (edcfbbe)
H           -5.14435407826931       -2.51168891058651       -0.91112838655506
C           -4.21568755341897       -2.39722488129898       -2.90363986924068
O           -2.97573834157987       -2.21742355209266       -2.43155505960293
H           -6.74919544331249       -0.67711319520440       -1.16098461749572
C           -5.25080208276629       -2.00566092557195       -1.87021059670377
C           -6.12234792662936       -1.01124542752948       -1.98445241305764
H           -6.22160889612455       -0.45905140122982       -2.91110512293250
H           -4.43334772791688       -1.80998278698212       -3.84887688711270
H           -4.43462717679441       -3.48262200113928       -3.17559915195629
9
 energy: -13.148935624454 gnorm: 0.008093000884 xtb: 6.7.1 (edcfbbe)
H           -5.14606081303301       -2.51539335485231       -0.92241140673993
C           -4.21332332257204       -2.40253560237305       -2.90089771113976
O           -3.00111040650408       -2.20499519935935       -2.41626801901150
H           -6.73483345786998       -0.66444892121732       -1.15903916678238
C           -5.25401126858862       -2.00662894015727       -1.87331534726880
C           -6.10901258261340       -1.00054701807705       -1.97785413452761
H           -6.23772696863110       -0.46929977672364       -2.90854592260387
H           -4.43151277742570       -1.81545814806263       -3.84795412845373
H           -4.42011762957420       -3.49270612081257       -3.19126626812971
9
 energy: -13.149056541800 gnorm: 0.004481371448 xtb: 6.7.1 (edcfbbe)
H           -5.14423204676713       -2.52094692856580       -0.92873177998650
C           -4.21010743749127       -2.40438637395554       -2.90182147399321
O           -3.01734279176360       -2.17975253994557       -2.39635707904180
H           -6.71161216448168       -0.64328799245169       -1.14772386493930
C           -5.26930524319772       -2.02295642822686       -1.88353491760397
C           -6.11909489325451       -1.01048265022779       -1.98277761973043
H           -6.23477353888651       -0.46007433768825       -2.90285252283396
H           -4.43748180195073       -1.82749502495971       -3.85736580346266
H           -4.40375930901898       -3.50263080561400       -3.19638704306547
9
 energy: -13.149107787025 gnorm: 0.001321825597 xtb: 6.7.1 (edcfbbe)
H           -5.14823525633820       -2.52681699201148       -0.93037861348325
C           -4.20964864683076       -2.40362775665256       -2.90401433682252
O           -3.01772302456451       -2.17549303495799       -2.39589263398701
H           -6.71548845903003       -0.64890352259207       -1.14807975359934
C           -5.26694338642864       -2.02052503779551       -1.88284484568174
C           -6.11263348180238       -1.00260417917281       -1.97876158269756
H           -6.23484481625138       -0.45643513386310       -2.90304399798522
H           -4.43955254074535       -1.83216293715852       -3.86446157921842
H           -4.40263961482089       -3.50544448743116       -3.19007476118222
9
 energy: -13.149126352899 gnorm: 0.001289840428 xtb: 6.7.1 (edcfbbe)
H           -5.15861903727845       -2.53588320328617       -0.93352552288332
C           -4.21067171384511       -2.40492761968841       -2.90377810034614
O           -3.01920047668573       -2.16000178858320       -2.40133204680701
H           -6.71570143850527       -0.64989115200011       -1.14678275613371
C           -5.26849083286634       -2.02067909121769       -1.88309950583869
C           -6.11073530213382       -0.99946633540431       -1.97743418138368
H           -6.22526329270933       -0.44651874228180       -2.89978870667461
H           -4.44744885104546       -1.84288452803829       -3.86895868314805
H           -4.39157828174262       -3.51176062113523       -3.18285260144209
9
 energy: -13.149140156243 gnorm: 0.001292618919 xtb: 6.7.1 (edcfbbe)
H           -5.16848829736216       -2.54553820116843       -0.93841486682320
C           -4.21157854794886       -2.40460392507778       -2.90420612771329
O           -3.02320711635360       -2.14401099381215       -2.40253933559116
H           -6.70964876113607       -0.64645272738335       -1.14358046016812
C           -5.27259408590689       -2.02483399477649       -1.88602473080024
C           -6.10811385233189       -0.99788431822515       -1.97669457884581
H           -6.21847388613717       -0.44168404916481       -2.89757864820642
H           -4.45408244247819       -1.85161471265856       -3.87381152480343
H           -4.38152223715729       -3.51539015936847       -3.17470183170562
9
 energy: -13.149151176984 gnorm: 0.001260303053 xtb: 6.7.1 (edcfbbe)
H           -5.17743738630281       -2.55383862993745       -0.94322220969720
C           -4.21458952939454       -2.40562884348533       -2.90571378260862
O           -3.03104982260442       -2.12274537805139       -2.40442206120450
H           -6.70669964016311       -0.64658336783958       -1.14284340632089
C           -5.27769690783683       -2.03043029120696       -1.88979326680371
C           -6.10462716431830       -0.99642512329965       -1.97566867269587
H           -6.20408205221144       -0.43058901317483       -2.89090760814731
H           -4.46403957536440       -1.86520574636765       -3.88043476370460
H           -4.36748714861628       -3.52056668827235       -3.16454633347461
9
 energy: -13.149156004460 gnorm: 0.000770536122 xtb: 6.7.1 (edcfbbe)
H           -5.18499090050138       -2.56129883748347       -0.94766184907286
C           -4.21610101289644       -2.40652914864668       -2.90670280135540
O           -3.03540790495323       -2.11111483784757       -2.40388734103568
H           -6.70124019173000       -0.64231825400812       -1.13989170646502
C           -5.27980685024531       -2.03277889169872       -1.89166396266444
C           -6.10269930848695       -0.99486060832725       -1.97474549751080
H           -6.20146348589394       -0.42770886901547       -2.88906804680497
H           -4.46779169236662       -1.87282749372122       -3.88371683231794
H           -4.35820787973826       -3.52257614088669       -3.16021406743017
