 Entering Gaussian System
 *********************************************
 Gaussian 98:
 frequency output generated by the xtb code
 *********************************************
                         Standard orientation:
 --------------------------------------------------------------------
  Center     Atomic     Atomic              Coordinates (Angstroms)
  Number     Number      Type              X           Y           Z
 --------------------------------------------------------------------
    1          6             0       -3.846601   -4.072911    1.872986
    2          6             0       -2.850231   -3.102773    2.590769
    3          1             0       -3.527983   -4.208861    0.841436
    4          1             0       -3.817541   -5.041285    2.368478
    5          1             0       -4.861360   -3.680702    1.894312
    6          6             0       -3.393394   -2.903126    4.044829
    7          1             0       -4.415644   -2.530409    4.034982
    8          6             0       -2.981872   -1.718506    1.872724
    9          1             0       -3.355466   -3.854793    4.571140
   10          1             0       -2.751484   -2.198346    4.569561
   11          8             0       -1.580424   -3.569228    2.577055
   12          1             0       -4.008604   -1.358994    1.897313
   13          1             0       -2.330220   -0.999981    2.365851
   14          1             0       -2.654523   -1.821953    0.840137
 --------------------------------------------------------------------
     1 basis functions        1 primitive gaussians
     1 alpha electrons        1 beta electrons
 
 Harmonic frequencies (cm**-1), IR intensities (km*mol⁻¹),
 Raman scattering activities (A**4/amu), Raman depolarization ratios,
 reduced masses (AMU), force constants (mDyne/A) and normal coordinates:
                      1                      2                      3
                        a                      a                      a 
 Frequencies --   148.5138               223.1460               223.9909
 Red. masses --     1.0847                 1.4535                 1.4548
 Frc consts  --     0.0000                 0.0000                 0.0000
 IR Inten    --     0.0002                 0.7032                 0.7238
 Raman Activ --     0.0000                 0.0000                 0.0000
 Depolar     --     0.0000                 0.0000                 0.0000
 Atom AN      X      Y      Z        X      Y      Z        X      Y      Z
   1   6     0.01   0.02  -0.04     0.02   0.01  -0.04    -0.07   0.06   0.01
   2   6    -0.00  -0.00   0.00     0.00   0.00  -0.01     0.00   0.01   0.00
   3   1     0.21  -0.24   0.08    -0.26   0.35  -0.14    -0.07   0.07  -0.02
   4   1    -0.25   0.10   0.18     0.35  -0.13  -0.28     0.02  -0.00  -0.04
   5   1     0.06   0.17  -0.31    -0.07  -0.21   0.38    -0.03  -0.00   0.07
   6   6    -0.02  -0.05   0.00    -0.08   0.04  -0.03     0.04   0.02   0.01
   7   1    -0.12  -0.33   0.00    -0.08  -0.15  -0.02    -0.14  -0.40   0.01
   8   6     0.01   0.02   0.04     0.07  -0.01  -0.04     0.07   0.01   0.02
   9   1     0.30   0.05   0.08     0.13   0.05   0.04     0.42   0.09   0.13
  10   1    -0.20   0.23  -0.08    -0.13   0.14  -0.05    -0.24   0.33  -0.12
  11   8    -0.00   0.00  -0.00    -0.02  -0.04   0.12    -0.04  -0.11  -0.05
  12   1     0.06   0.16   0.31     0.08   0.14   0.24    -0.04  -0.16  -0.31
  13   1     0.25  -0.09  -0.18     0.24  -0.09  -0.18    -0.25   0.10   0.22
  14   1    -0.31  -0.05  -0.08    -0.25  -0.07  -0.09     0.36   0.07   0.11
                      4                      5                      6
                        a                      a                      a 
 Frequencies --   329.0674               329.2657               418.9515
 Red. masses --     8.8747                 8.8774                 8.3787
 Frc consts  --     0.0000                 0.0000                 0.0000
 IR Inten    --     8.1455                 8.1510                 7.6122
 Raman Activ --     0.0000                 0.0000                 0.0000
 Depolar     --     0.0000                 0.0000                 0.0000
 Atom AN      X      Y      Z        X      Y      Z        X      Y      Z
   1   6    -0.17  -0.08   0.39    -0.17   0.32  -0.09     0.11  -0.25  -0.12
   2   6     0.02   0.07  -0.05     0.02   0.04   0.07    -0.36   0.13   0.00
   3   1    -0.17  -0.13   0.09    -0.08   0.13  -0.04     0.16  -0.05   0.00
   4   1    -0.01   0.02   0.20    -0.16   0.05  -0.09     0.16  -0.05  -0.00
   5   1    -0.04  -0.00   0.19    -0.01   0.20   0.01    -0.04  -0.24  -0.14
   6   6    -0.28  -0.29  -0.10     0.15  -0.32   0.15     0.18  -0.06   0.23
   7   1    -0.10  -0.14  -0.10     0.03  -0.13   0.15     0.05  -0.02   0.27
   8   6     0.34   0.06  -0.07    -0.06  -0.21  -0.39     0.24   0.12  -0.12
   9   1    -0.09  -0.13  -0.11     0.11  -0.15  -0.06     0.16  -0.05  -0.01
  10   1    -0.17  -0.10   0.10     0.06  -0.13   0.08     0.16  -0.06  -0.01
  11   8     0.12   0.32  -0.23     0.08   0.21   0.34    -0.41   0.15   0.00
  12   1     0.13   0.12  -0.08    -0.03  -0.08  -0.17     0.13   0.21  -0.14
  13   1     0.15  -0.05   0.01    -0.04   0.03  -0.22     0.15  -0.06  -0.00
  14   1     0.15  -0.03   0.00    -0.01  -0.21  -0.10     0.16  -0.06   0.00
                      7                      8                      9
                        a                      a                      a 
 Frequencies --   469.3199               469.3586               744.6604
 Red. masses --     9.8799                 9.8784                 9.7525
 Frc consts  --     0.0000                 0.0000                 0.0000
 IR Inten    --    17.6567                17.6295                 5.3350
 Raman Activ --     0.0000                 0.0000                 0.0000
 Depolar     --     0.0000                 0.0000                 0.0000
 Atom AN      X      Y      Z        X      Y      Z        X      Y      Z
   1   6    -0.21  -0.09  -0.23    -0.27  -0.21  -0.04     0.24   0.34   0.23
   2   6    -0.11  -0.30   0.10    -0.04  -0.09  -0.32    -0.24   0.09   0.00
   3   1    -0.05   0.08  -0.07    -0.21  -0.16  -0.04     0.14   0.10   0.08
   4   1    -0.18  -0.09  -0.18    -0.09  -0.02   0.08     0.14   0.10   0.08
   5   1    -0.02   0.08  -0.06    -0.05   0.01   0.08     0.04   0.02   0.02
   6   6    -0.01   0.18   0.11     0.23  -0.03  -0.36     0.09  -0.03  -0.46
   7   1     0.02   0.11  -0.01     0.07   0.01   0.04     0.02  -0.01  -0.04
   8   6     0.13  -0.36   0.21     0.00   0.16   0.10    -0.04  -0.41   0.23
   9   1    -0.04   0.14   0.19     0.14  -0.01  -0.10     0.08  -0.03  -0.17
  10   1     0.04   0.11  -0.10     0.16  -0.02  -0.19     0.08  -0.03  -0.17
  11   8     0.17   0.46  -0.15     0.06   0.14   0.49    -0.19   0.07   0.00
  12   1     0.08   0.02  -0.00     0.00   0.05   0.10     0.01  -0.04   0.02
  13   1     0.10  -0.19   0.11    -0.00  -0.04   0.16     0.04  -0.17   0.08
  14   1     0.10  -0.12   0.08     0.00   0.23   0.01     0.04  -0.17   0.08
                     10                     11                     12
                        a                      a                      a 
 Frequencies --   858.7447               858.8447               910.4328
 Red. masses --     6.8999                 6.8999                 2.7680
 Frc consts  --     0.0000                 0.0000                 0.0000
 IR Inten    --    17.6305                17.5455                 0.0004
 Raman Activ --     0.0000                 0.0000                 0.0000
 Depolar     --     0.0000                 0.0000                 0.0000
 Atom AN      X      Y      Z        X      Y      Z        X      Y      Z
   1   6    -0.24  -0.16   0.04     0.29   0.08   0.22     0.04   0.11  -0.20
   2   6     0.02   0.04   0.44    -0.15  -0.42   0.05     0.00   0.00   0.00
   3   1     0.16   0.14   0.05     0.04   0.15   0.03    -0.22  -0.28  -0.08
   4   1    -0.07  -0.13  -0.15    -0.13  -0.06  -0.09     0.18   0.19   0.25
   5   1    -0.11  -0.14  -0.16     0.17   0.25   0.13    -0.02  -0.06   0.10
   6   6     0.28  -0.08  -0.32    -0.03  -0.18  -0.03    -0.08  -0.22  -0.00
   7   1     0.07  -0.03  -0.39     0.03   0.06  -0.04     0.04   0.11   0.00
   8   6    -0.04   0.23   0.08    -0.18   0.30  -0.21     0.04   0.11   0.20
   9   1    -0.06   0.00  -0.04    -0.05   0.09   0.24    -0.06   0.13   0.33
  10   1    -0.07   0.03   0.01     0.08   0.04  -0.24     0.13   0.06  -0.34
  11   8     0.00   0.00   0.03    -0.01  -0.02   0.00     0.00  -0.00  -0.00
  12   1     0.00   0.12  -0.13     0.04   0.33  -0.16    -0.02  -0.05  -0.10
  13   1     0.02   0.16  -0.17     0.06  -0.10   0.05    -0.02   0.26  -0.25
  14   1     0.02  -0.23   0.06     0.07   0.09  -0.02    -0.02  -0.36   0.08
                     13                     14                     15
                        a                      a                      a 
 Frequencies --   985.7678               996.1797               996.3357
 Red. masses --     9.9250                 4.1350                 4.1343
 Frc consts  --     0.0000                 0.0000                 0.0000
 IR Inten    --   114.0901                 4.5174                 4.6525
 Raman Activ --     0.0000                 0.0000                 0.0000
 Depolar     --     0.0000                 0.0000                 0.0000
 Atom AN      X      Y      Z        X      Y      Z        X      Y      Z
   1   6    -0.19   0.09   0.01    -0.16   0.09   0.21     0.13  -0.26   0.04
   2   6    -0.25   0.09   0.00    -0.05  -0.14   0.05     0.02   0.05   0.15
   3   1     0.11   0.03   0.05     0.27   0.20   0.12    -0.08   0.06  -0.04
   4   1     0.12   0.04   0.03     0.06  -0.04  -0.08    -0.27  -0.16  -0.16
   5   1    -0.14  -0.21  -0.14    -0.13  -0.19  -0.19     0.17   0.27   0.12
   6   6    -0.20   0.07  -0.02    -0.16  -0.15  -0.07    -0.22   0.16  -0.19
   7   1    -0.05   0.02   0.28    -0.00   0.07   0.15    -0.08   0.00   0.41
   8   6    -0.20   0.05   0.01     0.31   0.05  -0.13     0.10   0.11   0.16
   9   1     0.10  -0.02  -0.08     0.02   0.06   0.15     0.19  -0.07  -0.26
  10   1     0.09  -0.05  -0.08     0.14  -0.00  -0.29     0.13  -0.09  -0.10
  11   8     0.63  -0.23  -0.01     0.03   0.09  -0.03    -0.01  -0.03  -0.10
  12   1     0.03   0.25  -0.14    -0.05  -0.37   0.22    -0.02  -0.10  -0.02
  13   1     0.07  -0.11   0.03    -0.12   0.20  -0.04    -0.04   0.23  -0.18
  14   1     0.07  -0.09   0.05    -0.13   0.25  -0.12    -0.03  -0.20   0.05
                     16                     17                     18
                        a                      a                      a 
 Frequencies --  1148.7894              1148.8621              1187.9920
 Red. masses --     8.2538                 8.2529                 9.6556
 Frc consts  --     0.0000                 0.0000                 0.0000
 IR Inten    --   123.9390               124.1689               297.2667
 Raman Activ --     0.0000                 0.0000                 0.0000
 Depolar     --     0.0000                 0.0000                 0.0000
 Atom AN      X      Y      Z        X      Y      Z        X      Y      Z
   1   6     0.03   0.05  -0.25     0.03   0.19  -0.03    -0.14   0.11   0.03
   2   6    -0.01  -0.04   0.70    -0.24  -0.65  -0.04     0.69  -0.26  -0.01
   3   1    -0.19  -0.23  -0.09     0.02  -0.07   0.01     0.11   0.00   0.05
   4   1     0.08   0.13   0.17     0.16   0.12   0.13     0.12   0.03   0.01
   5   1    -0.01  -0.03   0.11    -0.03  -0.07   0.02    -0.11  -0.17  -0.11
   6   6    -0.03   0.03  -0.16     0.10   0.26   0.01    -0.16   0.06  -0.06
   7   1    -0.01  -0.01   0.06    -0.04  -0.12  -0.00    -0.04   0.01   0.23
   8   6     0.00  -0.04  -0.25     0.10   0.17   0.07    -0.18   0.01   0.03
   9   1     0.08  -0.03  -0.11     0.03  -0.10  -0.27     0.10  -0.01  -0.06
  10   1     0.07  -0.03  -0.07    -0.10  -0.05   0.29     0.08  -0.06  -0.06
  11   8     0.00   0.01  -0.09     0.03   0.09   0.01    -0.30   0.11   0.00
  12   1     0.01   0.02   0.11    -0.02  -0.08  -0.04     0.03   0.20  -0.11
  13   1    -0.03  -0.12   0.15    -0.04   0.21  -0.15     0.07  -0.10   0.01
  14   1    -0.00   0.30  -0.09    -0.06  -0.08  -0.00     0.08  -0.07   0.05
                     19                     20                     21
                        a                      a                      a 
 Frequencies --  1348.3904              1348.4589              1374.1167
 Red. masses --     3.1091                 3.1095                 3.1035
 Frc consts  --     0.0000                 0.0000                 0.0000
 IR Inten    --     0.5102                 0.5339                 1.3290
 Raman Activ --     0.0000                 0.0000                 0.0000
 Depolar     --     0.0000                 0.0000                 0.0000
 Atom AN      X      Y      Z        X      Y      Z        X      Y      Z
   1   6    -0.22  -0.21  -0.15     0.07   0.06   0.06     0.17   0.14   0.11
   2   6     0.01   0.03   0.01     0.00   0.01  -0.03    -0.03   0.01   0.00
   3   1     0.32   0.24   0.06    -0.11  -0.07  -0.02    -0.24  -0.17  -0.05
   4   1     0.28   0.13   0.25    -0.08  -0.05  -0.08    -0.22  -0.10  -0.18
   5   1     0.13   0.34   0.20    -0.04  -0.10  -0.08    -0.09  -0.25  -0.15
   6   6     0.02  -0.03  -0.07    -0.13   0.04   0.32     0.10  -0.04  -0.23
   7   1     0.01   0.02   0.09     0.00   0.00  -0.42     0.00   0.00   0.30
   8   6     0.02  -0.24   0.11     0.03  -0.21   0.12     0.04  -0.22   0.11
   9   1    -0.03   0.04   0.07     0.17  -0.18  -0.33    -0.13   0.13   0.24
  10   1    -0.06  -0.00   0.07     0.24   0.03  -0.33    -0.18  -0.01   0.24
  11   8    -0.00  -0.00  -0.00    -0.00  -0.00   0.00    -0.01   0.00   0.00
  12   1     0.09   0.27  -0.15     0.08   0.23  -0.16     0.09   0.25  -0.15
  13   1    -0.11   0.22  -0.19    -0.09   0.20  -0.18    -0.10   0.21  -0.18
  14   1    -0.06   0.30  -0.05    -0.07   0.27  -0.05    -0.07   0.29  -0.05
                     22                     23                     24
                        a                      a                      a 
 Frequencies --  1476.2876              1489.2668              1489.4572
 Red. masses --     1.6666                 1.6045                 1.6045
 Frc consts  --     0.0000                 0.0000                 0.0000
 IR Inten    --     0.0012                 4.6146                 4.7050
 Raman Activ --     0.0000                 0.0000                 0.0000
 Depolar     --     0.0000                 0.0000                 0.0000
 Atom AN      X      Y      Z        X      Y      Z        X      Y      Z
   1   6    -0.02  -0.07   0.12    -0.03  -0.09   0.15    -0.01   0.02   0.02
   2   6    -0.00  -0.00   0.00    -0.01  -0.03   0.05    -0.02  -0.05  -0.03
   3   1    -0.25   0.06  -0.08    -0.35   0.08  -0.11    -0.01  -0.06   0.01
   4   1     0.27  -0.01  -0.02     0.37  -0.00  -0.01     0.06  -0.03  -0.06
   5   1     0.07   0.20  -0.37     0.09   0.27  -0.50     0.01   0.03  -0.03
   6   6     0.05   0.13  -0.00    -0.04  -0.07  -0.02    -0.05  -0.16   0.01
   7   1    -0.14  -0.39   0.00     0.09   0.24  -0.01     0.18   0.50   0.00
   8   6    -0.03  -0.07  -0.12     0.04   0.06   0.08    -0.02  -0.06  -0.14
   9   1    -0.25   0.03   0.06     0.20  -0.00  -0.01     0.30  -0.06  -0.11
  10   1     0.21  -0.14  -0.06    -0.12   0.04   0.08    -0.28   0.19   0.08
  11   8    -0.00   0.00  -0.00     0.00   0.00  -0.00     0.00   0.00   0.00
  12   1     0.08   0.19   0.36    -0.06  -0.15  -0.29     0.09   0.23   0.42
  13   1    -0.20   0.16   0.02     0.13  -0.14   0.03    -0.26   0.20   0.04
  14   1     0.23  -0.11   0.07    -0.22   0.06  -0.07     0.23  -0.16   0.08
                     25                     26                     27
                        a                      a                      a 
 Frequencies --  1508.7035              1508.7506              1523.5975
 Red. masses --     1.6481                 1.6481                 1.5951
 Frc consts  --     0.0000                 0.0000                 0.0000
 IR Inten    --     0.0003                 0.0010                 5.1315
 Raman Activ --     0.0000                 0.0000                 0.0000
 Depolar     --     0.0000                 0.0000                 0.0000
 Atom AN      X      Y      Z        X      Y      Z        X      Y      Z
   1   6    -0.08   0.08   0.01    -0.12   0.09   0.04     0.09  -0.09  -0.03
   2   6     0.01   0.02  -0.01     0.00   0.01   0.02     0.06  -0.02  -0.00
   3   1     0.14  -0.29   0.08     0.12  -0.39   0.09    -0.12   0.35  -0.08
   4   1     0.13  -0.12  -0.24     0.25  -0.16  -0.33    -0.19   0.14   0.29
   5   1     0.03   0.09   0.12     0.06   0.17   0.06    -0.05  -0.14  -0.09
   6   6    -0.06   0.04  -0.03     0.16  -0.05   0.07     0.11  -0.04   0.06
   7   1    -0.02  -0.06  -0.09    -0.00  -0.03   0.22     0.00  -0.00   0.18
   8   6     0.19   0.00  -0.04    -0.02   0.01   0.02     0.12   0.01  -0.03
   9   1     0.13   0.08   0.12    -0.40  -0.15  -0.24    -0.29  -0.13  -0.20
  10   1     0.12  -0.18   0.10    -0.18   0.36  -0.26    -0.14   0.29  -0.20
  11   8    -0.00  -0.00   0.00    -0.00  -0.00  -0.00    -0.01   0.00   0.00
  12   1     0.07   0.19  -0.12    -0.02  -0.05  -0.05     0.05   0.14  -0.09
  13   1    -0.33   0.03   0.41     0.07  -0.03  -0.05    -0.23   0.01   0.29
  14   1    -0.45  -0.25  -0.12     0.02   0.05   0.00    -0.31  -0.19  -0.08
                     28                     29                     30
                        a                      a                      a 
 Frequencies --  2981.1880              2981.2663              2990.2457
 Red. masses --     1.7494                 1.7499                 1.7586
 Frc consts  --     0.0000                 0.0000                 0.0000
 IR Inten    --     0.4685                 0.4344               412.1838
 Raman Activ --     0.0000                 0.0000                 0.0000
 Depolar     --     0.0000                 0.0000                 0.0000
 Atom AN      X      Y      Z        X      Y      Z        X      Y      Z
   1   6     0.19  -0.09  -0.01     0.04  -0.01  -0.01    -0.13   0.07   0.01
   2   6    -0.00  -0.00  -0.00     0.00   0.00  -0.00    -0.02   0.01   0.00
   3   1     0.02  -0.01   0.03    -0.01   0.00   0.04    -0.01   0.01  -0.04
   4   1     0.03   0.02  -0.02     0.01  -0.03   0.01    -0.02  -0.03   0.03
   5   1    -0.72   0.30   0.03    -0.13   0.05   0.00     0.50  -0.21  -0.02
   6   6    -0.07   0.01  -0.01    -0.18   0.07  -0.02    -0.14   0.05  -0.02
   7   1     0.24  -0.09   0.01     0.69  -0.25   0.03     0.52  -0.19   0.02
   8   6    -0.13   0.03  -0.00     0.15  -0.05  -0.02    -0.15   0.04   0.01
   9   1    -0.01   0.02  -0.01    -0.03  -0.03   0.02    -0.02  -0.04   0.02
  10   1     0.02   0.03   0.02    -0.01   0.03   0.01     0.01   0.04   0.02
  11   8     0.00   0.00   0.00    -0.00  -0.00   0.00    -0.00   0.00   0.00
  12   1     0.47  -0.15  -0.02    -0.57   0.18   0.02     0.53  -0.17  -0.02
  13   1     0.01   0.04   0.02     0.02  -0.01  -0.01     0.00   0.04   0.03
  14   1    -0.02   0.00   0.00     0.01  -0.00   0.05    -0.01  -0.00  -0.05
                     31                     32                     33
                        a                      a                      a 
 Frequencies --  2997.7247              3004.9332              3004.9545
 Red. masses --     1.9618                 1.9194                 1.9192
 Frc consts  --     0.0000                 0.0000                 0.0000
 IR Inten    --     0.0066               212.5711               214.0745
 Raman Activ --     0.0000                 0.0000                 0.0000
 Depolar     --     0.0000                 0.0000                 0.0000
 Atom AN      X      Y      Z        X      Y      Z        X      Y      Z
   1   6     0.03   0.08  -0.15     0.01   0.07  -0.12     0.04   0.09  -0.16
   2   6     0.00  -0.00  -0.00    -0.00  -0.00  -0.01     0.00   0.01  -0.00
   3   1    -0.12   0.06   0.36    -0.10   0.05   0.30    -0.14   0.07   0.41
   4   1     0.02  -0.35   0.17     0.02  -0.29   0.14     0.03  -0.41   0.20
   5   1     0.00   0.01  -0.02     0.04  -0.00  -0.02    -0.02   0.03  -0.03
   6   6    -0.06  -0.16  -0.00    -0.02  -0.09   0.00     0.08   0.20   0.00
   7   1    -0.01  -0.03  -0.00    -0.05  -0.00  -0.00    -0.01   0.04  -0.00
   8   6     0.03   0.08   0.15    -0.04  -0.11  -0.20    -0.00   0.02   0.02
   9   1    -0.03   0.34  -0.19    -0.01   0.19  -0.11     0.04  -0.43   0.25
  10   1     0.24   0.24   0.19     0.14   0.14   0.11    -0.31  -0.31  -0.25
  11   8    -0.00   0.00   0.00     0.00   0.00   0.00    -0.00  -0.00   0.00
  12   1     0.00   0.01   0.02    -0.00  -0.02  -0.04     0.05  -0.01   0.00
  13   1    -0.24  -0.25  -0.17     0.35   0.36   0.24    -0.04  -0.04  -0.03
  14   1     0.13  -0.04  -0.36    -0.18   0.05   0.51     0.02  -0.00  -0.05
                     34                     35                     36
                        a                      a                      a 
 Frequencies --  3014.5568              3014.6702              3019.5695
 Red. masses --     1.4233                 1.4238                 1.3837
 Frc consts  --     0.0000                 0.0000                 0.0000
 IR Inten    --   101.4595                97.6462                37.0236
 Raman Activ --     0.0000                 0.0000                 0.0000
 Depolar     --     0.0000                 0.0000                 0.0000
 Atom AN      X      Y      Z        X      Y      Z        X      Y      Z
   1   6     0.02  -0.07  -0.04     0.04  -0.11  -0.06     0.02  -0.09  -0.05
   2   6    -0.00  -0.00  -0.01    -0.00  -0.01   0.00     0.00  -0.00  -0.00
   3   1    -0.09   0.02   0.29    -0.15   0.04   0.46    -0.12   0.03   0.38
   4   1    -0.01   0.26  -0.15    -0.01   0.40  -0.24    -0.01   0.35  -0.20
   5   1     0.03  -0.02  -0.01     0.04  -0.03  -0.01     0.06  -0.04  -0.01
   6   6    -0.08   0.03  -0.13     0.00   0.00   0.01     0.05  -0.02   0.09
   7   1    -0.06   0.02  -0.02     0.00  -0.00   0.00     0.07  -0.03   0.02
   8   6     0.05   0.04  -0.03    -0.11  -0.07   0.06     0.08   0.06  -0.05
   9   1     0.01  -0.51   0.25    -0.00   0.02  -0.01    -0.01   0.36  -0.17
  10   1     0.33   0.38   0.24    -0.02  -0.02  -0.02    -0.23  -0.26  -0.17
  11   8     0.00   0.00   0.00     0.00   0.00  -0.00    -0.00   0.00   0.00
  12   1     0.03  -0.00  -0.01    -0.06   0.00   0.01     0.07  -0.01  -0.01
  13   1    -0.15  -0.17  -0.13     0.29   0.32   0.25    -0.23  -0.25  -0.20
  14   1    -0.07   0.04   0.24     0.14  -0.07  -0.48    -0.11   0.06   0.38
