14
 energy: -17.474818340075 gnorm: 0.078668555463 xtb: 6.7.1 (edcfbbe)
C           -3.82563200000000       -4.08455000000000        1.87048300000000
C           -2.91581900000000       -3.07877600000000        2.59166700000000
H           -3.52794600000000       -4.23249600000000        0.82385500000000
H           -3.81683900000000       -5.06966800000000        2.35556700000000
H           -4.86509600000000       -3.73446000000000        1.86567100000000
C           -3.37168700000000       -2.91131000000000        4.04891000000000
H           -4.40204600000000       -2.53776000000000        4.09331600000000
C           -2.95795900000000       -1.72324700000000        1.87042400000000
H           -3.34632300000000       -3.86051200000000        4.60042700000000
H           -2.74342100000000       -2.19703400000000        4.59754700000000
O           -1.67690500000000       -3.53392900000000        2.57848600000000
H           -3.97597100000000       -1.31476100000000        1.86975900000000
H           -2.30981500000000       -0.97944700000000        2.35265000000000
H           -2.63979600000000       -1.80422100000000        0.82257200000000
14
 energy: -17.482301379874 gnorm: 0.020439275843 xtb: 6.7.1 (edcfbbe)
C           -3.84478824103665       -4.06516418210791        1.87739668891180
C           -2.85140803720840       -3.10243476128714        2.59095687194832
H           -3.52204673011101       -4.20733121170024        0.84391957366515
H           -3.80973140365835       -5.04003129908054        2.36811142483452
H           -4.88078042581683       -3.70641280602399        1.87779937991803
C           -3.39493468514603       -2.90271199223417        4.03578373285485
H           -4.42511435375498       -2.52906856831604        4.06954828491679
C           -2.98517999384662       -1.72561339000033        1.87733594054259
H           -3.34845324006731       -3.85508694328697        4.56794863672938
H           -2.74826399218888       -2.20004072385491        4.56542141734373
O           -1.58306853676366       -3.56842686235122        2.57750228314978
H           -4.00614341060309       -1.32605246493901        1.88182078803495
H           -2.32378017701677       -1.00666400382425        2.36524720234887
H           -2.65156177278143       -1.82713179099329        0.84254177480123
14
 energy: -17.482878466818 gnorm: 0.007420370586 xtb: 6.7.1 (edcfbbe)
C           -3.84530806639301       -4.07058617809667        1.87440535295614
C           -2.85216255766021       -3.10212196472257        2.59087221634822
H           -3.52612783145098       -4.20827510111368        0.84151351683887
H           -3.81471015263516       -5.04163580735994        2.36818900950298
H           -4.86769427554464       -3.68855286351436        1.88962632019984
C           -3.39341145556332       -2.90321803473939        4.04176919105602
H           -4.41936669236222       -2.53059171520046        4.04524781542242
C           -2.98216462290247       -1.72113685565114        1.87425497460248
H           -3.35270290954207       -3.85518114425509        4.57073036611142
H           -2.75080746725994       -2.19800545471073        4.56849514117087
O           -1.58204181066718       -3.56878926902578        2.57740368269675
H           -4.00790242777096       -1.34834805437207        1.89339736691250
H           -2.32689265340789       -1.00199436808052        2.36531482958613
H           -2.65396207683994       -1.82373418915762        0.84011421659536
14
 energy: -17.482946621967 gnorm: 0.001666375507 xtb: 6.7.1 (edcfbbe)
C           -3.84628260410749       -4.07275404008514        1.87304266613050
C           -2.85112772294303       -3.10248516397584        2.59082452651619
H           -3.52790762152018       -4.20867185582052        0.84130139258742
H           -3.81702730395352       -5.04146884550145        2.36808709654779
H           -4.86194728717696       -3.68150372090378        1.89405602721421
C           -3.39335266744515       -2.90319055744358        4.04454418349106
H           -4.41630212959433       -2.53094860251221        4.03578323615535
C           -2.98163891686011       -1.71885914514106        1.87285174288354
H           -3.35480708612285       -3.85467119187363        4.57136679382920
H           -2.75190958235040       -2.19795584378920        4.56945028776674
O           -1.58050460452140       -3.56929736079639        2.57723965603832
H           -4.00832395033840       -1.35772631329747        1.89750548185570
H           -2.32923704014310       -1.00040773549307        2.36532431078088
H           -2.65488648292310       -1.82223062336666        0.83995659820311
14
 energy: -17.482948628418 gnorm: 0.000746691391 xtb: 6.7.1 (edcfbbe)
C           -3.84658575587100       -4.07293435517730        1.87296512634458
C           -2.85022317863940       -3.10279245375571        2.59075295711615
H           -3.52796350683241       -4.20888017510119        0.84141619699867
H           -3.81752246506785       -5.04130856704998        2.36845601580678
H           -4.86134732609774       -3.68073005998916        1.89428843084215
C           -3.39339225228013       -2.90315093886622        4.04481190732406
H           -4.41564422320901       -2.53043898086529        4.03496141458817
C           -2.98186962327003       -1.71852441390476        1.87271042387385
H           -3.35546178137896       -3.85481862768408        4.57112080456429
H           -2.75148823543118       -2.19836795567907        4.56954671848049
O           -1.58041426884036       -3.56924085559484        2.57704270727864
H           -4.00860324515654       -1.35901781737206        1.89729671445953
H           -2.33022277425217       -0.99999745456262        2.36584045822083
H           -2.65451636367321       -1.82196834439772        0.84012412410180
