14
 energy: -17.482948628443 gnorm: 0.000748222977 xtb: 6.7.1 (edcfbbe)
C           -3.84660054370567       -4.07291094553276        1.87298566205907
C           -2.85023038128984       -3.10277300830521        2.59076832164663
H           -3.52798260727768       -4.20886023413043        0.84143585778976
H           -3.81754059369870       -5.04128444478004        2.36847814019931
H           -4.86135998590526       -3.68070129985563        1.89431182421695
C           -3.39339333396398       -2.90312611160710        4.04482881942103
H           -4.41564338774444       -2.53040881830522        4.03498124451267
C           -2.98187208436363       -1.71850553238370        1.87272383193908
H           -3.35546600880869       -3.85479308044126        4.57113924522839
H           -2.75148379522213       -2.19834557360684        4.56956015982740
O           -1.58042396168915       -3.56922808276980        2.57705445344600
H           -4.00860373803730       -1.35899351698107        1.89731307904364
H           -2.33021975181163       -0.99998112440216        2.36585033753957
H           -2.65452297081940       -1.82195297907694        0.84013657004017
