
                                 *****************
                                 * O   R   C   A *
                                 *****************

                                            #,                                       
                                            ###                                      
                                            ####                                     
                                            #####                                    
                                            ######                                   
                                           ########,                                 
                                     ,,################,,,,,                         
                               ,,#################################,,                 
                          ,,##########################################,,             
                       ,#########################################, ''#####,          
                    ,#############################################,,   '####,        
                  ,##################################################,,,,####,       
                ,###########''''           ''''###############################       
              ,#####''   ,,,,##########,,,,          '''####'''          '####       
            ,##' ,,,,###########################,,,                        '##       
           ' ,,###''''                  '''############,,,                           
         ,,##''                                '''############,,,,        ,,,,,,###''
      ,#''                                            '''#######################'''  
     '                                                          ''''####''''         
             ,#######,   #######,   ,#######,      ##                                
            ,#'     '#,  ##    ##  ,#'     '#,    #''#        ######   ,####,        
            ##       ##  ##   ,#'  ##            #'  '#       #        #'  '#        
            ##       ##  #######   ##           ,######,      #####,   #    #        
            '#,     ,#'  ##    ##  '#,     ,#' ,#      #,         ##   #,  ,#        
             '#######'   ##     ##  '#######'  #'      '#     #####' # '####'        



                  #######################################################
                  #                        -***-                        #
                  #          Department of theory and spectroscopy      #
                  #    Directorship and core code : Frank Neese         #
                  #        Max Planck Institute fuer Kohlenforschung    #
                  #                Kaiser Wilhelm Platz 1               #
                  #                 D-45470 Muelheim/Ruhr               #
                  #                      Germany                        #
                  #                                                     #
                  #                  All rights reserved                #
                  #                        -***-                        #
                  #######################################################


                         Program Version 5.0.4 -  RELEASE  -


 With contributions from (in alphabetic order):
   Daniel Aravena         : Magnetic Suceptibility
   Michael Atanasov       : Ab Initio Ligand Field Theory (pilot matlab implementation)
   Alexander A. Auer      : GIAO ZORA, VPT2 properties, NMR spectrum
   Ute Becker             : Parallelization
   Giovanni Bistoni       : ED, misc. LED, open-shell LED, HFLD
   Martin Brehm           : Molecular dynamics
   Dmytro Bykov           : SCF Hessian
   Vijay G. Chilkuri      : MRCI spin determinant printing, contributions to CSF-ICE
   Dipayan Datta          : RHF DLPNO-CCSD density
   Achintya Kumar Dutta   : EOM-CC, STEOM-CC
   Dmitry Ganyushin       : Spin-Orbit,Spin-Spin,Magnetic field MRCI
   Miquel Garcia          : C-PCM and meta-GGA Hessian, CC/C-PCM, Gaussian charge scheme
   Yang Guo               : DLPNO-NEVPT2, F12-NEVPT2, CIM, IAO-localization
   Andreas Hansen         : Spin unrestricted coupled pair/coupled cluster methods
   Benjamin Helmich-Paris : MC-RPA, TRAH-SCF, COSX integrals
   Lee Huntington         : MR-EOM, pCC
   Robert Izsak           : Overlap fitted RIJCOSX, COSX-SCS-MP3, EOM
   Marcus Kettner         : VPT2
   Christian Kollmar      : KDIIS, OOCD, Brueckner-CCSD(T), CCSD density, CASPT2, CASPT2-K
   Simone Kossmann        : Meta GGA functionals, TD-DFT gradient, OOMP2, MP2 Hessian
   Martin Krupicka        : Initial AUTO-CI
   Lucas Lang             : DCDCAS
   Marvin Lechner         : AUTO-CI (C++ implementation), FIC-MRCC
   Dagmar Lenk            : GEPOL surface, SMD
   Dimitrios Liakos       : Extrapolation schemes; Compound Job, initial MDCI parallelization
   Dimitrios Manganas     : Further ROCIS development; embedding schemes
   Dimitrios Pantazis     : SARC Basis sets
   Anastasios Papadopoulos: AUTO-CI, single reference methods and gradients
   Taras Petrenko         : DFT Hessian,TD-DFT gradient, ASA, ECA, R-Raman, ABS, FL, XAS/XES, NRVS
   Peter Pinski           : DLPNO-MP2, DLPNO-MP2 Gradient
   Christoph Reimann      : Effective Core Potentials
   Marius Retegan         : Local ZFS, SOC
   Christoph Riplinger    : Optimizer, TS searches, QM/MM, DLPNO-CCSD(T), (RO)-DLPNO pert. Triples
   Tobias Risthaus        : Range-separated hybrids, TD-DFT gradient, RPA, STAB
   Michael Roemelt        : Original ROCIS implementation
   Masaaki Saitow         : Open-shell DLPNO-CCSD energy and density
   Barbara Sandhoefer     : DKH picture change effects
   Avijit Sen             : IP-ROCIS
   Kantharuban Sivalingam : CASSCF convergence, NEVPT2, FIC-MRCI
   Bernardo de Souza      : ESD, SOC TD-DFT
   Georgi Stoychev        : AutoAux, RI-MP2 NMR, DLPNO-MP2 response
   Willem Van den Heuvel  : Paramagnetic NMR
   Boris Wezisla          : Elementary symmetry handling
   Frank Wennmohs         : Technical directorship


 We gratefully acknowledge several colleagues who have allowed us to
 interface, adapt or use parts of their codes:
   Stefan Grimme, W. Hujo, H. Kruse, P. Pracht,  : VdW corrections, initial TS optimization,
                  C. Bannwarth, S. Ehlert          DFT functionals, gCP, sTDA/sTD-DF
   Ed Valeev, F. Pavosevic, A. Kumar             : LibInt (2-el integral package), F12 methods
   Garnet Chan, S. Sharma, J. Yang, R. Olivares  : DMRG
   Ulf Ekstrom                                   : XCFun DFT Library
   Mihaly Kallay                                 : mrcc  (arbitrary order and MRCC methods)
   Jiri Pittner, Ondrej Demel                    : Mk-CCSD
   Frank Weinhold                                : gennbo (NPA and NBO analysis)
   Christopher J. Cramer and Donald G. Truhlar   : smd solvation model
   Lars Goerigk                                  : TD-DFT with DH, B97 family of functionals
   V. Asgeirsson, H. Jonsson                     : NEB implementation
   FAccTs GmbH                                   : IRC, NEB, NEB-TS, DLPNO-Multilevel, CI-OPT
                                                   MM, QMMM, 2- and 3-layer-ONIOM, Crystal-QMMM,
                                                   LR-CPCM, SF, NACMEs, symmetry and pop. for TD-DFT,
                                                   nearIR, NL-DFT gradient (VV10), updates on ESD,
                                                   ML-optimized integration grids
   S Lehtola, MJT Oliveira, MAL Marques          : LibXC Library
   Liviu Ungur et al                             : ANISO software


 Your calculation uses the libint2 library for the computation of 2-el integrals
 For citations please refer to: http://libint.valeyev.net

 Your ORCA version has been built with support for libXC version: 5.1.0
 For citations please refer to: https://tddft.org/programs/libxc/

 This ORCA versions uses:
   CBLAS   interface :  Fast vector & matrix operations
   LAPACKE interface :  Fast linear algebra routines
   SCALAPACK package :  Parallel linear algebra routines
   Shared memory     :  Shared parallel matrices
   BLAS/LAPACK       :  OpenBLAS 0.3.15  USE64BITINT DYNAMIC_ARCH NO_AFFINITY Haswell SINGLE_THREADED
        Core in use  :  Haswell
   Copyright (c) 2011-2014, The OpenBLAS Project


Your calculation utilizes the atom-pairwise dispersion correction
with the Becke-Johnson damping scheme (D3BJ)
Cite in your paper:
S.Grimme, S.Ehrlich, L.Goerigk, J Comput Chem, (2011), 32, 1456–1465 
S.Grimme, J.Antony, S.Ehrlich and H.Krieg, J.Chem.Phys., 132, (2010), 154104 
   

================================================================================

----- Orbital basis set information -----
Your calculation utilizes the basis: def2-SVP
   F. Weigend and R. Ahlrichs, Phys. Chem. Chem. Phys. 7, 3297 (2005).

----- AuxJ basis set information -----
Your calculation utilizes the auxiliary basis: def2/J
   F. Weigend, Phys. Chem. Chem. Phys. 8, 1057 (2006).

================================================================================
                                        WARNINGS
                       Please study these warnings very carefully!
================================================================================


WARNING: Geometry Optimization
  ===> : Switching off AutoStart
         For restart on a previous wavefunction, please use MOREAD

INFO   : the flag for use of the SHARK integral package has been found!

================================================================================
                                       INPUT FILE
================================================================================
NAME = inp.inp
|  1> !OPT PBE D3BJ CPCM(water)
|  2> 
|  3> *xyz -1 1
|  4> C     -5.801626   -3.942222    1.254807
|  5> C     -6.671146   -5.214846    1.061488
|  6> O     -6.401312   -3.191718    2.175912
|  7> H     -4.784742   -4.314745    1.451288
|  8> H     -5.692994   -3.515869    0.244442
|  9> H     -6.674306   -5.843958    1.959816
| 10> O     -8.017258   -4.820265    0.785148
| 11> H     -6.304031   -5.813876    0.221927
| 12> H     -8.032090   -3.976831    1.300754
| 13> *
| 14> 
| 15>                          ****END OF INPUT****
================================================================================

                       *****************************
                       * Geometry Optimization Run *
                       *****************************

Geometry optimization settings:
Update method            Update   .... BFGS
Choice of coordinates    CoordSys .... Z-matrix Internals
Initial Hessian          InHess   .... Almoef's Model

Convergence Tolerances:
Energy Change            TolE     ....  5.0000e-06 Eh
Max. Gradient            TolMAXG  ....  3.0000e-04 Eh/bohr
RMS Gradient             TolRMSG  ....  1.0000e-04 Eh/bohr
Max. Displacement        TolMAXD  ....  4.0000e-03 bohr
RMS Displacement         TolRMSD  ....  2.0000e-03 bohr
Strict Convergence                ....  False
------------------------------------------------------------------------------
                        ORCA OPTIMIZATION COORDINATE SETUP
------------------------------------------------------------------------------

The optimization will be done in new redundant internal coordinates
Making redundant internal coordinates   ...  (new redundants) done
Evaluating the initial hessian          ...  (Almloef) done
Evaluating the coordinates              ...  done
Calculating the B-matrix                .... done
Calculating the G-matrix                .... done
Diagonalizing the G-matrix              .... done
The first mode is                       ....   12
The number of degrees of freedom        ....   21

    -----------------------------------------------------------------
                    Redundant Internal Coordinates


    -----------------------------------------------------------------
         Definition                    Initial Value    Approx d2E/dq
    -----------------------------------------------------------------
      1. B(C   1,C   0)                  1.5534         0.342820   
      2. B(O   2,C   0)                  1.3309         0.695271   
      3. B(H   3,C   0)                  1.1007         0.346283   
      4. B(H   4,C   0)                  1.1020         0.344564   
      5. B(H   5,C   1)                  1.0967         0.351325   
      6. B(O   6,C   1)                  1.4297         0.483635   
      7. B(H   7,C   1)                  1.0947         0.353874   
      8. B(H   8,O   6)                  0.9887         0.467994   
      9. A(O   2,C   0,H   4)          117.4378         0.354946   
     10. A(C   1,C   0,H   4)          104.9538         0.317495   
     11. A(H   3,C   0,H   4)          101.7440         0.287073   
     12. A(O   2,C   0,H   3)          118.9209         0.355246   
     13. A(C   1,C   0,O   2)          107.2112         0.396139   
     14. A(C   1,C   0,H   3)          105.1941         0.317752   
     15. A(C   0,C   1,H   5)          111.6927         0.318502   
     16. A(O   6,C   1,H   7)          108.5735         0.335454   
     17. A(H   5,C   1,H   7)          108.3762         0.288925   
     18. A(C   0,C   1,H   7)          110.8557         0.318878   
     19. A(H   5,C   1,O   6)          108.2958         0.335051   
     20. A(C   0,C   1,O   6)          108.9642         0.371915   
     21. A(C   1,O   6,H   8)           98.5556         0.348490   
     22. D(O   6,C   1,C   0,H   4)    -72.4817         0.009502   
     23. D(H   5,C   1,C   0,H   3)     61.0105         0.009502   
     24. D(O   6,C   1,C   0,O   2)     53.1116         0.009502   
     25. D(H   5,C   1,C   0,O   2)    -66.4879         0.009502   
     26. D(H   5,C   1,C   0,H   4)    167.9187         0.009502   
     27. D(H   7,C   1,C   0,O   2)    172.5397         0.009502   
     28. D(H   7,C   1,C   0,H   3)    -59.9620         0.009502   
     29. D(H   7,C   1,C   0,H   4)     46.9463         0.009502   
     30. D(O   6,C   1,C   0,H   3)   -179.3900         0.009502   
     31. D(H   8,O   6,C   1,H   7)   -151.5809         0.018458   
     32. D(H   8,O   6,C   1,H   5)     90.9425         0.018458   
     33. D(H   8,O   6,C   1,C   0)    -30.7437         0.018458   
    -----------------------------------------------------------------

Number of atoms                         .... 9
Number of degrees of freedom            .... 33

         *************************************************************
         *                GEOMETRY OPTIMIZATION CYCLE   1            *
         *************************************************************
---------------------------------
CARTESIAN COORDINATES (ANGSTROEM)
---------------------------------
  C     -5.801626   -3.942222    1.254807
  C     -6.671146   -5.214846    1.061488
  O     -6.401312   -3.191718    2.175912
  H     -4.784742   -4.314745    1.451288
  H     -5.692994   -3.515869    0.244442
  H     -6.674306   -5.843958    1.959816
  O     -8.017258   -4.820265    0.785148
  H     -6.304031   -5.813876    0.221927
  H     -8.032090   -3.976831    1.300754

----------------------------
CARTESIAN COORDINATES (A.U.)
----------------------------
  NO LB      ZA    FRAG     MASS         X           Y           Z
   0 C     6.0000    0    12.011  -10.963484   -7.449720    2.371242
   1 C     6.0000    0    12.011  -12.606639   -9.854631    2.005922
   2 O     8.0000    0    15.999  -12.096727   -6.031473    4.111878
   3 H     1.0000    0     1.008   -9.041852   -8.153686    2.742537
   4 H     1.0000    0     1.008  -10.758200   -6.644030    0.461928
   5 H     1.0000    0     1.008  -12.612610  -11.043480    3.703516
   6 O     8.0000    0    15.999  -15.150422   -9.108981    1.483715
   7 H     1.0000    0     1.008  -11.912892  -10.986633    0.419381
   8 H     1.0000    0     1.008  -15.178450   -7.515121    2.458069

--------------------------------
INTERNAL COORDINATES (ANGSTROEM)
--------------------------------
 C      0   0   0     0.000000000000     0.00000000     0.00000000
 C      1   0   0     1.553386336858     0.00000000     0.00000000
 O      1   2   0     1.330907199483   107.21122317     0.00000000
 H      1   2   3     1.100650370620   105.19405131   127.49835634
 H      1   2   3     1.102005093118   104.95375633   234.40665327
 H      2   1   3     1.096715591996   111.69267960   293.51209455
 O      2   1   3     1.429711676425   108.96418616    53.11160815
 H      2   1   3     1.094747933017   110.85573765   172.53967940
 H      7   2   1     0.988660936730    98.55563637   329.25627454

---------------------------
INTERNAL COORDINATES (A.U.)
---------------------------
 C      0   0   0     0.000000000000     0.00000000     0.00000000
 C      1   0   0     2.935474756837     0.00000000     0.00000000
 O      1   2   0     2.515050116688   107.21122317     0.00000000
 H      1   2   3     2.079927769671   105.19405131   127.49835634
 H      1   2   3     2.082487824179   104.95375633   234.40665327
 H      2   1   3     2.072492115675   111.69267960   293.51209455
 O      2   1   3     2.701763518912   108.96418616    53.11160815
 H      2   1   3     2.068773779079   110.85573765   172.53967940
 H      7   2   1     1.868298409726    98.55563637   329.25627454

---------------------
BASIS SET INFORMATION
---------------------
There are 3 groups of distinct atoms

 Group   1 Type C   : 7s4p1d contracted to 3s2p1d pattern {511/31/1}
 Group   2 Type O   : 7s4p1d contracted to 3s2p1d pattern {511/31/1}
 Group   3 Type H   : 4s1p contracted to 2s1p pattern {31/1}

Atom   0C    basis set group =>   1
Atom   1C    basis set group =>   1
Atom   2O    basis set group =>   2
Atom   3H    basis set group =>   3
Atom   4H    basis set group =>   3
Atom   5H    basis set group =>   3
Atom   6O    basis set group =>   2
Atom   7H    basis set group =>   3
Atom   8H    basis set group =>   3
---------------------------------
AUXILIARY/J BASIS SET INFORMATION
---------------------------------
There are 3 groups of distinct atoms

 Group   1 Type C   : 12s5p4d2f1g contracted to 6s4p3d1f1g pattern {711111/2111/211/2/1}
 Group   2 Type O   : 12s5p4d2f1g contracted to 6s4p3d1f1g pattern {711111/2111/211/2/1}
 Group   3 Type H   : 5s2p1d contracted to 3s1p1d pattern {311/2/1}

Atom   0C    basis set group =>   1
Atom   1C    basis set group =>   1
Atom   2O    basis set group =>   2
Atom   3H    basis set group =>   3
Atom   4H    basis set group =>   3
Atom   5H    basis set group =>   3
Atom   6O    basis set group =>   2
Atom   7H    basis set group =>   3
Atom   8H    basis set group =>   3
------------------------------------------------------------------------------
                           ORCA GTO INTEGRAL CALCULATION
                           -- RI-GTO INTEGRALS CHOSEN --
------------------------------------------------------------------------------
------------------------------------------------------------------------------
                   ___                                                        
                  /   \      - P O W E R E D   B Y -                         
                 /     \                                                     
                 |  |  |   _    _      __       _____    __    __             
                 |  |  |  | |  | |    /  \     |  _  \  |  |  /  |          
                  \  \/   | |  | |   /    \    | | | |  |  | /  /          
                 / \  \   | |__| |  /  /\  \   | |_| |  |  |/  /          
                |  |  |   |  __  | /  /__\  \  |    /   |      \           
                |  |  |   | |  | | |   __   |  |    \   |  |\   \          
                \     /   | |  | | |  |  |  |  | |\  \  |  | \   \       
                 \___/    |_|  |_| |__|  |__|  |_| \__\ |__|  \__/        
                                                                              
                      - O R C A' S   B I G   F R I E N D -                    
                                      &                                       
                       - I N T E G R A L  F E E D E R -                       
                                                                              
 v1 FN, 2020, v2 2021                                                         
------------------------------------------------------------------------------


Reading SHARK input file inp.SHARKINP.tmp ... ok
----------------------
SHARK INTEGRAL PACKAGE
----------------------

Number of atoms                             ...      9
Number of basis functions                   ...     81
Number of shells                            ...     39
Maximum angular momentum                    ...      2
Integral batch strategy                     ... SHARK/LIBINT Hybrid
RI-J (if used) integral strategy            ... SPLIT-RIJ (Revised 2003 algorithm where possible)
Printlevel                                  ...      1
Contraction scheme used                     ... SEGMENTED contraction
Coulomb Range Separation                    ... NOT USED
Exchange Range Separation                   ... NOT USED
Finite Nucleus Model                        ... NOT USED
Auxiliary Coulomb fitting basis             ... AVAILABLE
   # of basis functions in Aux-J            ...    251
   # of shells in Aux-J                     ...     85
   Maximum angular momentum in Aux-J        ...      4
Auxiliary J/K fitting basis                 ... NOT available
Auxiliary Correlation fitting basis         ... NOT available
Auxiliary 'external' fitting basis          ... NOT available
Integral threshold                          ...     2.500000e-11
Primitive cut-off                           ...     2.500000e-12
Primitive pair pre-selection threshold      ...     2.500000e-12

Calculating pre-screening integrals         ... done (  0.0 sec) Dimension = 39
Organizing shell pair data                  ... done (  0.1 sec)
Shell pair information
Total number of shell pairs                 ...       780
Shell pairs after pre-screening             ...       776
Total number of primitive shell pairs       ...      2768
Primitive shell pairs kept                  ...      2311
          la=0 lb=0:    250 shell pairs
          la=1 lb=0:    285 shell pairs
          la=1 lb=1:     91 shell pairs
          la=2 lb=0:     88 shell pairs
          la=2 lb=1:     52 shell pairs
          la=2 lb=2:     10 shell pairs

Calculating one electron integrals          ... done (  0.0 sec)
Calculating RI/J V-Matrix + Cholesky decomp.... done (  0.2 sec)
Calculating Nuclear repulsion               ... done (  0.0 sec) ENN=    126.149197733549 Eh

SHARK setup successfully completed in   0.8 seconds

Maximum memory used throughout the entire GTOINT-calculation: 9.5 MB
-------------------------------------------------------------------------------
                                 ORCA SCF
-------------------------------------------------------------------------------

------------
SCF SETTINGS
------------
Hamiltonian:
 Density Functional     Method          .... DFT(GTOs)
 Exchange Functional    Exchange        .... PBE
   PBE kappa parameter   XKappa         ....  0.804000
   PBE mue parameter    XMuePBE         ....  0.219520
 Correlation Functional Correlation     .... PBE
   PBE beta parameter  CBetaPBE         ....  0.066725
 LDA part of GGA corr.  LDAOpt          .... PW91-LDA
 Gradients option       PostSCFGGA      .... off
   Density functional embedding theory  .... OFF
   NL short-range parameter             ....  6.400000
 RI-approximation to the Coulomb term is turned on
   Number of AuxJ basis functions       .... 251


General Settings:
 Integral files         IntName         .... inp
 Hartree-Fock type      HFTyp           .... RHF
 Total Charge           Charge          ....   -1
 Multiplicity           Mult            ....    1
 Number of Electrons    NEL             ....   34
 Basis Dimension        Dim             ....   81
 Nuclear Repulsion      ENuc            ....    126.1491977335 Eh

Convergence Acceleration:
 DIIS                   CNVDIIS         .... on
   Start iteration      DIISMaxIt       ....    12
   Startup error        DIISStart       ....  0.200000
   # of expansion vecs  DIISMaxEq       ....     5
   Bias factor          DIISBfac        ....   1.050
   Max. coefficient     DIISMaxC        ....  10.000
 Trust-Rad. Augm. Hess. CNVTRAH         .... auto
   Auto Start mean grad. ratio tolernc. ....  1.125000
   Auto Start start iteration           ....    20
   Auto Start num. interpolation iter.  ....    10
   Max. Number of Micro iterations      ....    16
   Max. Number of Macro iterations      .... Maxiter - #DIIS iter
   Number of Davidson start vectors     ....     2
   Converg. threshold I  (grad. norm)   ....   1.000e-05
   Converg. threshold II (energy diff.) ....   1.000e-08
   Grad. Scal. Fac. for Micro threshold ....   0.100
   Minimum threshold for Micro iter.    ....   0.010
   NR start threshold (gradient norm)   ....   0.001
   Initial trust radius                 ....   0.400
   Minimum AH scaling param. (alpha)    ....   1.000
   Maximum AH scaling param. (alpha)    .... 1000.000
   Orbital update algorithm             .... Taylor
   White noise on init. David. guess    .... on
   Maximum white noise                  ....   0.010
   Quad. conv. algorithm                .... NR
 SOSCF                  CNVSOSCF        .... on
   Start iteration      SOSCFMaxIt      ....   150
   Startup grad/error   SOSCFStart      ....  0.003300
 Level Shifting         CNVShift        .... on
   Level shift para.    LevelShift      ....    0.2500
   Turn off err/grad.   ShiftErr        ....    0.0010
 Zerner damping         CNVZerner       .... off
 Static damping         CNVDamp         .... on
   Fraction old density DampFac         ....    0.7000
   Max. Damping (<1)    DampMax         ....    0.9800
   Min. Damping (>=0)   DampMin         ....    0.0000
   Turn off err/grad.   DampErr         ....    0.1000
 Fernandez-Rico         CNVRico         .... off

SCF Procedure:
 Maximum # iterations   MaxIter         ....   125
 SCF integral mode      SCFMode         .... Direct
   Integral package                     .... SHARK and LIBINT hybrid scheme
 Reset frequency        DirectResetFreq ....    20
 Integral Threshold     Thresh          ....  2.500e-11 Eh
 Primitive CutOff       TCut            ....  2.500e-12 Eh

Convergence Tolerance:
 Convergence Check Mode ConvCheckMode   .... Total+1el-Energy
 Convergence forced     ConvForced      .... 0
 Energy Change          TolE            ....  1.000e-08 Eh
 1-El. energy change                    ....  1.000e-05 Eh
 Orbital Gradient       TolG            ....  1.000e-05
 Orbital Rotation angle TolX            ....  1.000e-05
 DIIS Error             TolErr          ....  5.000e-07


Diagonalization of the overlap matrix:
Smallest eigenvalue                        ... 3.654e-03
Time for diagonalization                   ...    0.002 sec
Threshold for overlap eigenvalues          ... 1.000e-08
Number of eigenvalues below threshold      ... 0
Time for construction of square roots      ...    0.103 sec
Total time needed                          ...    0.105 sec

Time for model grid setup =    0.201 sec

------------------------------
INITIAL GUESS: MODEL POTENTIAL
------------------------------
Loading Hartree-Fock densities                     ... done
Calculating cut-offs                               ... done
Initializing the effective Hamiltonian             ... done
Setting up the integral package (SHARK)            ... done
Starting the Coulomb interaction                   ... done (   0.2 sec)
Reading the grid                                   ... done
Mapping shells                                     ... done
Starting the XC term evaluation                    ... done (   0.1 sec)
  promolecular density results
     # of electrons  =     32.993097655
     EX              =    -27.957929657
     EC              =     -1.086879531
     EX+EC           =    -29.044809188
Transforming the Hamiltonian                       ... done (   0.0 sec)
Diagonalizing the Hamiltonian                      ... done (   0.0 sec)
Back transforming the eigenvectors                 ... done (   0.0 sec)
Now organizing SCF variables                       ... done
                      ------------------
                      INITIAL GUESS DONE (   0.5 sec)
                      ------------------
-------------------
DFT GRID GENERATION
-------------------

General Integration Accuracy     IntAcc      ... 4.388
Radial Grid Type                 RadialGrid  ... OptM3 with GC (2021)
Angular Grid (max. ang.)         AngularGrid ... 4 (Lebedev-302)
Angular grid pruning method      GridPruning ... 4 (adaptive)
Weight generation scheme         WeightScheme... Becke
Basis function cutoff            BFCut       ... 1.0000e-11
Integration weight cutoff        WCut        ... 1.0000e-14
Angular grids for H and He will be reduced by one unit
Partially contracted basis set               ... off
Rotationally invariant grid construction     ... off

Total number of grid points                  ...    40561
Total number of batches                      ...      637
Average number of points per batch           ...       63
Average number of grid points per atom       ...     4507
Time for grid setup =    0.485 sec


--------------------
CPCM SOLVATION MODEL
--------------------
CPCM parameters:
  Epsilon                                         ...      80.4000
  Refrac                                          ...       1.3300
  Rsolv                                           ...       1.3000
  Surface type                                    ... GAUSSIAN VDW
  Epsilon function type                           ...         CPCM
Radii:
 Radius for C  used is    3.8550 Bohr (=   2.0400 Ang.)
 Radius for O  used is    3.4469 Bohr (=   1.8240 Ang.)
 Radius for H  used is    2.4944 Bohr (=   1.3200 Ang.)
Calculating surface                               ...        done! (  0.0s)
GEPOL surface points                              ...          547
GEPOL Volume                                      ...     543.7130
GEPOL Surface-area                                ...     350.0327
Calculating surface distance matrix               ...        done! (  0.0s)
Performing Cholesky decomposition & store         ...        done! (  0.2s)
Overall time for CPCM initialization              ...                 0.2s
--------------
SCF ITERATIONS
--------------
ITER       Energy         Delta-E        Max-DP      RMS-DP      [F,P]     Damp
               ***  Starting incremental Fock matrix formation  ***
  0   -229.0696351587   0.000000000000 0.12359025  0.00726716  0.3391169 0.7000
  1   -229.1846218460  -0.114986687334 0.10316620  0.00526270  0.1100248 0.7000
                               ***Turning on DIIS***
  2   -229.2188759772  -0.034254131247 0.16062013  0.00734059  0.0246028 0.0000
  3   -229.2824694037  -0.063593426436 0.09102701  0.00392393  0.0586885 0.0000
  4   -229.2948135555  -0.012344151779 0.02389139  0.00111391  0.0233909 0.0000
                      *** Initiating the SOSCF procedure ***
                           *** Shutting down DIIS ***
                      *** Re-Reading the Fockian *** 
                      *** Removing any level shift *** 
ITER      Energy       Delta-E        Grad      Rot      Max-DP    RMS-DP
  5   -229.29628618  -0.0014726242  0.001386  0.001386  0.010863  0.000455
               *** Restarting incremental Fock matrix formation ***
  6   -229.29637037  -0.0000841865  0.000615  0.003347  0.008191  0.000388
  7   -229.29637786  -0.0000074905  0.000744  0.001308  0.002942  0.000156
  8   -229.29638476  -0.0000069046  0.000309  0.001527  0.003708  0.000176
  9   -229.29638660  -0.0000018382  0.000203  0.000202  0.000787  0.000037
 10   -229.29638734  -0.0000007414  0.000112  0.000352  0.000635  0.000039
 11   -229.29638770  -0.0000003629  0.000062  0.000083  0.000228  0.000012
 12   -229.29638771  -0.0000000051  0.000073  0.000049  0.000097  0.000006
 13   -229.29638775  -0.0000000361  0.000006  0.000037  0.000088  0.000004
 14   -229.29638775  -0.0000000022  0.000003  0.000005  0.000015  0.000001
                  ***Gradient check signals convergence***
              ***Rediagonalizing the Fockian in SOSCF/NRSCF***

               *****************************************************
               *                     SUCCESS                       *
               *           SCF CONVERGED AFTER  15 CYCLES          *
               *****************************************************


----------------
TOTAL SCF ENERGY
----------------

Total Energy       :         -229.29638775 Eh           -6239.47192 eV

Components:
Nuclear Repulsion  :          126.14919773 Eh            3432.69419 eV
Electronic Energy  :         -355.44558548 Eh           -9672.16610 eV
One Electron Energy:         -571.56043807 Eh          -15552.95022 eV
Two Electron Energy:          216.11485259 Eh            5880.78411 eV
CPCM Dielectric    :           -0.10289107 Eh              -2.79981 eV

Virial components:
Potential Energy   :         -456.86958681 Eh          -12432.05349 eV
Kinetic Energy     :          227.57319907 Eh            6192.58157 eV
Virial Ratio       :            2.00757202


DFT components:
N(Alpha)           :       16.999985640894 electrons
N(Beta)            :       16.999985640894 electrons
N(Total)           :       33.999971281789 electrons
E(X)               :      -28.776789469838 Eh       
E(C)               :       -1.137260109379 Eh       
E(XC)              :      -29.914049579217 Eh       
DFET-embed. en.    :        0.000000000000 Eh       
CPCM Solvation Model Properties:
Surface-charge          :            0.97651171
Charge-correction       :           -0.00440609 Eh              -0.11990 eV
Free-energy (cav+disp)  :  This term is not implemented in the current solvation scheme

---------------
SCF CONVERGENCE
---------------

  Last Energy change         ...    3.1190e-10  Tolerance :   1.0000e-08
  Last MAX-Density change    ...    1.0924e-05  Tolerance :   1.0000e-07
  Last RMS-Density change    ...    5.1062e-07  Tolerance :   5.0000e-09
  Last Orbital Gradient      ...    1.4442e-06  Tolerance :   1.0000e-05
  Last Orbital Rotation      ...    4.2659e-06  Tolerance :   1.0000e-05

             **** THE GBW FILE WAS UPDATED (inp.gbw) ****
             **** DENSITY inp.scfp WAS UPDATED ****
             **** ENERGY FILE WAS UPDATED (inp.en.tmp) ****
             **** THE GBW FILE WAS UPDATED (inp.gbw) ****
             **** DENSITY inp.scfp WAS UPDATED ****
----------------
ORBITAL ENERGIES
----------------

  NO   OCC          E(Eh)            E(eV) 
   0   2.0000     -18.709786      -509.1192 
   1   2.0000     -18.610694      -506.4227 
   2   2.0000      -9.889408      -269.1045 
   3   2.0000      -9.875246      -268.7191 
   4   2.0000      -0.876879       -23.8611 
   5   2.0000      -0.779030       -21.1985 
   6   2.0000      -0.583728       -15.8841 
   7   2.0000      -0.481965       -13.1149 
   8   2.0000      -0.397131       -10.8065 
   9   2.0000      -0.362562        -9.8658 
  10   2.0000      -0.344268        -9.3680 
  11   2.0000      -0.302018        -8.2183 
  12   2.0000      -0.266580        -7.2540 
  13   2.0000      -0.241627        -6.5750 
  14   2.0000      -0.185124        -5.0375 
  15   2.0000      -0.114860        -3.1255 
  16   2.0000      -0.105705        -2.8764 
  17   0.0000       0.076845         2.0911 
  18   0.0000       0.101801         2.7702 
  19   0.0000       0.110381         3.0036 
  20   0.0000       0.130356         3.5472 
  21   0.0000       0.158128         4.3029 
  22   0.0000       0.194713         5.2984 
  23   0.0000       0.218936         5.9575 
  24   0.0000       0.252821         6.8796 
  25   0.0000       0.458576        12.4785 
  26   0.0000       0.479068        13.0361 
  27   0.0000       0.497024        13.5247 
  28   0.0000       0.549968        14.9654 
  29   0.0000       0.569883        15.5073 
  30   0.0000       0.575352        15.6561 
  31   0.0000       0.582768        15.8579 
  32   0.0000       0.632630        17.2147 
  33   0.0000       0.641328        17.4514 
  34   0.0000       0.673440        18.3252 
  35   0.0000       0.692663        18.8483 
  36   0.0000       0.709930        19.3182 
  37   0.0000       0.824170        22.4268 
  38   0.0000       0.936940        25.4954 
  39   0.0000       0.955586        26.0028 
  40   0.0000       0.971443        26.4343 
  41   0.0000       1.008949        27.4549 
  42   0.0000       1.111733        30.2518 
  43   0.0000       1.162056        31.6212 
  44   0.0000       1.233250        33.5584 
  45   0.0000       1.253321        34.1046 
  46   0.0000       1.331347        36.2278 
  47   0.0000       1.396270        37.9944 
  48   0.0000       1.439361        39.1670 
  49   0.0000       1.541574        41.9483 
  50   0.0000       1.620632        44.0996 
  51   0.0000       1.658310        45.1249 
  52   0.0000       1.715244        46.6742 
  53   0.0000       1.741639        47.3924 
  54   0.0000       1.750670        47.6382 
  55   0.0000       1.774355        48.2826 
  56   0.0000       1.819497        49.5110 
  57   0.0000       1.836272        49.9675 
  58   0.0000       1.843295        50.1586 
  59   0.0000       1.921475        52.2860 
  60   0.0000       2.053388        55.8755 
  61   0.0000       2.137318        58.1594 
  62   0.0000       2.170347        59.0581 
  63   0.0000       2.223780        60.5121 
  64   0.0000       2.329796        63.3970 
  65   0.0000       2.385553        64.9142 
  66   0.0000       2.485335        67.6294 
  67   0.0000       2.629557        71.5539 
  68   0.0000       2.638385        71.7941 
  69   0.0000       2.714359        73.8615 
  70   0.0000       2.751598        74.8748 
  71   0.0000       2.857951        77.7688 
  72   0.0000       2.878843        78.3373 
  73   0.0000       2.914090        79.2964 
  74   0.0000       2.968422        80.7749 
  75   0.0000       3.119604        84.8887 
  76   0.0000       3.158007        85.9337 
  77   0.0000       3.185166        86.6728 
  78   0.0000       3.248167        88.3871 
  79   0.0000       3.467140        94.3457 
  80   0.0000       3.689539       100.3975 

                    ********************************
                    * MULLIKEN POPULATION ANALYSIS *
                    ********************************

-----------------------
MULLIKEN ATOMIC CHARGES
-----------------------
   0 C :    0.169958
   1 C :    0.126602
   2 O :   -0.661581
   3 H :   -0.113473
   4 H :   -0.131523
   5 H :   -0.051530
   6 O :   -0.376009
   7 H :   -0.053800
   8 H :    0.091356
Sum of atomic charges:   -1.0000000

--------------------------------
MULLIKEN REDUCED ORBITAL CHARGES
--------------------------------
  0 C s       :     2.952230  s :     2.952230
      pz      :     0.910049  p :     2.800663
      px      :     0.948172
      py      :     0.942442
      dz2     :     0.023595  d :     0.077150
      dxz     :     0.009521
      dyz     :     0.015097
      dx2y2   :     0.014752
      dxy     :     0.014185
  1 C s       :     2.994995  s :     2.994995
      pz      :     0.979737  p :     2.819991
      px      :     0.824104
      py      :     1.016150
      dz2     :     0.007729  d :     0.058412
      dxz     :     0.011026
      dyz     :     0.011896
      dx2y2   :     0.014857
      dxy     :     0.012905
  2 O s       :     3.824398  s :     3.824398
      pz      :     1.559940  p :     4.826366
      px      :     1.596972
      py      :     1.669454
      dz2     :     0.002273  d :     0.010817
      dxz     :     0.002338
      dyz     :     0.003060
      dx2y2   :     0.001388
      dxy     :     0.001758
  3 H s       :     1.091549  s :     1.091549
      pz      :     0.004693  p :     0.021923
      px      :     0.011477
      py      :     0.005754
  4 H s       :     1.110151  s :     1.110151
      pz      :     0.010941  p :     0.021372
      px      :     0.005186
      py      :     0.005246
  5 H s       :     1.030873  s :     1.030873
      pz      :     0.010612  p :     0.020657
      px      :     0.002933
      py      :     0.007112
  6 O s       :     3.735178  s :     3.735178
      pz      :     1.753217  p :     4.629019
      px      :     1.434508
      py      :     1.441295
      dz2     :     0.001235  d :     0.011813
      dxz     :     0.002262
      dyz     :     0.002570
      dx2y2   :     0.004078
      dxy     :     0.001667
  7 H s       :     1.032694  s :     1.032694
      pz      :     0.009764  p :     0.021105
      px      :     0.004079
      py      :     0.007262
  8 H s       :     0.839268  s :     0.839268
      pz      :     0.022884  p :     0.069377
      px      :     0.014503
      py      :     0.031990


                     *******************************
                     * LOEWDIN POPULATION ANALYSIS *
                     *******************************

----------------------
LOEWDIN ATOMIC CHARGES
----------------------
   0 C :   -0.047229
   1 C :    0.004499
   2 O :   -0.595939
   3 H :   -0.056042
   4 H :   -0.066705
   5 H :   -0.023548
   6 O :   -0.212959
   7 H :   -0.018098
   8 H :    0.016020

-------------------------------
LOEWDIN REDUCED ORBITAL CHARGES
-------------------------------
  0 C s       :     2.841148  s :     2.841148
      pz      :     0.995957  p :     3.009813
      px      :     1.013236
      py      :     1.000620
      dz2     :     0.061261  d :     0.196268
      dxz     :     0.022862
      dyz     :     0.035604
      dx2y2   :     0.035099
      dxy     :     0.041441
  1 C s       :     2.879185  s :     2.879185
      pz      :     1.053406  p :     2.980391
      px      :     0.884670
      py      :     1.042315
      dz2     :     0.019059  d :     0.135925
      dxz     :     0.023810
      dyz     :     0.031526
      dx2y2   :     0.031532
      dxy     :     0.029998
  2 O s       :     3.609759  s :     3.609759
      pz      :     1.626502  p :     4.966262
      px      :     1.646544
      py      :     1.693217
      dz2     :     0.003484  d :     0.019918
      dxz     :     0.004550
      dyz     :     0.006232
      dx2y2   :     0.002358
      dxy     :     0.003294
  3 H s       :     0.987943  s :     0.987943
      pz      :     0.012508  p :     0.068099
      px      :     0.038204
      py      :     0.017387
  4 H s       :     0.998052  s :     0.998052
      pz      :     0.038566  p :     0.068654
      px      :     0.013344
      py      :     0.016743
  5 H s       :     0.955774  s :     0.955774
      pz      :     0.032523  p :     0.067774
      px      :     0.011968
      py      :     0.023283
  6 O s       :     3.476214  s :     3.476214
      pz      :     1.760028  p :     4.714076
      px      :     1.468339
      py      :     1.485709
      dz2     :     0.001700  d :     0.022669
      dxz     :     0.003082
      dyz     :     0.005611
      dx2y2   :     0.009239
      dxy     :     0.003038
  7 H s       :     0.950035  s :     0.950035
      pz      :     0.030299  p :     0.068063
      px      :     0.013852
      py      :     0.023912
  8 H s       :     0.789690  s :     0.789690
      pz      :     0.066743  p :     0.194289
      px      :     0.035646
      py      :     0.091901


                      *****************************
                      * MAYER POPULATION ANALYSIS *
                      *****************************

  NA   - Mulliken gross atomic population
  ZA   - Total nuclear charge
  QA   - Mulliken gross atomic charge
  VA   - Mayer's total valence
  BVA  - Mayer's bonded valence
  FA   - Mayer's free valence

  ATOM       NA         ZA         QA         VA         BVA        FA
  0 C      5.8300     6.0000     0.1700     4.1930     4.1930     0.0000
  1 C      5.8734     6.0000     0.1266     3.9478     3.9478     0.0000
  2 O      8.6616     8.0000    -0.6616     1.7892     1.7892     0.0000
  3 H      1.1135     1.0000    -0.1135     0.9356     0.9356    -0.0000
  4 H      1.1315     1.0000    -0.1315     0.9390     0.9390    -0.0000
  5 H      1.0515     1.0000    -0.0515     0.9888     0.9888     0.0000
  6 O      8.3760     8.0000    -0.3760     2.0398     2.0398    -0.0000
  7 H      1.0538     1.0000    -0.0538     0.9838     0.9838     0.0000
  8 H      0.9086     1.0000     0.0914     1.1516     1.1516     0.0000

  Mayer bond orders larger than 0.100000
B(  0-C ,  1-C ) :   1.0309 B(  0-C ,  2-O ) :   1.3940 B(  0-C ,  3-H ) :   0.8757 
B(  0-C ,  4-H ) :   0.8516 B(  1-C ,  5-H ) :   0.9234 B(  1-C ,  6-O ) :   1.0526 
B(  1-C ,  7-H ) :   0.9187 B(  2-O ,  8-H ) :   0.2196 B(  6-O ,  8-H ) :   0.9096 


-------
TIMINGS
-------

Total SCF time: 0 days 0 hours 0 min 14 sec 

Total time                  ....      14.019 sec
Sum of individual times     ....      12.538 sec  ( 89.4%)

Fock matrix formation       ....      10.950 sec  ( 78.1%)
  Split-RI-J                ....       0.780 sec  (  7.1% of F)
  XC integration            ....       5.967 sec  ( 54.5% of F)
    Basis function eval.    ....       1.642 sec  ( 27.5% of XC)
    Density eval.           ....       0.745 sec  ( 12.5% of XC)
    XC-Functional eval.     ....       0.573 sec  (  9.6% of XC)
    XC-Potential eval.      ....       0.715 sec  ( 12.0% of XC)
Diagonalization             ....       0.007 sec  (  0.1%)
Density matrix formation    ....       0.001 sec  (  0.0%)
Population analysis         ....       0.067 sec  (  0.5%)
Initial guess               ....       0.273 sec  (  1.9%)
Orbital Transformation      ....       0.000 sec  (  0.0%)
Orbital Orthonormalization  ....       0.000 sec  (  0.0%)
DIIS solution               ....       0.169 sec  (  1.2%)
SOSCF solution              ....       0.385 sec  (  2.7%)
Grid generation             ....       0.687 sec  (  4.9%)

Maximum memory used throughout the entire SCF-calculation: 21.1 MB


-------------------------------------------------------------------------------
                          DFT DISPERSION CORRECTION                            
                                                                               
                              DFTD3 V3.1  Rev 1                                
                          USING Becke-Johnson damping                          
-------------------------------------------------------------------------------
The PBE functional is recognized
Active option DFTDOPT                   ...         4   

molecular C6(AA) [au] = 576.510622 


            DFT-D V3
 parameters
 s6 scaling factor         :     1.0000 
 a1 scaling factor         :     0.4289 
 s8 scaling factor         :     0.7875 
 a2 scaling factor         :     4.4407 
 ad hoc parameters k1-k3   :    16.0000     1.3333    -4.0000 

 Edisp/kcal,au: -3.112927135851  -0.004960764630 
 E6   /kcal   :  -2.258500506 
 E8   /kcal   :  -0.854426629 
 % E8         :  27.447691261 

-------------------------   ----------------
Dispersion correction           -0.004960765
-------------------------   ----------------


-------------------------   --------------------
FINAL SINGLE POINT ENERGY      -229.301348511591
-------------------------   --------------------

------------------------------------------------------------------------------
                         ORCA SCF GRADIENT CALCULATION
------------------------------------------------------------------------------

Gradient of the Kohn-Sham DFT energy:
Kohn-Sham wavefunction type      ... RKS
Hartree-Fock exchange scaling    ...    0.000
Number of operators              ...    1
Number of atoms                  ...    9
Basis set dimensions             ...   81
Integral neglect threshold       ... 2.5e-11
Integral primitive cutoff        ... 2.5e-12
SHARK Integral package           ... ON

Nuc. rep. gradient       (SHARK) ... done (  0.0 sec)
HCore & Overlap gradient (SHARK) ... done (  0.0 sec)
RI-J gradient            (SHARK) ... done (  0.2 sec)
Exchange-correlation gradient    ... done
Dispersion correction            ... done

------------------
CARTESIAN GRADIENT
------------------

   1   C   :    0.031042065    0.020700410   -0.017535689
   2   C   :    0.005942820   -0.007341483    0.016024632
   3   O   :    0.006208302   -0.019599561   -0.009588666
   4   H   :   -0.025824555    0.007554237   -0.009315812
   5   H   :   -0.000879562   -0.012335378    0.026641908
   6   H   :   -0.006986073    0.006309481   -0.014093084
   7   O   :   -0.002146899    0.001772789    0.004367656
   8   H   :   -0.002898798    0.010855672    0.011263606
   9   H   :   -0.004457300   -0.007916168   -0.007764551

Difference to translation invariance:
           :    0.0000000000    0.0000000000   -0.0000000000

Difference to rotation invariance:
           :    0.0000760355   -0.0004953875    0.0002939033

Norm of the cartesian gradient     ...    0.0703116695
RMS gradient                       ...    0.0135314871
MAX gradient                       ...    0.0310420646

-------
TIMINGS
-------

Total SCF gradient time            ...        1.886 sec

One electron gradient       ....       0.030 sec  (  1.6%)
RI-J Coulomb gradient       ....       0.214 sec  ( 11.3%)
XC gradient                 ....       1.305 sec  ( 69.2%)
CPCM gradient               ....       0.109 sec  (  5.8%)
   A-Matrix (El+Nuc)        ....       0.018 sec  (  0.9%)
   Potential                ....       0.091 sec  (  4.8%)

Maximum memory used throughout the entire SCFGRAD-calculation: 30.6 MB
------------------------------------------------------------------------------
                         ORCA GEOMETRY RELAXATION STEP
------------------------------------------------------------------------------

Reading the OPT-File                    .... done
Getting information on internals        .... done
Copying old internal coords+grads       .... done
Making the new internal coordinates     .... (new redundants).... done
Validating the new internal coordinates .... (new redundants).... done
Calculating the B-matrix                .... done
Calculating the G,G- and P matrices     .... done
Transforming gradient to internals      .... done
Projecting the internal gradient        .... done
Number of atoms                         ....   9
Number of internal coordinates          ....  33
Current Energy                          ....  -229.301348512 Eh
Current gradient norm                   ....     0.070311670 Eh/bohr
Maximum allowed component of the step   ....  0.300
Current trust radius                    ....  0.300
Evaluating the initial hessian          ....  (Almloef) done
Projecting the Hessian                  .... done
Forming the augmented Hessian           .... done
Diagonalizing the augmented Hessian     .... done
Last element of RFO vector              ....  0.951715545
Lowest eigenvalues of augmented Hessian:
 -0.011814414  0.010981802  0.018494221  0.104946348  0.107131800
Length of the computed step             ....  0.322555731
Warning: the length of the step is outside the trust region - taking restricted step instead
The input lambda is                     ....    -0.011814
   iter:   1  x=   -0.013805  g=    7.054328 f(x)=     0.014042
   iter:   2  x=   -0.014116  g=    5.447456 f(x)=     0.001694
   iter:   3  x=   -0.014122  g=    5.243271 f(x)=     0.000032
   iter:   4  x=   -0.014122  g=    5.239367 f(x)=     0.000000
   iter:   5  x=   -0.014122  g=    5.239365 f(x)=     0.000000
The output lambda is                    ....    -0.014122 (5 iterations)
The final length of the internal step   ....  0.300000000
Converting the step to cartesian space:
 Initial RMS(Int)=    0.0522232968
Transforming coordinates:
 Iter   0:  RMS(Cart)=    0.0709227992 RMS(Int)=    1.0797111391
 Iter   1:  RMS(Cart)=    0.0025207312 RMS(Int)=    0.0021645133
 Iter   2:  RMS(Cart)=    0.0001680154 RMS(Int)=    0.0001124206
 Iter   3:  RMS(Cart)=    0.0000121531 RMS(Int)=    0.0000102521
 Iter   4:  RMS(Cart)=    0.0000008597 RMS(Int)=    0.0000006842
 Iter   5:  RMS(Cart)=    0.0000000667 RMS(Int)=    0.0000000516
done
Storing new coordinates                 .... done

                                .--------------------.
          ----------------------|Geometry convergence|-------------------------
          Item                value                   Tolerance       Converged
          ---------------------------------------------------------------------
          RMS gradient        0.0107410831            0.0001000000      NO
          MAX gradient        0.0292738281            0.0003000000      NO
          RMS step            0.0522232968            0.0020000000      NO
          MAX step            0.1102615524            0.0040000000      NO
          ........................................................
          Max(Bonds)      0.0432      Max(Angles)    3.20
          Max(Dihed)        6.32      Max(Improp)    0.00
          ---------------------------------------------------------------------

The optimization has not yet converged - more geometry cycles are needed


    ---------------------------------------------------------------------------
                         Redundant Internal Coordinates
                            (Angstroem and degrees)

        Definition                    Value    dE/dq     Step     New-Value
    ----------------------------------------------------------------------------
     1. B(C   1,C   0)                1.5534  0.001658 -0.0025    1.5509   
     2. B(O   2,C   0)                1.3309 -0.020502  0.0153    1.3462   
     3. B(H   3,C   0)                1.1007 -0.028073  0.0412    1.1419   
     4. B(H   4,C   0)                1.1020 -0.029274  0.0432    1.1452   
     5. B(H   5,C   1)                1.0967 -0.015140  0.0219    1.1186   
     6. B(O   6,C   1)                1.4297  0.005177 -0.0055    1.4242   
     7. B(H   7,C   1)                1.0947 -0.015557  0.0224    1.1171   
     8. B(H   8,O   6)                0.9887 -0.010709  0.0118    1.0004   
     9. A(O   2,C   0,H   4)          117.44  0.007316   -1.57    115.87   
    10. A(C   1,C   0,H   4)          104.95  0.003818   -0.87    104.09   
    11. A(H   3,C   0,H   4)          101.74 -0.000829    0.23    101.98   
    12. A(O   2,C   0,H   3)          118.92  0.005522   -0.38    118.54   
    13. A(C   1,C   0,O   2)          107.21 -0.014171    2.01    109.22   
    14. A(C   1,C   0,H   3)          105.19 -0.001993    0.63    105.82   
    15. A(C   0,C   1,H   5)          111.69  0.003959   -1.45    110.25   
    16. A(O   6,C   1,H   7)          108.57 -0.006297    1.44    110.01   
    17. A(H   5,C   1,H   7)          108.38  0.001789    0.31    108.69   
    18. A(C   0,C   1,H   7)          110.86 -0.009415    2.01    112.86   
    19. A(H   5,C   1,O   6)          108.30 -0.009721    0.97    109.27   
    20. A(C   0,C   1,O   6)          108.96  0.019196   -3.20    105.77   
    21. A(C   1,O   6,H   8)           98.56  0.009629   -1.52     97.03   
    22. D(O   6,C   1,C   0,H   4)    -72.48  0.002243   -5.07    -77.55   
    23. D(H   5,C   1,C   0,H   3)     61.01 -0.000430   -3.46     57.55   
    24. D(O   6,C   1,C   0,O   2)     53.11  0.005283   -6.32     46.79   
    25. D(H   5,C   1,C   0,O   2)    -66.49  0.002373   -4.54    -71.03   
    26. D(H   5,C   1,C   0,H   4)    167.92 -0.000667   -3.30    164.62   
    27. D(H   7,C   1,C   0,O   2)    172.54  0.003909   -5.34    167.20   
    28. D(H   7,C   1,C   0,H   3)    -59.96  0.001106   -4.26    -64.22   
    29. D(H   7,C   1,C   0,H   4)     46.95  0.000869   -4.10     42.85   
    30. D(O   6,C   1,C   0,H   3)   -179.39  0.002480   -5.24   -184.63   
    31. D(H   8,O   6,C   1,H   7)   -151.58 -0.000408   -0.89   -152.47   
    32. D(H   8,O   6,C   1,H   5)     90.94  0.006265   -2.58     88.36   
    33. D(H   8,O   6,C   1,C   0)    -30.74 -0.004171    0.50    -30.24   
    ----------------------------------------------------------------------------

         *************************************************************
         *                GEOMETRY OPTIMIZATION CYCLE   2            *
         *************************************************************
---------------------------------
CARTESIAN COORDINATES (ANGSTROEM)
---------------------------------
  C     -5.832706   -3.950591    1.260585
  C     -6.673835   -5.234058    1.035656
  O     -6.476105   -3.145594    2.126769
  H     -4.782304   -4.309913    1.527813
  H     -5.678996   -3.529718    0.206684
  H     -6.651542   -5.876377    1.951234
  O     -8.007244   -4.787673    0.809534
  H     -6.319844   -5.838704    0.165571
  H     -7.956927   -3.961702    1.371736

----------------------------
CARTESIAN COORDINATES (A.U.)
----------------------------
  NO LB      ZA    FRAG     MASS         X           Y           Z
   0 C     6.0000    0    12.011  -11.022218   -7.465536    2.382160
   1 C     6.0000    0    12.011  -12.611721   -9.890936    1.957107
   2 O     8.0000    0    15.999  -12.238065   -5.944311    4.019010
   3 H     1.0000    0     1.008   -9.037246   -8.144556    2.887148
   4 H     1.0000    0     1.008  -10.731748   -6.670201    0.390576
   5 H     1.0000    0     1.008  -12.569593  -11.104743    3.687298
   6 O     8.0000    0    15.999  -15.131498   -9.047390    1.529798
   7 H     1.0000    0     1.008  -11.942775  -11.033551    0.312883
   8 H     1.0000    0     1.008  -15.036413   -7.486532    2.592206

--------------------------------
INTERNAL COORDINATES (ANGSTROEM)
--------------------------------
 C      0   0   0     0.000000000000     0.00000000     0.00000000
 C      1   0   0     1.550928044933     0.00000000     0.00000000
 O      1   2   0     1.346200835458   109.20604490     0.00000000
 H      1   2   3     1.141870174068   105.80860972   128.59920574
 H      1   2   3     1.145193413010   104.09089626   235.66497222
 H      2   1   3     1.118638884716   110.22237317   288.92920372
 O      2   1   3     1.424208051824   105.74836633    46.81417784
 H      2   1   3     1.117118944044   112.89328525   167.18181774
 H      7   2   1     1.000415060275    97.03415135   329.76320762

---------------------------
INTERNAL COORDINATES (A.U.)
---------------------------
 C      0   0   0     0.000000000000     0.00000000     0.00000000
 C      1   0   0     2.930829258341     0.00000000     0.00000000
 O      1   2   0     2.543950900271   109.20604490     0.00000000
 H      1   2   3     2.157821909482   105.80860972   128.59920574
 H      1   2   3     2.164101920959   104.09089626   235.66497222
 H      2   1   3     2.113921134868   110.22237317   288.92920372
 O      2   1   3     2.691363175673   105.74836633    46.81417784
 H      2   1   3     2.111048863259   112.89328525   167.18181774
 H      7   2   1     1.890510484170    97.03415135   329.76320762

------------------------------------------------------------------------------
                   ___                                                        
                  /   \      - P O W E R E D   B Y -                         
                 /     \                                                     
                 |  |  |   _    _      __       _____    __    __             
                 |  |  |  | |  | |    /  \     |  _  \  |  |  /  |          
                  \  \/   | |  | |   /    \    | | | |  |  | /  /          
                 / \  \   | |__| |  /  /\  \   | |_| |  |  |/  /          
                |  |  |   |  __  | /  /__\  \  |    /   |      \           
                |  |  |   | |  | | |   __   |  |    \   |  |\   \          
                \     /   | |  | | |  |  |  |  | |\  \  |  | \   \       
                 \___/    |_|  |_| |__|  |__|  |_| \__\ |__|  \__/        
                                                                              
                      - O R C A' S   B I G   F R I E N D -                    
                                      &                                       
                       - I N T E G R A L  F E E D E R -                       
                                                                              
 v1 FN, 2020, v2 2021                                                         
------------------------------------------------------------------------------


Reading SHARK input file inp.SHARKINP.tmp ... ok
----------------------
SHARK INTEGRAL PACKAGE
----------------------

Number of atoms                             ...      9
Number of basis functions                   ...     81
Number of shells                            ...     39
Maximum angular momentum                    ...      2
Integral batch strategy                     ... SHARK/LIBINT Hybrid
RI-J (if used) integral strategy            ... SPLIT-RIJ (Revised 2003 algorithm where possible)
Printlevel                                  ...      1
Contraction scheme used                     ... SEGMENTED contraction
Coulomb Range Separation                    ... NOT USED
Exchange Range Separation                   ... NOT USED
Finite Nucleus Model                        ... NOT USED
Auxiliary Coulomb fitting basis             ... AVAILABLE
   # of basis functions in Aux-J            ...    251
   # of shells in Aux-J                     ...     85
   Maximum angular momentum in Aux-J        ...      4
Auxiliary J/K fitting basis                 ... NOT available
Auxiliary Correlation fitting basis         ... NOT available
Auxiliary 'external' fitting basis          ... NOT available
Integral threshold                          ...     2.500000e-11
Primitive cut-off                           ...     2.500000e-12
Primitive pair pre-selection threshold      ...     2.500000e-12

Calculating pre-screening integrals         ... done (  0.0 sec) Dimension = 39
Organizing shell pair data                  ... done (  0.1 sec)
Shell pair information
Total number of shell pairs                 ...       780
Shell pairs after pre-screening             ...       775
Total number of primitive shell pairs       ...      2768
Primitive shell pairs kept                  ...      2304
          la=0 lb=0:    250 shell pairs
          la=1 lb=0:    284 shell pairs
          la=1 lb=1:     91 shell pairs
          la=2 lb=0:     88 shell pairs
          la=2 lb=1:     52 shell pairs
          la=2 lb=2:     10 shell pairs

Calculating one electron integrals          ... done (  0.0 sec)
Calculating RI/J V-Matrix + Cholesky decomp.... done (  0.1 sec)
Calculating Nuclear repulsion               ... done (  0.0 sec) ENN=    126.091684907433 Eh

SHARK setup successfully completed in   0.6 seconds

Maximum memory used throughout the entire GTOINT-calculation: 9.5 MB

Diagonalization of the overlap matrix:
Smallest eigenvalue                        ... 3.699e-03
Time for diagonalization                   ...    0.001 sec
Threshold for overlap eigenvalues          ... 1.000e-08
Number of eigenvalues below threshold      ... 0
Time for construction of square roots      ...    0.016 sec
Total time needed                          ...    0.017 sec

-------------------
DFT GRID GENERATION
-------------------

General Integration Accuracy     IntAcc      ... 4.388
Radial Grid Type                 RadialGrid  ... OptM3 with GC (2021)
Angular Grid (max. ang.)         AngularGrid ... 4 (Lebedev-302)
Angular grid pruning method      GridPruning ... 4 (adaptive)
Weight generation scheme         WeightScheme... Becke
Basis function cutoff            BFCut       ... 1.0000e-11
Integration weight cutoff        WCut        ... 1.0000e-14
Angular grids for H and He will be reduced by one unit
Partially contracted basis set               ... off
Rotationally invariant grid construction     ... off

Total number of grid points                  ...    40562
Total number of batches                      ...      638
Average number of points per batch           ...       63
Average number of grid points per atom       ...     4507
Time for grid setup =    0.302 sec


--------------------
CPCM SOLVATION MODEL
--------------------
CPCM parameters:
  Epsilon                                         ...      80.4000
  Refrac                                          ...       1.3300
  Rsolv                                           ...       1.3000
  Surface type                                    ... GAUSSIAN VDW
  Epsilon function type                           ...         CPCM
Radii:
 Radius for C  used is    3.8550 Bohr (=   2.0400 Ang.)
 Radius for O  used is    3.4469 Bohr (=   1.8240 Ang.)
 Radius for H  used is    2.4944 Bohr (=   1.3200 Ang.)
Calculating surface                               ...        done! (  0.0s)
GEPOL surface points                              ...          548
GEPOL Volume                                      ...     545.8305
GEPOL Surface-area                                ...     351.8155
Calculating surface distance matrix               ...        done! (  0.0s)
Performing Cholesky decomposition & store         ...        done! (  0.1s)
Overall time for CPCM initialization              ...                 0.1s
--------------
SCF ITERATIONS
--------------
ITER       Energy         Delta-E        Max-DP      RMS-DP      [F,P]     Damp
               ***  Starting incremental Fock matrix formation  ***
  0   -229.2981492017   0.000000000000 0.00696451  0.00055443  0.0225834 0.7000
                      *** Initiating the SOSCF procedure ***
                      *** Re-Reading the Fockian *** 
                      *** Removing any level shift *** 
ITER      Energy       Delta-E        Grad      Rot      Max-DP    RMS-DP
  1   -229.29974371  -0.0015945035  0.001699  0.001699  0.023331  0.001747
               *** Restarting incremental Fock matrix formation ***
  2   -229.30361300  -0.0038692909  0.001363  0.003855  0.007572  0.000466
  3   -229.30353066   0.0000823327  0.002751  0.001788  0.006439  0.000359
  4   -229.30368503  -0.0001543661  0.000438  0.000892  0.003275  0.000153
  5   -229.30368374   0.0000012912  0.000394  0.000334  0.001652  0.000071
  6   -229.30369002  -0.0000062864  0.000096  0.000112  0.000298  0.000019
  7   -229.30369012  -0.0000000962  0.000072  0.000044  0.000142  0.000009
  8   -229.30369025  -0.0000001272  0.000025  0.000035  0.000097  0.000005
  9   -229.30369024   0.0000000085  0.000030  0.000020  0.000055  0.000003
                  ***Gradient check signals convergence***
              ***Rediagonalizing the Fockian in SOSCF/NRSCF***

               *****************************************************
               *                     SUCCESS                       *
               *           SCF CONVERGED AFTER  10 CYCLES          *
               *****************************************************

Total Energy       :         -229.30369026 Eh           -6239.67063 eV
  Last Energy change         ...   -1.9196e-08  Tolerance :   1.0000e-08
  Last MAX-Density change    ...    1.3240e-05  Tolerance :   1.0000e-07
             **** THE GBW FILE WAS UPDATED (inp.gbw) ****
             **** DENSITY inp.scfp WAS UPDATED ****
             **** ENERGY FILE WAS UPDATED (inp.en.tmp) ****
             **** THE GBW FILE WAS UPDATED (inp.gbw) ****
             **** DENSITY inp.scfp WAS UPDATED ****
Total SCF time: 0 days 0 hours 0 min 9 sec 

Maximum memory used throughout the entire SCF-calculation: 21.0 MB


-------------------------------------------------------------------------------
                          DFT DISPERSION CORRECTION                            
                                                                               
                              DFTD3 V3.1  Rev 1                                
                          USING Becke-Johnson damping                          
-------------------------------------------------------------------------------
-------------------------   ----------------
Dispersion correction           -0.004959233
-------------------------   ----------------


-------------------------   --------------------
FINAL SINGLE POINT ENERGY      -229.308649492092
-------------------------   --------------------

------------------------------------------------------------------------------
                         ORCA SCF GRADIENT CALCULATION
------------------------------------------------------------------------------

Gradient of the Kohn-Sham DFT energy:
Kohn-Sham wavefunction type      ... RKS
Hartree-Fock exchange scaling    ...    0.000
Number of operators              ...    1
Number of atoms                  ...    9
Basis set dimensions             ...   81
Integral neglect threshold       ... 2.5e-11
Integral primitive cutoff        ... 2.5e-12
SHARK Integral package           ... ON

Nuc. rep. gradient       (SHARK) ... done (  0.0 sec)
HCore & Overlap gradient (SHARK) ... done (  0.0 sec)
RI-J gradient            (SHARK) ... done (  0.2 sec)
Exchange-correlation gradient    ... done
Dispersion correction            ... done

------------------
CARTESIAN GRADIENT
------------------

   1   C   :    0.003595707    0.004991357   -0.003445895
   2   C   :    0.006390570   -0.001590736    0.005718882
   3   O   :    0.000933278   -0.001278039    0.001192114
   4   H   :   -0.002741709   -0.001464244   -0.004207318
   5   H   :   -0.000930167   -0.002707155    0.004516637
   6   H   :   -0.004697175    0.002163868   -0.002269414
   7   O   :    0.001632683    0.006220042    0.004183675
   8   H   :    0.000733552    0.000700818   -0.000566610
   9   H   :   -0.004916739   -0.007035910   -0.005122070

Difference to translation invariance:
           :    0.0000000000   -0.0000000000   -0.0000000000

Difference to rotation invariance:
           :    0.0003314466   -0.0006167374    0.0000405597

Norm of the cartesian gradient     ...    0.0194343072
RMS gradient                       ...    0.0037401342
MAX gradient                       ...    0.0070359102

-------
TIMINGS
-------

Total SCF gradient time            ...        1.872 sec

One electron gradient       ....       0.030 sec  (  1.6%)
RI-J Coulomb gradient       ....       0.213 sec  ( 11.4%)
XC gradient                 ....       1.315 sec  ( 70.2%)
CPCM gradient               ....       0.110 sec  (  5.9%)
   A-Matrix (El+Nuc)        ....       0.019 sec  (  1.0%)
   Potential                ....       0.092 sec  (  4.9%)

Maximum memory used throughout the entire SCFGRAD-calculation: 30.6 MB
------------------------------------------------------------------------------
                         ORCA GEOMETRY RELAXATION STEP
------------------------------------------------------------------------------

Reading the OPT-File                    .... done
Getting information on internals        .... done
Copying old internal coords+grads       .... done
Making the new internal coordinates     .... (new redundants).... done
Validating the new internal coordinates .... (new redundants).... done
Calculating the B-matrix                .... done
Calculating the G,G- and P matrices     .... done
Transforming gradient to internals      .... done
Projecting the internal gradient        .... done
Number of atoms                         ....   9
Number of internal coordinates          ....  33
Current Energy                          ....  -229.308649492 Eh
Current gradient norm                   ....     0.019434307 Eh/bohr
Maximum allowed component of the step   ....  0.300
Current trust radius                    ....  0.300
Updating the Hessian (BFGS)             .... done
Forming the augmented Hessian           .... done
Diagonalizing the augmented Hessian     .... done
Last element of RFO vector              ....  0.943998936
Lowest eigenvalues of augmented Hessian:
 -0.002907388  0.010713266  0.018814406  0.104271897  0.105722859
Length of the computed step             ....  0.349522102
Warning: the length of the step is outside the trust region - taking restricted step instead
The input lambda is                     ....    -0.002907
   iter:   1  x=   -0.004644  g=   18.525644 f(x)=     0.032166
   iter:   2  x=   -0.005095  g=   12.534534 f(x)=     0.005655
   iter:   3  x=   -0.005117  g=   11.416294 f(x)=     0.000258
   iter:   4  x=   -0.005117  g=   11.363967 f(x)=     0.000001
   iter:   5  x=   -0.005117  g=   11.363847 f(x)=     0.000000
   iter:   6  x=   -0.005117  g=   11.363847 f(x)=     0.000000
The output lambda is                    ....    -0.005117 (6 iterations)
The final length of the internal step   ....  0.300000000
Converting the step to cartesian space:
 Initial RMS(Int)=    0.0522232968
Transforming coordinates:
 Iter   0:  RMS(Cart)=    0.0657532382 RMS(Int)=    0.0519181634
 Iter   1:  RMS(Cart)=    0.0021472343 RMS(Int)=    0.0019457119
 Iter   2:  RMS(Cart)=    0.0001642049 RMS(Int)=    0.0001047297
 Iter   3:  RMS(Cart)=    0.0000125304 RMS(Int)=    0.0000106111
 Iter   4:  RMS(Cart)=    0.0000010081 RMS(Int)=    0.0000007884
 Iter   5:  RMS(Cart)=    0.0000000864 RMS(Int)=    0.0000000631
done
Storing new coordinates                 .... done

                                .--------------------.
          ----------------------|Geometry convergence|-------------------------
          Item                value                   Tolerance       Converged
          ---------------------------------------------------------------------
          Energy change      -0.0073009805            0.0000050000      NO
          RMS gradient        0.0033510067            0.0001000000      NO
          MAX gradient        0.0089159102            0.0003000000      NO
          RMS step            0.0522232968            0.0020000000      NO
          MAX step            0.1067671618            0.0040000000      NO
          ........................................................
          Max(Bonds)      0.0142      Max(Angles)    1.87
          Max(Dihed)        6.12      Max(Improp)    0.00
          ---------------------------------------------------------------------

The optimization has not yet converged - more geometry cycles are needed


    ---------------------------------------------------------------------------
                         Redundant Internal Coordinates
                            (Angstroem and degrees)

        Definition                    Value    dE/dq     Step     New-Value
    ----------------------------------------------------------------------------
     1. B(C   1,C   0)                1.5509 -0.000202  0.0002    1.5511   
     2. B(O   2,C   0)                1.3462 -0.000459  0.0019    1.3481   
     3. B(H   3,C   0)                1.1419 -0.003050  0.0095    1.1514   
     4. B(H   4,C   0)                1.1452 -0.005254  0.0141    1.1593   
     5. B(H   5,C   1)                1.1186 -0.003181  0.0081    1.1267   
     6. B(O   6,C   1)                1.4242  0.002959 -0.0047    1.4195   
     7. B(H   7,C   1)                1.1171  0.000284  0.0013    1.1185   
     8. B(H   8,O   6)                1.0004 -0.008916  0.0142    1.0146   
     9. A(O   2,C   0,H   4)          115.88  0.001356   -0.74    115.15   
    10. A(C   1,C   0,H   4)          104.09 -0.001127    0.15    104.24   
    11. A(H   3,C   0,H   4)          101.98  0.000196    0.41    102.39   
    12. A(O   2,C   0,H   3)          118.51  0.001996   -0.53    117.98   
    13. A(C   1,C   0,O   2)          109.21  0.001092   -0.20    109.01   
    14. A(C   1,C   0,H   3)          105.81 -0.004405    1.17    106.98   
    15. A(C   0,C   1,H   5)          110.22  0.002102   -1.07    109.15   
    16. A(O   6,C   1,H   7)          110.04 -0.002907    1.08    111.12   
    17. A(H   5,C   1,H   7)          108.69  0.001337   -0.24    108.44   
    18. A(C   0,C   1,H   7)          112.89 -0.003919    1.21    114.10   
    19. A(H   5,C   1,O   6)          109.18 -0.004370    0.93    110.11   
    20. A(C   0,C   1,O   6)          105.75  0.007690   -1.86    103.89   
    21. A(C   1,O   6,H   8)           97.03  0.008180   -1.87     95.16   
    22. D(O   6,C   1,C   0,H   4)    -77.52  0.000500   -5.19    -82.71   
    23. D(H   5,C   1,C   0,H   3)     57.53  0.001982   -5.47     52.06   
    24. D(O   6,C   1,C   0,O   2)     46.81  0.002035   -6.10     40.72   
    25. D(H   5,C   1,C   0,O   2)    -71.07  0.001773   -5.45    -76.52   
    26. D(H   5,C   1,C   0,H   4)    164.59  0.000237   -4.55    160.05   
    27. D(H   7,C   1,C   0,O   2)    167.18  0.001249   -5.23    161.95   
    28. D(H   7,C   1,C   0,H   3)    -64.22  0.001459   -5.25    -69.47   
    29. D(H   7,C   1,C   0,H   4)     42.85 -0.000287   -4.33     38.52   
    30. D(O   6,C   1,C   0,H   3)    175.41  0.002245   -6.12    169.30   
    31. D(H   8,O   6,C   1,H   7)   -152.45 -0.001089    2.36   -150.09   
    32. D(H   8,O   6,C   1,H   5)     88.34  0.001703    1.51     89.85   
    33. D(H   8,O   6,C   1,C   0)    -30.24 -0.002764    3.34    -26.90   
    ----------------------------------------------------------------------------

         *************************************************************
         *                GEOMETRY OPTIMIZATION CYCLE   3            *
         *************************************************************
---------------------------------
CARTESIAN COORDINATES (ANGSTROEM)
---------------------------------
  C     -5.851465   -3.958234    1.257112
  C     -6.679959   -5.247412    1.017101
  O     -6.546126   -3.134636    2.067286
  H     -4.802657   -4.290986    1.596192
  H     -5.649599   -3.546649    0.192305
  H     -6.614257   -5.904122    1.930275
  O     -8.008007   -4.773254    0.854442
  H     -6.352434   -5.842855    0.128771
  H     -7.875001   -3.936181    1.412097

----------------------------
CARTESIAN COORDINATES (A.U.)
----------------------------
  NO LB      ZA    FRAG     MASS         X           Y           Z
   0 C     6.0000    0    12.011  -11.057667   -7.479978    2.375598
   1 C     6.0000    0    12.011  -12.623293   -9.916172    1.922043
   2 O     8.0000    0    15.999  -12.370386   -5.923603    3.906605
   3 H     1.0000    0     1.008   -9.075706   -8.108789    3.016366
   4 H     1.0000    0     1.008  -10.676194   -6.702196    0.363403
   5 H     1.0000    0     1.008  -12.499134  -11.157174    3.647692
   6 O     8.0000    0    15.999  -15.132940   -9.020143    1.614661
   7 H     1.0000    0     1.008  -12.004361  -11.041396    0.243342
   8 H     1.0000    0     1.008  -14.881595   -7.438304    2.668476

--------------------------------
INTERNAL COORDINATES (ANGSTROEM)
--------------------------------
 C      0   0   0     0.000000000000     0.00000000     0.00000000
 C      1   0   0     1.551124964979     0.00000000     0.00000000
 O      1   2   0     1.348053899680   108.99797583     0.00000000
 H      1   2   3     1.151390071985   106.97232168   128.58323638
 H      1   2   3     1.159295886338   104.23848561   236.57034117
 H      2   1   3     1.126708087097   109.13967968   283.44410585
 O      2   1   3     1.419505409618   103.87595674    40.75108642
 H      2   1   3     1.118461040658   114.13933639   161.94589318
 H      7   2   1     1.014574393629    95.16128506   333.11312743

---------------------------
INTERNAL COORDINATES (A.U.)
---------------------------
 C      0   0   0     0.000000000000     0.00000000     0.00000000
 C      1   0   0     2.931201383298     0.00000000     0.00000000
 O      1   2   0     2.547452684160   108.99797583     0.00000000
 H      1   2   3     2.175811909368   106.97232168   128.58323638
 H      1   2   3     2.190751733360   104.23848561   236.57034117
[...]

Total number of grid points                  ...    40566
Total number of batches                      ...      637
Average number of points per batch           ...       63
Average number of grid points per atom       ...     4507
Time for grid setup =    0.303 sec


--------------------
CPCM SOLVATION MODEL
--------------------
CPCM parameters:
  Epsilon                                         ...      80.4000
  Refrac                                          ...       1.3300
  Rsolv                                           ...       1.3000
  Surface type                                    ... GAUSSIAN VDW
  Epsilon function type                           ...         CPCM
Radii:
 Radius for C  used is    3.8550 Bohr (=   2.0400 Ang.)
 Radius for O  used is    3.4469 Bohr (=   1.8240 Ang.)
 Radius for H  used is    2.4944 Bohr (=   1.3200 Ang.)
Calculating surface                               ...        done! (  0.0s)
GEPOL surface points                              ...          544
GEPOL Volume                                      ...     548.7026
GEPOL Surface-area                                ...     352.9859
Calculating surface distance matrix               ...        done! (  0.0s)
Performing Cholesky decomposition & store         ...        done! (  0.1s)
Overall time for CPCM initialization              ...                 0.1s
--------------
SCF ITERATIONS
--------------
ITER       Energy         Delta-E        Max-DP      RMS-DP      [F,P]     Damp
               ***  Starting incremental Fock matrix formation  ***
                      *** Initiating the SOSCF procedure ***
                      *** Re-Reading the Fockian *** 
                      *** Removing any level shift *** 
ITER      Energy       Delta-E        Grad      Rot      Max-DP    RMS-DP
  0   -229.30744775 -229.3074477468  0.000087  0.000087  0.000284  0.000020
               *** Restarting incremental Fock matrix formation ***
  1   -229.30744835  -0.0000006046  0.000034  0.000174  0.000462  0.000017
  2   -229.30744834   0.0000000076  0.000068  0.000072  0.000134  0.000008
  3   -229.30744841  -0.0000000692  0.000015  0.000050  0.000113  0.000005
  4   -229.30744842  -0.0000000052  0.000006  0.000007  0.000035  0.000001
  5   -229.30744842  -0.0000000008  0.000005  0.000010  0.000025  0.000001
                  ***Gradient check signals convergence***
              ***Rediagonalizing the Fockian in SOSCF/NRSCF***

               *****************************************************
               *                     SUCCESS                       *
               *           SCF CONVERGED AFTER   6 CYCLES          *
               *****************************************************


----------------
TOTAL SCF ENERGY
----------------

Total Energy       :         -229.30744842 Eh           -6239.77290 eV

Components:
Nuclear Repulsion  :          127.07377813 Eh            3457.85330 eV
Electronic Energy  :         -356.38122655 Eh           -9697.62619 eV
One Electron Energy:         -573.56539750 Eh          -15607.50794 eV
Two Electron Energy:          217.18417095 Eh            5909.88174 eV
CPCM Dielectric    :           -0.10151747 Eh              -2.76243 eV

Virial components:
Potential Energy   :         -456.69757080 Eh          -12427.37270 eV
Kinetic Energy     :          227.39012238 Eh            6187.59980 eV
Virial Ratio       :            2.00843188


DFT components:
N(Alpha)           :       16.999991783626 electrons
N(Beta)            :       16.999991783626 electrons
N(Total)           :       33.999983567253 electrons
E(X)               :      -28.725214943669 Eh       
E(C)               :       -1.139387203780 Eh       
E(XC)              :      -29.864602147449 Eh       
DFET-embed. en.    :        0.000000000000 Eh       
CPCM Solvation Model Properties:
Surface-charge          :            0.97738805
Charge-correction       :           -0.00391565 Eh              -0.10655 eV
Free-energy (cav+disp)  :  This term is not implemented in the current solvation scheme

---------------
SCF CONVERGENCE
---------------

  Last Energy change         ...   -1.1120e-09  Tolerance :   1.0000e-08
  Last MAX-Density change    ...    9.5466e-06  Tolerance :   1.0000e-07
  Last RMS-Density change    ...    4.5370e-07  Tolerance :   5.0000e-09
  Last Orbital Gradient      ...    1.0733e-06  Tolerance :   1.0000e-05
  Last Orbital Rotation      ...    4.6731e-06  Tolerance :   1.0000e-05

             **** THE GBW FILE WAS UPDATED (inp.gbw) ****
             **** DENSITY inp.scfp WAS UPDATED ****
             **** ENERGY FILE WAS UPDATED (inp.en.tmp) ****
             **** THE GBW FILE WAS UPDATED (inp.gbw) ****
             **** DENSITY inp.scfp WAS UPDATED ****
----------------
ORBITAL ENERGIES
----------------

  NO   OCC          E(Eh)            E(eV) 
   0   2.0000     -18.681477      -508.3488 
   1   2.0000     -18.635761      -507.1048 
   2   2.0000      -9.894374      -269.2396 
   3   2.0000      -9.889803      -269.1152 
   4   2.0000      -0.864676       -23.5290 
   5   2.0000      -0.782247       -21.2860 
   6   2.0000      -0.572977       -15.5915 
   7   2.0000      -0.463553       -12.6139 
   8   2.0000      -0.388156       -10.5623 
   9   2.0000      -0.369395       -10.0518 
  10   2.0000      -0.339843        -9.2476 
  11   2.0000      -0.293734        -7.9929 
  12   2.0000      -0.274349        -7.4654 
  13   2.0000      -0.218682        -5.9506 
  14   2.0000      -0.169370        -4.6088 
  15   2.0000      -0.147036        -4.0011 
  16   2.0000      -0.121570        -3.3081 
  17   0.0000       0.067711         1.8425 
  18   0.0000       0.101576         2.7640 
  19   0.0000       0.115398         3.1401 
  20   0.0000       0.130589         3.5535 
  21   0.0000       0.168676         4.5899 
  22   0.0000       0.211228         5.7478 
  23   0.0000       0.219583         5.9752 
  24   0.0000       0.270998         7.3742 
  25   0.0000       0.447848        12.1866 
  26   0.0000       0.458999        12.4900 
  27   0.0000       0.476014        12.9530 
  28   0.0000       0.525161        14.2904 
  29   0.0000       0.548860        14.9352 
  30   0.0000       0.558252        15.1908 
  31   0.0000       0.585225        15.9248 
  32   0.0000       0.606881        16.5141 
  33   0.0000       0.626889        17.0585 
  34   0.0000       0.649753        17.6807 
  35   0.0000       0.674300        18.3486 
  36   0.0000       0.696734        18.9591 
  37   0.0000       0.837087        22.7783 
  38   0.0000       0.927213        25.2307 
  39   0.0000       0.965805        26.2809 
  40   0.0000       0.981433        26.7061 
  41   0.0000       1.045499        28.4495 
  42   0.0000       1.120509        30.4906 
  43   0.0000       1.182643        32.1813 
  44   0.0000       1.224835        33.3294 
  45   0.0000       1.272033        34.6138 
  46   0.0000       1.323885        36.0248 
  47   0.0000       1.433520        39.0081 
  48   0.0000       1.495323        40.6898 
  49   0.0000       1.565715        42.6053 
  50   0.0000       1.603997        43.6470 
  51   0.0000       1.675928        45.6043 
  52   0.0000       1.682695        45.7884 
  53   0.0000       1.690474        46.0001 
  54   0.0000       1.734582        47.2004 
  55   0.0000       1.753327        47.7104 
  56   0.0000       1.775300        48.3084 
  57   0.0000       1.806281        49.1514 
  58   0.0000       1.844649        50.1955 
  59   0.0000       1.894252        51.5452 
  60   0.0000       2.007978        54.6399 
  61   0.0000       2.012288        54.7571 
  62   0.0000       2.085043        56.7369 
  63   0.0000       2.222359        60.4735 
  64   0.0000       2.285101        62.1808 
  65   0.0000       2.319577        63.1189 
  66   0.0000       2.450153        66.6720 
  67   0.0000       2.574249        70.0489 
  68   0.0000       2.597496        70.6815 
  69   0.0000       2.682097        72.9836 
  70   0.0000       2.767808        75.3159 
  71   0.0000       2.826886        76.9235 
  72   0.0000       2.887018        78.5598 
  73   0.0000       2.910976        79.2117 
  74   0.0000       3.015052        82.0437 
  75   0.0000       3.094355        84.2017 
  76   0.0000       3.111133        84.6582 
  77   0.0000       3.216816        87.5340 
  78   0.0000       3.255784        88.5944 
  79   0.0000       3.384021        92.0839 
  80   0.0000       3.728255       101.4510 

                    ********************************
                    * MULLIKEN POPULATION ANALYSIS *
                    ********************************

-----------------------
MULLIKEN ATOMIC CHARGES
-----------------------
   0 C :    0.111518
   1 C :    0.091686
   2 O :   -0.615338
   3 H :   -0.072813
   4 H :   -0.098837
   5 H :   -0.054284
   6 O :   -0.449145
   7 H :   -0.037052
   8 H :    0.124266
Sum of atomic charges:   -1.0000000

--------------------------------
MULLIKEN REDUCED ORBITAL CHARGES
--------------------------------
  0 C s       :     3.016389  s :     3.016389
      pz      :     0.937048  p :     2.803861
      px      :     0.927039
      py      :     0.939774
      dz2     :     0.014680  d :     0.068233
      dxz     :     0.012521
      dyz     :     0.011495
      dx2y2   :     0.015525
      dxy     :     0.014013
  1 C s       :     3.022136  s :     3.022136
      pz      :     0.988564  p :     2.825750
      px      :     0.834269
      py      :     1.002918
      dz2     :     0.007162  d :     0.060427
      dxz     :     0.012766
      dyz     :     0.011033
      dx2y2   :     0.014220
      dxy     :     0.015246
  2 O s       :     3.820052  s :     3.820052
      pz      :     1.707896  p :     4.784634
      px      :     1.464348
      py      :     1.612390
      dz2     :     0.001537  d :     0.010653
      dxz     :     0.001807
      dyz     :     0.002498
      dx2y2   :     0.001847
      dxy     :     0.002964
  3 H s       :     1.053091  s :     1.053091
      pz      :     0.005831  p :     0.019722
      px      :     0.009466
      py      :     0.004424
  4 H s       :     1.079788  s :     1.079788
      pz      :     0.010303  p :     0.019049
      px      :     0.004684
      py      :     0.004062
  5 H s       :     1.034575  s :     1.034575
      pz      :     0.009023  p :     0.019709
      px      :     0.003158
      py      :     0.007529
  6 O s       :     3.757293  s :     3.757293
      pz      :     1.804023  p :     4.680029
      px      :     1.407081
      py      :     1.468925
      dz2     :     0.001336  d :     0.011823
      dxz     :     0.002174
      dyz     :     0.001279
      dx2y2   :     0.004248
      dxy     :     0.002786
  7 H s       :     1.016837  s :     1.016837
      pz      :     0.010598  p :     0.020215
      px      :     0.003503
      py      :     0.006114
  8 H s       :     0.796801  s :     0.796801
      pz      :     0.019654  p :     0.078934
      px      :     0.021660
      py      :     0.037620


                     *******************************
                     * LOEWDIN POPULATION ANALYSIS *
                     *******************************

----------------------
LOEWDIN ATOMIC CHARGES
----------------------
   0 C :   -0.035683
   1 C :   -0.016118
   2 O :   -0.510847
   3 H :   -0.040211
   4 H :   -0.056657
   5 H :   -0.029925
   6 O :   -0.293446
   7 H :   -0.017724
   8 H :    0.000611

-------------------------------
LOEWDIN REDUCED ORBITAL CHARGES
-------------------------------
  0 C s       :     2.873343  s :     2.873343
      pz      :     1.010815  p :     2.993481
      px      :     0.987711
      py      :     0.994954
      dz2     :     0.036550  d :     0.168859
      dxz     :     0.033726
      dyz     :     0.024930
      dx2y2   :     0.034277
      dxy     :     0.039376
  1 C s       :     2.882555  s :     2.882555
      pz      :     1.054839  p :     2.990434
      px      :     0.902442
      py      :     1.033154
      dz2     :     0.017660  d :     0.143129
      dxz     :     0.027493
      dyz     :     0.030194
      dx2y2   :     0.030726
      dxy     :     0.037056
  2 O s       :     3.599768  s :     3.599768
      pz      :     1.742304  p :     4.891373
      px      :     1.511586
      py      :     1.637483
      dz2     :     0.002322  d :     0.019706
      dxz     :     0.003521
      dyz     :     0.004537
      dx2y2   :     0.003282
      dxy     :     0.006044
  3 H s       :     0.979273  s :     0.979273
      pz      :     0.016069  p :     0.060938
      px      :     0.031101
      py      :     0.013768
  4 H s       :     0.996203  s :     0.996203
      pz      :     0.034016  p :     0.060454
      px      :     0.013403
      py      :     0.013034
  5 H s       :     0.967277  s :     0.967277
      pz      :     0.026667  p :     0.062648
      px      :     0.011439
      py      :     0.024542
  6 O s       :     3.515085  s :     3.515085
      pz      :     1.796875  p :     4.755801
      px      :     1.473281
      py      :     1.485645
      dz2     :     0.002404  d :     0.022561
      dxz     :     0.002888
      dyz     :     0.002951
      dx2y2   :     0.009352
      dxy     :     0.004966
  7 H s       :     0.954537  s :     0.954537
      pz      :     0.032188  p :     0.063187
      px      :     0.012283
      py      :     0.018717
  8 H s       :     0.750107  s :     0.750107
      pz      :     0.060447  p :     0.249282
      px      :     0.061514
      py      :     0.127321


                      *****************************
                      * MAYER POPULATION ANALYSIS *
                      *****************************

  NA   - Mulliken gross atomic population
  ZA   - Total nuclear charge
  QA   - Mulliken gross atomic charge
  VA   - Mayer's total valence
  BVA  - Mayer's bonded valence
  FA   - Mayer's free valence

  ATOM       NA         ZA         QA         VA         BVA        FA
  0 C      5.8885     6.0000     0.1115     4.1255     4.1255    -0.0000
  1 C      5.9083     6.0000     0.0917     4.0159     4.0159    -0.0000
  2 O      8.6153     8.0000    -0.6153     1.8470     1.8470     0.0000
  3 H      1.0728     1.0000    -0.0728     0.9466     0.9466     0.0000
  4 H      1.0988     1.0000    -0.0988     0.9377     0.9377    -0.0000
  5 H      1.0543     1.0000    -0.0543     0.9592     0.9592    -0.0000
  6 O      8.4491     8.0000    -0.4491     1.9971     1.9971     0.0000
  7 H      1.0371     1.0000    -0.0371     0.9679     0.9679    -0.0000
  8 H      0.8757     1.0000     0.1243     1.1342     1.1342    -0.0000

  Mayer bond orders larger than 0.100000
B(  0-C ,  1-C ) :   1.0096 B(  0-C ,  2-O ) :   1.2996 B(  0-C ,  3-H ) :   0.9121 
B(  0-C ,  4-H ) :   0.8775 B(  1-C ,  5-H ) :   0.9124 B(  1-C ,  6-O ) :   1.1397 
B(  1-C ,  7-H ) :   0.9358 B(  2-O ,  8-H ) :   0.3878 B(  6-O ,  8-H ) :   0.7421 


-------
TIMINGS
-------

Total SCF time: 0 days 0 hours 0 min 7 sec 

Total time                  ....       7.019 sec
Sum of individual times     ....       5.842 sec  ( 83.2%)

Fock matrix formation       ....       5.233 sec  ( 74.6%)
  Split-RI-J                ....       0.339 sec  (  6.5% of F)
  XC integration            ....       2.768 sec  ( 52.9% of F)
    Basis function eval.    ....       0.734 sec  ( 26.5% of XC)
    Density eval.           ....       0.327 sec  ( 11.8% of XC)
    XC-Functional eval.     ....       0.253 sec  (  9.1% of XC)
    XC-Potential eval.      ....       0.260 sec  (  9.4% of XC)
Diagonalization             ....       0.001 sec  (  0.0%)
Density matrix formation    ....       0.000 sec  (  0.0%)
Population analysis         ....       0.119 sec  (  1.7%)
Initial guess               ....       0.002 sec  (  0.0%)
Orbital Transformation      ....       0.000 sec  (  0.0%)
Orbital Orthonormalization  ....       0.001 sec  (  0.0%)
DIIS solution               ....       0.000 sec  (  0.0%)
SOSCF solution              ....       0.183 sec  (  2.6%)
Grid generation             ....       0.303 sec  (  4.3%)

Maximum memory used throughout the entire SCF-calculation: 21.0 MB


-------------------------------------------------------------------------------
                          DFT DISPERSION CORRECTION                            
                                                                               
                              DFTD3 V3.1  Rev 1                                
                          USING Becke-Johnson damping                          
-------------------------------------------------------------------------------
The PBE functional is recognized
Active option DFTDOPT                   ...         4   

molecular C6(AA) [au] = 575.896071 


            DFT-D V3
 parameters
 s6 scaling factor         :     1.0000 
 a1 scaling factor         :     0.4289 
 s8 scaling factor         :     0.7875 
 a2 scaling factor         :     4.4407 
 ad hoc parameters k1-k3   :    16.0000     1.3333    -4.0000 

 Edisp/kcal,au: -3.105849135170  -0.004949485119 
 E6   /kcal   :  -2.253554867 
 E8   /kcal   :  -0.852294268 
 % E8         :  27.441586209 

-------------------------   ----------------
Dispersion correction           -0.004949485
-------------------------   ----------------


-------------------------   --------------------
FINAL SINGLE POINT ENERGY      -229.312397905241
-------------------------   --------------------

                                *** OPTIMIZATION RUN DONE ***

                            ***************************************
                            *     ORCA property calculations      *
                            ***************************************

                                    ---------------------
                                    Active property flags
                                    ---------------------
   (+) Dipole Moment


------------------------------------------------------------------------------
                       ORCA ELECTRIC PROPERTIES CALCULATION
------------------------------------------------------------------------------

Dipole Moment Calculation                       ... on
Quadrupole Moment Calculation                   ... off
Polarizability Calculation                      ... off
GBWName                                         ... inp.gbw
Electron density                                ... inp.scfp
The origin for moment calculation is the CENTER OF MASS  = (-12.916030, -8.068962  2.434871)

-------------
DIPOLE MOMENT
-------------
                                X             Y             Z
Electronic contribution:     -2.33605       1.14531       0.68182
Nuclear contribution   :      2.84919      -2.02743      -1.05177
                        -----------------------------------------
Total Dipole Moment    :      0.51313      -0.88212      -0.36996
                        -----------------------------------------
Magnitude (a.u.)       :      1.08550
Magnitude (Debye)      :      2.75913



--------------------
Rotational spectrum 
--------------------
 
Rotational constants in cm-1:     0.484240     0.239885     0.174301 
Rotational constants in MHz : 14517.141901  7191.567335  5225.398009 

 Dipole components along the rotational axes: 
x,y,z [a.u.] :     0.486748     0.969841    -0.028340 
x,y,z [Debye]:     1.237216     2.465139    -0.072035 

 

Timings for individual modules:

Sum of individual times         ...      123.276 sec (=   2.055 min)
GTO integral calculation        ...        7.777 sec (=   0.130 min)   6.3 %
SCF iterations                  ...       94.470 sec (=   1.575 min)  76.6 %
SCF Gradient evaluation         ...       19.668 sec (=   0.328 min)  16.0 %
Geometry relaxation             ...        1.362 sec (=   0.023 min)   1.1 %
                             ****ORCA TERMINATED NORMALLY****
TOTAL RUN TIME: 0 days 0 hours 2 minutes 10 seconds 67 msec
