 Entering Gaussian System
 *********************************************
 Gaussian 98:
 frequency output generated by the xtb code
 *********************************************
                         Standard orientation:
 --------------------------------------------------------------------
  Center     Atomic     Atomic              Coordinates (Angstroms)
  Number     Number      Type              X           Y           Z
 --------------------------------------------------------------------
    1          6             0       -3.230575   -2.281065    0.626228
    2          6             0       -2.723105   -3.145799   -0.318504
    3          6             0       -3.406654   -4.305437   -0.654189
    4          6             0       -4.611465   -4.585626   -0.026002
    5          6             0       -5.125751   -3.726181    0.919869
    6          1             0       -1.782156   -2.912572   -0.799341
    7          6             0       -4.446411   -2.550836    1.270064
    8          1             0       -3.006016   -4.981347   -1.394959
    9          1             0       -2.702590   -1.373403    0.893591
   10          1             0       -6.066002   -3.938147    1.414960
   11         16             0       -5.085905   -1.471358    2.455693
   12          1             0       -5.157167   -5.485846   -0.276569
 --------------------------------------------------------------------
     1 basis functions        1 primitive gaussians
     1 alpha electrons        1 beta electrons
 
 Harmonic frequencies (cm**-1), IR intensities (km*mol⁻¹),
 Raman scattering activities (A**4/amu), Raman depolarization ratios,
 reduced masses (AMU), force constants (mDyne/A) and normal coordinates:
                      1                      2                      3
                        a                      a                      a 
 Frequencies --   164.0299               272.0873               368.7209
 Red. masses --    13.8790                16.7239                 9.1356
 Frc consts  --     0.0000                 0.0000                 0.0000
 IR Inten    --     3.7101                 6.9203                 0.0020
 Raman Activ --     0.0000                 0.0000                 0.0000
 Depolar     --     0.0000                 0.0000                 0.0000
 Atom AN      X      Y      Z        X      Y      Z        X      Y      Z
   1   6     0.21  -0.21   0.30    -0.33  -0.08   0.17     0.21  -0.21   0.31
   2   6    -0.02   0.02  -0.03    -0.06   0.15   0.15    -0.21   0.21  -0.30
   3   6    -0.21   0.22  -0.31     0.12   0.09  -0.02    -0.00   0.00  -0.00
   4   6    -0.02   0.02  -0.03     0.10  -0.12  -0.15     0.21  -0.21   0.31
   5   6     0.21  -0.21   0.30    -0.19  -0.31  -0.09    -0.21   0.21  -0.31
   6   1    -0.03   0.03  -0.04    -0.01   0.10   0.08    -0.13   0.13  -0.19
   7   6     0.18  -0.18   0.26    -0.34  -0.26   0.05    -0.00  -0.00  -0.00
   8   1    -0.14   0.14  -0.20     0.08   0.06  -0.01    -0.00   0.00  -0.00
   9   1     0.08  -0.09   0.12    -0.15  -0.00   0.10     0.12  -0.12   0.18
  10   1     0.08  -0.09   0.12    -0.06  -0.16  -0.07    -0.12   0.12  -0.18
  11  16    -0.20   0.21  -0.30     0.43   0.33  -0.07     0.00  -0.00  -0.00
  12   1    -0.03   0.03  -0.04     0.08  -0.05  -0.09     0.13  -0.13   0.19
                      4                      5                      6
                        a                      a                      a 
 Frequencies --   409.9191               435.0715               584.2232
 Red. masses --    21.7575                 9.6271                11.2734
 Frc consts  --     0.0000                 0.0000                 0.0000
 IR Inten    --    15.5536                 0.0006                 0.0206
 Raman Activ --     0.0000                 0.0000                 0.0000
 Depolar     --     0.0000                 0.0000                 0.0000
 Atom AN      X      Y      Z        X      Y      Z        X      Y      Z
   1   6    -0.06  -0.20  -0.10     0.02  -0.02   0.03     0.10   0.38   0.19
   2   6    -0.02  -0.22  -0.14     0.14  -0.14   0.20    -0.40   0.02   0.28
   3   6     0.16  -0.27  -0.29    -0.20   0.20  -0.29    -0.14  -0.11   0.02
   4   6     0.19  -0.06  -0.17     0.14  -0.14   0.20    -0.14  -0.43  -0.20
   5   6     0.19  -0.01  -0.14     0.03  -0.03   0.04     0.35  -0.04  -0.26
   6   1    -0.00  -0.02  -0.01     0.13  -0.13   0.19    -0.11  -0.05   0.05
   7   6    -0.06   0.10   0.11    -0.32   0.32  -0.46     0.13   0.10  -0.02
   8   1     0.04  -0.08  -0.08    -0.08   0.08  -0.12     0.09   0.07  -0.01
   9   1     0.04  -0.07  -0.08     0.10  -0.10   0.14     0.07   0.09   0.02
  10   1     0.05  -0.07  -0.08     0.10  -0.10   0.14     0.10   0.04  -0.04
  11  16    -0.26   0.45   0.49     0.06  -0.06   0.08     0.05   0.04  -0.01
  12   1     0.01  -0.01  -0.01     0.13  -0.13   0.19    -0.08  -0.10  -0.02
                      7                      8                      9
                        a                      a                      a 
 Frequencies --   639.9312               703.1588               731.1737
 Red. masses --    10.8139                14.4072                 3.3556
 Frc consts  --     0.0000                 0.0000                 0.0000
 IR Inten    --     0.7660                45.9808                27.5783
 Raman Activ --     0.0000                 0.0000                 0.0000
 Depolar     --     0.0000                 0.0000                 0.0000
 Atom AN      X      Y      Z        X      Y      Z        X      Y      Z
   1   6    -0.17   0.17  -0.25     0.28   0.08  -0.13    -0.08   0.08  -0.11
   2   6     0.19  -0.19   0.27     0.35   0.11  -0.16    -0.08   0.08  -0.11
   3   6    -0.18   0.19  -0.27    -0.14   0.23   0.25    -0.08   0.08  -0.12
   4   6     0.19  -0.19   0.27    -0.22  -0.32  -0.07    -0.08   0.08  -0.11
   5   6    -0.17   0.17  -0.25    -0.17  -0.26  -0.06    -0.08   0.08  -0.11
   6   1     0.02  -0.03   0.04     0.09  -0.08  -0.12     0.18  -0.18   0.26
   7   6     0.23  -0.24   0.34     0.13  -0.21  -0.23     0.14  -0.15   0.21
   8   1    -0.09   0.09  -0.13    -0.04   0.06   0.07     0.27  -0.27   0.40
   9   1    -0.09   0.10  -0.14     0.02   0.04   0.02     0.16  -0.17   0.24
  10   1    -0.09   0.10  -0.14    -0.04  -0.00   0.03     0.16  -0.17   0.24
  11  16    -0.01   0.01  -0.02    -0.15   0.25   0.27    -0.02   0.02  -0.03
  12   1     0.02  -0.03   0.04     0.04  -0.12  -0.11     0.18  -0.18   0.26
                     10                     11                     12
                        a                      a                      a 
 Frequencies --   848.9852               858.8841               909.4810
 Red. masses --     4.0130                 3.3152                 2.4016
 Frc consts  --     0.0000                 0.0000                 0.0000
 IR Inten    --     0.1124                 0.0001                 0.0497
 Raman Activ --     0.0000                 0.0000                 0.0000
 Depolar     --     0.0000                 0.0000                 0.0000
 Atom AN      X      Y      Z        X      Y      Z        X      Y      Z
   1   6     0.11  -0.12   0.17     0.11  -0.12   0.17    -0.04   0.04  -0.05
   2   6     0.02  -0.02   0.03     0.11  -0.11   0.16     0.08  -0.09   0.12
   3   6    -0.19   0.19  -0.28     0.00  -0.00   0.00    -0.06   0.06  -0.09
   4   6     0.02  -0.02   0.03    -0.11   0.11  -0.16     0.12  -0.12   0.17
   5   6     0.11  -0.12   0.17    -0.12   0.12  -0.17    -0.06   0.07  -0.09
   6   1    -0.02   0.02  -0.03    -0.20   0.21  -0.30    -0.23   0.23  -0.33
   7   6    -0.06   0.06  -0.08    -0.00  -0.00   0.00    -0.03   0.03  -0.05
   8   1     0.31  -0.31   0.46    -0.00   0.00  -0.00     0.16  -0.16   0.24
   9   1    -0.20   0.20  -0.29    -0.23   0.23  -0.34     0.14  -0.14   0.20
  10   1    -0.20   0.20  -0.29     0.23  -0.23   0.34     0.19  -0.19   0.27
  11  16     0.01  -0.01   0.01    -0.00   0.00   0.00    -0.00   0.00  -0.00
  12   1    -0.02   0.02  -0.02     0.20  -0.21   0.30    -0.28   0.28  -0.41
                     13                     14                     15
                        a                      a                      a 
 Frequencies --   911.6283               963.1749              1077.7716
 Red. masses --     3.8668                11.3324                 7.1575
 Frc consts  --     0.0000                 0.0000                 0.0000
 IR Inten    --     0.0028                 4.8570                 0.1111
 Raman Activ --     0.0000                 0.0000                 0.0000
 Depolar     --     0.0000                 0.0000                 0.0000
 Atom AN      X      Y      Z        X      Y      Z        X      Y      Z
   1   6     0.12  -0.13   0.18    -0.32  -0.41  -0.06     0.04  -0.11  -0.11
   2   6    -0.14   0.14  -0.21     0.22   0.08  -0.10    -0.32  -0.19   0.09
   3   6     0.01  -0.01   0.01    -0.15   0.26   0.28    -0.17   0.29   0.32
   4   6     0.12  -0.12   0.17    -0.15  -0.20  -0.04     0.27   0.27  -0.00
   5   6    -0.11   0.11  -0.16     0.46   0.18  -0.19     0.08  -0.09  -0.12
   6   1     0.25  -0.25   0.37     0.06   0.07   0.01    -0.11  -0.30  -0.13
   7   6     0.00  -0.00   0.01    -0.09   0.15   0.17     0.01  -0.02  -0.02
   8   1    -0.02   0.02  -0.03    -0.04   0.07   0.08    -0.05   0.08   0.09
   9   1    -0.22   0.22  -0.32    -0.11  -0.10   0.01     0.20  -0.10  -0.20
  10   1     0.18  -0.18   0.26     0.12   0.08  -0.03     0.00  -0.25  -0.18
  11  16     0.00  -0.00   0.00     0.03  -0.05  -0.06    -0.01   0.01   0.01
  12   1    -0.19   0.19  -0.28    -0.08  -0.03   0.03     0.29   0.01  -0.19
                     16                     17                     18
                        a                      a                      a 
 Frequencies --  1108.9277              1109.6466              1174.2059
 Red. masses --     9.8918                 4.5785                 1.3868
 Frc consts  --     0.0000                 0.0000                 0.0000
 IR Inten    --   271.3819                10.5855                 0.0656
 Raman Activ --     0.0000                 0.0000                 0.0000
 Depolar     --     0.0000                 0.0000                 0.0000
 Atom AN      X      Y      Z        X      Y      Z        X      Y      Z
   1   6     0.15   0.20   0.04    -0.03  -0.19  -0.11    -0.04   0.05   0.06
   2   6     0.23   0.03  -0.14    -0.13  -0.03   0.07     0.00   0.03   0.02
   3   6    -0.02  -0.06  -0.03     0.17   0.13  -0.03    -0.07  -0.05   0.01
   4   6    -0.08  -0.17  -0.07    -0.11  -0.20  -0.06     0.03  -0.01  -0.03
   5   6    -0.14  -0.09   0.03    -0.24   0.00   0.17     0.02  -0.06  -0.06
   6   1     0.06  -0.13  -0.13    -0.02   0.19   0.15     0.03   0.38   0.24
   7   6    -0.30   0.42   0.50     0.11   0.21   0.07     0.07   0.06  -0.01
   8   1    -0.06  -0.07  -0.00     0.36   0.27  -0.06    -0.56  -0.43   0.09
   9   1     0.20   0.02  -0.12     0.30  -0.15  -0.31     0.11  -0.02  -0.09
  10   1    -0.08  -0.32  -0.17    -0.04   0.27   0.21     0.02   0.13   0.07
  11  16     0.06  -0.10  -0.12     0.00  -0.03  -0.02     0.00   0.00  -0.00
  12   1     0.02  -0.07  -0.06     0.17  -0.13  -0.21     0.33  -0.11  -0.30
                     19                     20                     21
                        a                      a                      a 
 Frequencies --  1198.4154              1277.9600              1326.9123
 Red. masses --     2.1199                 3.9085                10.9397
 Frc consts  --     0.0000                 0.0000                 0.0000
 IR Inten    --     0.1776                 0.0465                 7.4760
 Raman Activ --     0.0000                 0.0000                 0.0000
 Depolar     --     0.0000                 0.0000                 0.0000
 Atom AN      X      Y      Z        X      Y      Z        X      Y      Z
   1   6     0.09  -0.05  -0.09     0.02  -0.08  -0.07    -0.32   0.06   0.26
   2   6    -0.02   0.10   0.08    -0.05  -0.15  -0.06    -0.04  -0.23  -0.13
   3   6    -0.02   0.04   0.04    -0.07  -0.05   0.01     0.37   0.28  -0.06
   4   6    -0.08   0.05   0.09    -0.14  -0.00   0.09    -0.20   0.05   0.17
   5   6     0.01  -0.11  -0.08    -0.05   0.05   0.07    -0.08  -0.36  -0.20
   6   1     0.02   0.43   0.28     0.01   0.25   0.17    -0.02  -0.16  -0.09
   7   6     0.06  -0.09  -0.10     0.33   0.25  -0.05     0.34   0.26  -0.05
   8   1    -0.01   0.01   0.01     0.17   0.13  -0.03    -0.13  -0.10   0.02
   9   1     0.31  -0.11  -0.29    -0.37   0.10   0.32     0.01  -0.02  -0.02
  10   1    -0.03  -0.37  -0.24    -0.06  -0.43  -0.25    -0.01   0.02   0.02
  11  16    -0.01   0.02   0.03    -0.01  -0.01   0.00     0.00   0.00  -0.00
  12   1    -0.35   0.13   0.33     0.21  -0.09  -0.21    -0.13   0.04   0.12
                     22                     23                     24
                        a                      a                      a 
 Frequencies --  1428.6547              1448.6444              1549.8033
 Red. masses --     9.2146                 8.0487                11.2865
 Frc consts  --     0.0000                 0.0000                 0.0000
 IR Inten    --    20.2438                21.5720                 2.6033
 Raman Activ --     0.0000                 0.0000                 0.0000
 Depolar     --     0.0000                 0.0000                 0.0000
 Atom AN      X      Y      Z        X      Y      Z        X      Y      Z
   1   6    -0.02   0.27   0.20     0.30  -0.00  -0.20    -0.27  -0.03   0.16
   2   6     0.14  -0.30  -0.30    -0.14  -0.28  -0.09     0.22   0.24   0.02
   3   6    -0.13  -0.10   0.02    -0.09   0.16   0.17    -0.47  -0.36   0.07
   4   6    -0.19   0.26   0.31     0.28   0.04  -0.16     0.28   0.14  -0.09
   5   6     0.21  -0.12  -0.23    -0.11  -0.31  -0.14    -0.13  -0.27  -0.10
   6   1     0.07   0.20   0.09    -0.02   0.22   0.17     0.05  -0.03  -0.05
   7   6    -0.25  -0.19   0.04    -0.12   0.20   0.22     0.31   0.23  -0.05
   8   1     0.26   0.20  -0.04    -0.03   0.05   0.05     0.14   0.11  -0.02
   9   1     0.13   0.04  -0.06    -0.21   0.10   0.21     0.06  -0.04  -0.07
  10   1     0.08   0.12   0.03     0.00   0.26   0.18    -0.01   0.08   0.06
  11  16     0.01   0.01  -0.00     0.01  -0.02  -0.02    -0.00  -0.00   0.00
  12   1     0.18  -0.00  -0.13    -0.18   0.10   0.19    -0.00   0.06   0.05
                     25                     26                     27
                        a                      a                      a 
 Frequencies --  1589.5026              3023.4232              3028.3376
 Red. masses --    11.4075                 1.7738                 1.7472
 Frc consts  --     0.0000                 0.0000                 0.0000
 IR Inten    --   234.9539                60.3679               211.7360
 Raman Activ --     0.0000                 0.0000                 0.0000
 Depolar     --     0.0000                 0.0000                 0.0000
 Atom AN      X      Y      Z        X      Y      Z        X      Y      Z
   1   6    -0.23   0.22   0.31     0.08   0.14   0.04    -0.08  -0.13  -0.04
   2   6     0.06  -0.38  -0.30    -0.06  -0.01   0.03     0.09   0.02  -0.04
   3   6    -0.08   0.14   0.15    -0.00  -0.00   0.00    -0.00   0.00   0.00
   4   6     0.29  -0.21  -0.34    -0.04  -0.06  -0.02    -0.05  -0.08  -0.02
   5   6    -0.09   0.32   0.29     0.15   0.03  -0.08     0.13   0.03  -0.07
   6   1     0.03   0.11   0.05     0.23   0.06  -0.12    -0.34  -0.09   0.17
   7   6     0.06  -0.11  -0.12     0.01   0.00  -0.00     0.00  -0.01  -0.01
   8   1    -0.02   0.03   0.04     0.00   0.00  -0.00     0.02  -0.03  -0.03
   9   1     0.09   0.01  -0.05    -0.29  -0.51  -0.15     0.29   0.49   0.14
  10   1    -0.04  -0.09  -0.03    -0.56  -0.13   0.30    -0.47  -0.11   0.25
  11  16     0.00  -0.01  -0.01    -0.00  -0.00   0.00    -0.00   0.00   0.00
  12   1    -0.10   0.01   0.07     0.14   0.24   0.07     0.19   0.31   0.08
                     28                     29                     30
                        a                      a                      a 
 Frequencies --  3040.3892              3044.6711              3073.0881
 Red. masses --     1.8642                 1.8050                 1.8925
 Frc consts  --     0.0000                 0.0000                 0.0000
 IR Inten    --   432.2495                11.2651               177.0727
 Raman Activ --     0.0000                 0.0000                 0.0000
 Depolar     --     0.0000                 0.0000                 0.0000
 Atom AN      X      Y      Z        X      Y      Z        X      Y      Z
   1   6     0.04   0.07   0.02    -0.05  -0.09  -0.02     0.02   0.04   0.01
   2   6     0.15   0.04  -0.08    -0.12  -0.03   0.06     0.08   0.02  -0.04
   3   6    -0.00  -0.00  -0.00     0.04  -0.07  -0.08     0.09  -0.15  -0.17
   4   6     0.09   0.15   0.04     0.07   0.11   0.03    -0.05  -0.07  -0.02
   5   6     0.07   0.02  -0.04     0.09   0.02  -0.04    -0.04  -0.01   0.02
   6   1    -0.54  -0.13   0.27     0.43   0.11  -0.22    -0.24  -0.06   0.12
   7   6    -0.00  -0.00   0.00     0.00  -0.01  -0.01    -0.00   0.00   0.00
   8   1    -0.00   0.00   0.00    -0.17   0.28   0.31    -0.31   0.53   0.58
   9   1    -0.13  -0.23  -0.07     0.17   0.29   0.08    -0.07  -0.13  -0.04
  10   1    -0.23  -0.05   0.12    -0.30  -0.07   0.15     0.13   0.03  -0.07
  11  16     0.00   0.00  -0.00    -0.00   0.00   0.00     0.00  -0.00  -0.00
  12   1    -0.32  -0.52  -0.15    -0.25  -0.40  -0.11     0.14   0.23   0.06
