12
 energy: -18.927384507713 gnorm: 0.043807138757 xtb: 6.7.1 (edcfbbe)
C           -3.23132600000000       -2.26494600000000        0.63837900000000
C           -2.71382000000000       -3.14004600000000       -0.32077200000000
C           -3.40733800000000       -4.30433300000000       -0.65323500000000
C           -4.61959100000000       -4.59322200000000       -0.02550200000000
C           -5.13854700000000       -3.71922700000000        0.93387400000000
H           -1.77077100000000       -2.90633800000000       -0.80289400000000
C           -4.44265600000000       -2.55716800000000        1.26317500000000
H           -3.00519500000000       -4.98297500000000       -1.39761400000000
H           -2.68649700000000       -1.35994300000000        0.89287100000000
H           -6.08300600000000       -3.94982900000000        1.41911000000000
S           -5.07842200000000       -1.48427300000000        2.44000200000000
H           -5.16642500000000       -5.49556900000000       -0.27678900000000
12
 energy: -18.928732628183 gnorm: 0.015336636857 xtb: 6.7.1 (edcfbbe)
C           -3.23125167461204       -2.27589669365162        0.63040807172404
C           -2.72141272839563       -3.14385215434420       -0.31829244750824
C           -3.40850093403285       -4.30232434324562       -0.65089277134398
C           -4.61366566651270       -4.58666552077729       -0.02518028132895
C           -5.12974110661825       -3.72346936364745        0.92450382876888
H           -1.78087312938990       -2.91167683153840       -0.79956652323443
C           -4.44495440043336       -2.55336771700907        1.26710666782035
H           -3.00745460529326       -4.97896710496501       -1.39267892345216
H           -2.69356161033680       -1.37215190455014        0.88871624862530
H           -6.07042507400890       -3.94710515988267        1.41205915579154
S           -5.08349898282640       -1.47546113555263        2.45076362161970
H           -5.15825408753991       -5.48693107083591       -0.27634164748205
12
 energy: -18.928892994812 gnorm: 0.002355048381 xtb: 6.7.1 (edcfbbe)
C           -3.23099100909879       -2.28086988149665        0.62663772255973
C           -2.72358043651000       -3.14566417396270       -0.31808084009630
C           -3.40738038742426       -4.30418234920499       -0.65279430077969
C           -4.61137487971647       -4.58507331428099       -0.02567207528208
C           -5.12575802638108       -3.72568483992384        0.92021135841004
H           -1.78315944188213       -2.91279269661015       -0.79879419676370
C           -4.44629524277472       -2.55105163126315        1.26983548925445
H           -3.00663471932842       -4.98026528321240       -1.39377272571344
H           -2.69997650198165       -1.37497728193694        0.89068943910869
H           -6.06571531942968       -3.94152619415346        1.41239955829658
S           -5.08616428386766       -1.47090137015315        2.45623636565604
H           -5.15656375160514       -5.48487998380159       -0.27629079465033
12
 energy: -18.928899337723 gnorm: 0.000865452427 xtb: 6.7.1 (edcfbbe)
C           -3.23081025026928       -2.28112763171154        0.62632474412232
C           -2.72331694922712       -3.14584191412216       -0.31835612533348
C           -3.40684281541251       -4.30508494180162       -0.65376654192867
C           -4.61133571363806       -4.58540239291628       -0.02593270182969
C           -5.12561832959441       -3.72596638301422        0.91989163679270
H           -1.78259959656950       -2.91262924216064       -0.79909254279882
C           -4.44646435343776       -2.55077846766467        1.27006690605182
H           -3.00614117348790       -4.98109071234620       -1.39464380010601
H           -2.70158458229827       -1.37417116363109        0.89235701731623
H           -6.06574626963083       -3.93953602705471        1.41383777211685
S           -5.08621313703285       -1.47083020775154        2.45636056326982
H           -5.15692082940150       -5.48540991582533       -0.27644192767307
12
 energy: -18.928900191226 gnorm: 0.000316903170 xtb: 6.7.1 (edcfbbe)
C           -3.23056540612854       -2.28108248909749        0.62621284932617
C           -2.72308763437745       -3.14581247204932       -0.31851939018529
C           -3.40662902298754       -4.30545373920092       -0.65420807032210
C           -4.61144047190453       -4.58564971602332       -0.02602648030912
C           -5.12573441599978       -3.72620876051326        0.91984412363498
H           -1.78213813054741       -2.91257991519907       -0.79935199507688
C           -4.44640210889305       -2.55086154252123        1.27004367572658
H           -3.00598453040717       -4.98135961861068       -1.39497763796219
H           -2.70258537440880       -1.37341870124768        0.89357932928599
H           -6.06598550979337       -3.93818125025436        1.41493185320288
S           -5.08590499131944       -1.47138833756214        2.45567279363219
H           -5.15713640323291       -5.48587245772052       -0.27659605095321
