 Entering Gaussian System
 *********************************************
 Gaussian 98:
 frequency output generated by the xtb code
 *********************************************
                         Standard orientation:
 --------------------------------------------------------------------
  Center     Atomic     Atomic              Coordinates (Angstroms)
  Number     Number      Type              X           Y           Z
 --------------------------------------------------------------------
    1          6             0       -6.280941   -4.180102    0.831359
    2          6             0       -7.350335   -4.589258    1.553593
    3          1             0       -6.159680   -4.462420   -0.207901
    4          1             0       -5.505892   -3.557517    1.257595
    5          8             0       -7.652448   -4.361404    2.758423
    6          1             0       -8.074314   -5.239159    0.957454
 --------------------------------------------------------------------
     1 basis functions        1 primitive gaussians
     1 alpha electrons        1 beta electrons
 
 Harmonic frequencies (cm**-1), IR intensities (km*mol⁻¹),
 Raman scattering activities (A**4/amu), Raman depolarization ratios,
 reduced masses (AMU), force constants (mDyne/A) and normal coordinates:
                      1                      2                      3
                        a                      a                      a 
 Frequencies --   512.3553               542.4362               665.8692
 Red. masses --     9.1927                 4.3608                 5.0395
 Frc consts  --     0.0000                 0.0000                 0.0000
 IR Inten    --    11.2476                45.5614                16.9089
 Raman Activ --     0.0000                 0.0000                 0.0000
 Depolar     --     0.0000                 0.0000                 0.0000
 Atom AN      X      Y      Z        X      Y      Z        X      Y      Z
   1   6    -0.14   0.02   0.30    -0.25   0.41  -0.14     0.05  -0.08   0.03
   2   6    -0.34  -0.29  -0.24     0.11  -0.18   0.06    -0.25   0.41  -0.14
   3   1     0.26   0.18   0.08     0.31  -0.50   0.17     0.34  -0.56   0.19
   4   1    -0.23   0.01   0.42     0.28  -0.45   0.16    -0.22   0.36  -0.12
   5   8     0.44   0.21  -0.18    -0.01   0.02  -0.01     0.14  -0.23   0.08
   6   1    -0.14  -0.08   0.01    -0.06   0.10  -0.03     0.02  -0.03   0.01
                      4                      5                      6
                        a                      a                      a 
 Frequencies --   973.6383              1010.0632              1240.4974
 Red. masses --     3.0342                 6.2285                10.0422
 Frc consts  --     0.0000                 0.0000                 0.0000
 IR Inten    --    10.5675                12.6960                85.0504
 Raman Activ --     0.0000                 0.0000                 0.0000
 Depolar     --     0.0000                 0.0000                 0.0000
 Atom AN      X      Y      Z        X      Y      Z        X      Y      Z
   1   6     0.00  -0.01   0.00     0.05  -0.14  -0.51    -0.38  -0.20   0.09
   2   6     0.21  -0.34   0.12     0.11   0.09   0.06     0.40   0.35   0.29
   3   1     0.05  -0.08   0.03     0.51   0.27  -0.15    -0.15  -0.07   0.06
   4   1    -0.22   0.36  -0.12    -0.24  -0.03   0.36    -0.28  -0.06   0.35
   5   8    -0.04   0.07  -0.02    -0.19  -0.02   0.30     0.07  -0.10  -0.42
   6   1    -0.39   0.64  -0.22    -0.06   0.01   0.14     0.10   0.04  -0.04
                      7                      8                      9
                        a                      a                      a 
 Frequencies --  1394.5756              1455.1036              1718.3611
 Red. masses --     2.8600                 4.2532                11.4457
 Frc consts  --     0.0000                 0.0000                 0.0000
 IR Inten    --     7.6334               107.2879               561.1812
 Raman Activ --     0.0000                 0.0000                 0.0000
 Depolar     --     0.0000                 0.0000                 0.0000
 Atom AN      X      Y      Z        X      Y      Z        X      Y      Z
   1   6    -0.17  -0.11  -0.02     0.27   0.12  -0.15    -0.35  -0.12   0.27
   2   6    -0.03  -0.04  -0.07     0.03  -0.08  -0.29     0.46   0.06  -0.64
   3   1     0.07   0.04  -0.01    -0.55  -0.34   0.01     0.06   0.06   0.06
   4   1    -0.04  -0.02   0.00    -0.26   0.01   0.49     0.01  -0.04  -0.14
   5   8     0.03   0.11   0.27    -0.06   0.05   0.25    -0.10   0.04   0.28
   6   1     0.53   0.06  -0.76     0.00   0.00  -0.00    -0.04   0.05   0.22
                     10                     11                     12
                        a                      a                      a 
 Frequencies --  2347.5273              2990.2080              3027.5106
 Red. masses --     1.6528                 1.7526                 1.7980
 Frc consts  --     0.0000                 0.0000                 0.0000
 IR Inten    --   647.4234               210.2812               194.4876
 Raman Activ --     0.0000                 0.0000                 0.0000
 Depolar     --     0.0000                 0.0000                 0.0000
 Atom AN      X      Y      Z        X      Y      Z        X      Y      Z
   1   6     0.01   0.01   0.02    -0.04   0.06   0.25    -0.19  -0.15  -0.11
   2   6     0.18   0.12   0.02     0.02   0.01   0.01     0.01  -0.00  -0.02
   3   1    -0.01   0.01   0.03     0.10  -0.26  -0.92    -0.04  -0.01   0.03
   4   1     0.01   0.00  -0.03     0.02   0.03   0.05     0.69   0.55   0.39
   5   8    -0.01   0.02   0.08    -0.00  -0.00   0.00     0.00   0.00   0.00
   6   1    -0.64  -0.56  -0.48    -0.02  -0.02  -0.01    -0.01  -0.00   0.01
