6
 energy: -9.997984638939 gnorm: 0.139524320440 xtb: 6.7.1 (edcfbbe)
C           -6.31583300000000       -4.19177100000000        0.86006100000000
C           -7.39742200000000       -4.64152600000000        1.48696700000000
H           -6.14733300000000       -4.44253800000000       -0.17827000000000
H           -5.59156000000000       -3.57145500000000        1.37553400000000
O           -7.44212800000000       -4.26959400000000        2.64417700000000
H           -8.12921700000000       -5.27320000000000        0.96186400000000
6
 energy: -10.016430157884 gnorm: 0.047556135031 xtb: 6.7.1 (edcfbbe)
C           -6.29648499294689       -4.19041216827275        0.82921790484112
C           -7.38577163992928       -4.62519466123202        1.51217962043638
H           -6.11891633095156       -4.43983310463079       -0.21795507495959
H           -5.57029470593893       -3.57284329620908        1.33075757512891
O           -7.53202218380267       -4.29638206015912        2.73018139209253
H           -8.12000314643066       -5.26541870949623        0.96595158246066
6
 energy: -10.019684837662 gnorm: 0.033364313266 xtb: 6.7.1 (edcfbbe)
C           -6.28860961275295       -4.18922797350605        0.81956767246249
C           -7.36975559769230       -4.61166051675103        1.52671406629133
H           -6.12054402664444       -4.44393309213026       -0.22470115690526
H           -5.54952173079050       -3.56913033789429        1.30066121003675
O           -7.58927799721273       -4.32283152656168        2.75688547491196
H           -8.10578403490707       -5.25330055315669        0.97120573320274
6
 energy: -10.020718664297 gnorm: 0.024868137642 xtb: 6.7.1 (edcfbbe)
C           -6.28520880243633       -4.18639836662420        0.81799335272292
C           -7.35969560701499       -4.59828681394836        1.53668870017659
H           -6.12965665827861       -4.44910209132275       -0.22237861235593
H           -5.52988614060711       -3.56563081563486        1.28018766094200
O           -7.62595651485035       -4.34394166210487        2.76371143756939
H           -8.09308927681260       -5.24672425036496        0.97413046094504
6
 energy: -10.021120308242 gnorm: 0.013546405362 xtb: 6.7.1 (edcfbbe)
C           -6.28183207950137       -4.18680965367212        0.82262677297033
C           -7.34821871003025       -4.59928956978200        1.54779684730003
H           -6.14137250144115       -4.45397747533491       -0.21696146776733
H           -5.51887303716506       -3.55823698570925        1.26649358442113
O           -7.64574145839969       -4.35485028655925        2.76039502113959
H           -8.08745521346247       -5.23692002894247        0.96998224193626
6
 energy: -10.021144083954 gnorm: 0.008611325203 xtb: 6.7.1 (edcfbbe)
C           -6.28479490963553       -4.17700296669869        0.82647582256518
C           -7.35607703709489       -4.57420496563174        1.54888971793034
H           -6.15475355229861       -4.46053826090106       -0.20991985939340
H           -5.50210371495106       -3.56410747244081        1.26002628524086
O           -7.65507965781587       -4.36722851225327        2.75686164334158
H           -8.07068412820403       -5.24700182207442        0.96799939031543
6
 energy: -10.021290514028 gnorm: 0.002841582123 xtb: 6.7.1 (edcfbbe)
C           -6.28185938943156       -4.18165526738919        0.82903816900256
C           -7.34929320349586       -4.58968677757616        1.55269533678567
H           -6.15500589505221       -4.46086509767828       -0.20976812844481
H           -5.50857323940613       -3.55752187590617        1.25968827115586
O           -7.65151530330290       -4.36195712726613        2.75663964016583
H           -8.07724596931133       -5.23839785418407        0.96203971133490
6
 energy: -10.021297998310 gnorm: 0.001158445188 xtb: 6.7.1 (edcfbbe)
C           -6.28151672281599       -4.18113474246539        0.82980117847327
C           -7.34980184675321       -4.58988119588347        1.55281153304331
H           -6.15666950397083       -4.46110543519027       -0.20937887488949
H           -5.50781291453268       -3.55788768663544        1.25937658419884
O           -7.65141841316569       -4.36098123514478        2.75755304957680
H           -8.07627359876160       -5.23909370468064        0.96016952959727
6
 energy: -10.021299776304 gnorm: 0.000487763559 xtb: 6.7.1 (edcfbbe)
C           -6.28092111347672       -4.18013583883703        0.83132958715229
C           -7.35031610270879       -4.58929854333365        1.55355877453102
H           -6.15965571752358       -4.46245103988554       -0.20793024907632
H           -5.50587711122171       -3.55754762469556        1.25756989456095
O           -7.65243361717356       -4.36144853299112        2.75838867506378
H           -8.07428933789564       -5.23920242025710        0.95741631776828
