
                                 *****************
                                 * O   R   C   A *
                                 *****************

                                            #,                                       
                                            ###                                      
                                            ####                                     
                                            #####                                    
                                            ######                                   
                                           ########,                                 
                                     ,,################,,,,,                         
                               ,,#################################,,                 
                          ,,##########################################,,             
                       ,#########################################, ''#####,          
                    ,#############################################,,   '####,        
                  ,##################################################,,,,####,       
                ,###########''''           ''''###############################       
              ,#####''   ,,,,##########,,,,          '''####'''          '####       
            ,##' ,,,,###########################,,,                        '##       
           ' ,,###''''                  '''############,,,                           
         ,,##''                                '''############,,,,        ,,,,,,###''
      ,#''                                            '''#######################'''  
     '                                                          ''''####''''         
             ,#######,   #######,   ,#######,      ##                                
            ,#'     '#,  ##    ##  ,#'     '#,    #''#        ######   ,####,        
            ##       ##  ##   ,#'  ##            #'  '#       #        #'  '#        
            ##       ##  #######   ##           ,######,      #####,   #    #        
            '#,     ,#'  ##    ##  '#,     ,#' ,#      #,         ##   #,  ,#        
             '#######'   ##     ##  '#######'  #'      '#     #####' # '####'        



                  #######################################################
                  #                        -***-                        #
                  #          Department of theory and spectroscopy      #
                  #    Directorship and core code : Frank Neese         #
                  #        Max Planck Institute fuer Kohlenforschung    #
                  #                Kaiser Wilhelm Platz 1               #
                  #                 D-45470 Muelheim/Ruhr               #
                  #                      Germany                        #
                  #                                                     #
                  #                  All rights reserved                #
                  #                        -***-                        #
                  #######################################################


                         Program Version 5.0.4 -  RELEASE  -


 With contributions from (in alphabetic order):
   Daniel Aravena         : Magnetic Suceptibility
   Michael Atanasov       : Ab Initio Ligand Field Theory (pilot matlab implementation)
   Alexander A. Auer      : GIAO ZORA, VPT2 properties, NMR spectrum
   Ute Becker             : Parallelization
   Giovanni Bistoni       : ED, misc. LED, open-shell LED, HFLD
   Martin Brehm           : Molecular dynamics
   Dmytro Bykov           : SCF Hessian
   Vijay G. Chilkuri      : MRCI spin determinant printing, contributions to CSF-ICE
   Dipayan Datta          : RHF DLPNO-CCSD density
   Achintya Kumar Dutta   : EOM-CC, STEOM-CC
   Dmitry Ganyushin       : Spin-Orbit,Spin-Spin,Magnetic field MRCI
   Miquel Garcia          : C-PCM and meta-GGA Hessian, CC/C-PCM, Gaussian charge scheme
   Yang Guo               : DLPNO-NEVPT2, F12-NEVPT2, CIM, IAO-localization
   Andreas Hansen         : Spin unrestricted coupled pair/coupled cluster methods
   Benjamin Helmich-Paris : MC-RPA, TRAH-SCF, COSX integrals
   Lee Huntington         : MR-EOM, pCC
   Robert Izsak           : Overlap fitted RIJCOSX, COSX-SCS-MP3, EOM
   Marcus Kettner         : VPT2
   Christian Kollmar      : KDIIS, OOCD, Brueckner-CCSD(T), CCSD density, CASPT2, CASPT2-K
   Simone Kossmann        : Meta GGA functionals, TD-DFT gradient, OOMP2, MP2 Hessian
   Martin Krupicka        : Initial AUTO-CI
   Lucas Lang             : DCDCAS
   Marvin Lechner         : AUTO-CI (C++ implementation), FIC-MRCC
   Dagmar Lenk            : GEPOL surface, SMD
   Dimitrios Liakos       : Extrapolation schemes; Compound Job, initial MDCI parallelization
   Dimitrios Manganas     : Further ROCIS development; embedding schemes
   Dimitrios Pantazis     : SARC Basis sets
   Anastasios Papadopoulos: AUTO-CI, single reference methods and gradients
   Taras Petrenko         : DFT Hessian,TD-DFT gradient, ASA, ECA, R-Raman, ABS, FL, XAS/XES, NRVS
   Peter Pinski           : DLPNO-MP2, DLPNO-MP2 Gradient
   Christoph Reimann      : Effective Core Potentials
   Marius Retegan         : Local ZFS, SOC
   Christoph Riplinger    : Optimizer, TS searches, QM/MM, DLPNO-CCSD(T), (RO)-DLPNO pert. Triples
   Tobias Risthaus        : Range-separated hybrids, TD-DFT gradient, RPA, STAB
   Michael Roemelt        : Original ROCIS implementation
   Masaaki Saitow         : Open-shell DLPNO-CCSD energy and density
   Barbara Sandhoefer     : DKH picture change effects
   Avijit Sen             : IP-ROCIS
   Kantharuban Sivalingam : CASSCF convergence, NEVPT2, FIC-MRCI
   Bernardo de Souza      : ESD, SOC TD-DFT
   Georgi Stoychev        : AutoAux, RI-MP2 NMR, DLPNO-MP2 response
   Willem Van den Heuvel  : Paramagnetic NMR
   Boris Wezisla          : Elementary symmetry handling
   Frank Wennmohs         : Technical directorship


 We gratefully acknowledge several colleagues who have allowed us to
 interface, adapt or use parts of their codes:
   Stefan Grimme, W. Hujo, H. Kruse, P. Pracht,  : VdW corrections, initial TS optimization,
                  C. Bannwarth, S. Ehlert          DFT functionals, gCP, sTDA/sTD-DF
   Ed Valeev, F. Pavosevic, A. Kumar             : LibInt (2-el integral package), F12 methods
   Garnet Chan, S. Sharma, J. Yang, R. Olivares  : DMRG
   Ulf Ekstrom                                   : XCFun DFT Library
   Mihaly Kallay                                 : mrcc  (arbitrary order and MRCC methods)
   Jiri Pittner, Ondrej Demel                    : Mk-CCSD
   Frank Weinhold                                : gennbo (NPA and NBO analysis)
   Christopher J. Cramer and Donald G. Truhlar   : smd solvation model
   Lars Goerigk                                  : TD-DFT with DH, B97 family of functionals
   V. Asgeirsson, H. Jonsson                     : NEB implementation
   FAccTs GmbH                                   : IRC, NEB, NEB-TS, DLPNO-Multilevel, CI-OPT
                                                   MM, QMMM, 2- and 3-layer-ONIOM, Crystal-QMMM,
                                                   LR-CPCM, SF, NACMEs, symmetry and pop. for TD-DFT,
                                                   nearIR, NL-DFT gradient (VV10), updates on ESD,
                                                   ML-optimized integration grids
   S Lehtola, MJT Oliveira, MAL Marques          : LibXC Library
   Liviu Ungur et al                             : ANISO software


 Your calculation uses the libint2 library for the computation of 2-el integrals
 For citations please refer to: http://libint.valeyev.net

 Your ORCA version has been built with support for libXC version: 5.1.0
 For citations please refer to: https://tddft.org/programs/libxc/

 This ORCA versions uses:
   CBLAS   interface :  Fast vector & matrix operations
   LAPACKE interface :  Fast linear algebra routines
   SCALAPACK package :  Parallel linear algebra routines
   Shared memory     :  Shared parallel matrices
   BLAS/LAPACK       :  OpenBLAS 0.3.15  USE64BITINT DYNAMIC_ARCH NO_AFFINITY Haswell SINGLE_THREADED
        Core in use  :  Haswell
   Copyright (c) 2011-2014, The OpenBLAS Project


Your calculation utilizes the atom-pairwise dispersion correction
with the Becke-Johnson damping scheme (D3BJ)
Cite in your paper:
S.Grimme, S.Ehrlich, L.Goerigk, J Comput Chem, (2011), 32, 1456–1465 
S.Grimme, J.Antony, S.Ehrlich and H.Krieg, J.Chem.Phys., 132, (2010), 154104 
   

================================================================================

----- Orbital basis set information -----
Your calculation utilizes the basis: def2-TZVP
   F. Weigend and R. Ahlrichs, Phys. Chem. Chem. Phys. 7, 3297 (2005).

----- AuxJ basis set information -----
Your calculation utilizes the auxiliary basis: def2/J
   F. Weigend, Phys. Chem. Chem. Phys. 8, 1057 (2006).

================================================================================
                                        WARNINGS
                       Please study these warnings very carefully!
================================================================================


WARNING: Geometry Optimization
  ===> : Switching off AutoStart
         For restart on a previous wavefunction, please use MOREAD

INFO   : the flag for use of the SHARK integral package has been found!

================================================================================
                                       INPUT FILE
================================================================================
NAME = inp.inp
|  1> !OPT PBE D3BJ def2-TZVP CPCM(water)
|  2> 
|  3> *xyz -1 1
|  4> C     -6.320958   -3.546488    2.042860
|  5> C     -6.002477   -4.021951    0.755411
|  6> O     -9.379714   -5.321527    2.924900
|  7> H     -7.635288   -3.574428    3.752392
|  8> C     -6.903922   -4.972822    0.240816
|  9> O     -4.980161   -3.624213    0.106552
| 10> C     -8.032560   -5.420423    0.941757
| 11> H     -9.847623   -5.970252    2.376807
| 12> C     -8.292321   -4.914254    2.206168
| 13> H     -8.676217   -6.154566    0.474370
| 14> C     -7.442961   -3.977171    2.765560
| 15> H     -5.660412   -2.808031    2.495438
| 16> H     -6.708965   -5.376871   -0.751884
| 17> *
| 18> 
| 19>                          ****END OF INPUT****
================================================================================

                       *****************************
                       * Geometry Optimization Run *
                       *****************************

Geometry optimization settings:
Update method            Update   .... BFGS
Choice of coordinates    CoordSys .... Z-matrix Internals
Initial Hessian          InHess   .... Almoef's Model

Convergence Tolerances:
Energy Change            TolE     ....  5.0000e-06 Eh
Max. Gradient            TolMAXG  ....  3.0000e-04 Eh/bohr
RMS Gradient             TolRMSG  ....  1.0000e-04 Eh/bohr
Max. Displacement        TolMAXD  ....  4.0000e-03 bohr
RMS Displacement         TolRMSD  ....  2.0000e-03 bohr
Strict Convergence                ....  False
------------------------------------------------------------------------------
                        ORCA OPTIMIZATION COORDINATE SETUP
------------------------------------------------------------------------------

The optimization will be done in new redundant internal coordinates
Making redundant internal coordinates   ...  (new redundants) done
Evaluating the initial hessian          ...  (Almloef) done
Evaluating the coordinates              ...  done
Calculating the B-matrix                .... done
Calculating the G-matrix                .... done
Diagonalizing the G-matrix              .... done
The first mode is                       ....   25
The number of degrees of freedom        ....   33

    -----------------------------------------------------------------
                    Redundant Internal Coordinates


    -----------------------------------------------------------------
         Definition                    Initial Value    Approx d2E/dq
    -----------------------------------------------------------------
      1. B(C   1,C   0)                  1.4089         0.582872   
      2. B(C   4,C   1)                  1.4077         0.585503   
      3. B(O   5,C   1)                  1.2745         0.855367   
      4. B(C   6,C   4)                  1.4020         0.597942   
      5. B(H   7,O   2)                  0.9696         0.501877   
      6. B(C   8,C   6)                  1.3865         0.632852   
      7. B(C   8,O   2)                  1.3656         0.612068   
      8. B(H   9,C   6)                  1.0825         0.370219   
      9. B(C  10,C   8)                  1.3829         0.641270   
     10. B(C  10,H   3)                  1.0831         0.369392   
     11. B(C  10,C   0)                  1.4024         0.597014   
     12. B(H  11,C   0)                  1.0893         0.361093   
     13. B(H  12,C   4)                  1.0894         0.360940   
     14. A(C  10,C   0,H  11)          118.6374         0.350825   
     15. A(C   1,C   0,C  10)          123.2386         0.426379   
     16. A(C   1,C   0,H  11)          118.1241         0.349408   
     17. A(C   0,C   1,C   4)          114.6610         0.424896   
     18. A(C   4,C   1,O   5)          122.5719         0.452345   
     19. A(C   0,C   1,O   5)          122.7671         0.451975   
     20. A(H   7,O   2,C   8)          106.6356         0.367062   
     21. A(C   6,C   4,H  12)          118.7679         0.350892   
     22. A(C   1,C   4,H  12)          117.9733         0.349649   
     23. A(C   1,C   4,C   6)          123.2588         0.426842   
     24. A(C   4,C   6,C   8)          119.3546         0.432841   
     25. A(C   8,C   6,H   9)          122.0022         0.355806   
     26. A(C   4,C   6,H   9)          118.6432         0.352401   
     27. A(O   2,C   8,C   6)          121.3501         0.431819   
     28. A(C   6,C   8,C  10)          120.0786         0.438329   
     29. A(O   2,C   8,C  10)          118.5712         0.432846   
     30. A(H   3,C  10,C   8)          120.7619         0.356469   
     31. A(C   0,C  10,C   8)          119.4085         0.433750   
     32. A(C   0,C  10,H   3)          119.8296         0.352175   
     33. D(O   5,C   1,C   0,C  10)    180.0000         0.023352   
     34. D(C   4,C   1,C   0,H  11)    179.9999         0.023352   
     35. D(O   5,C   1,C   0,H  11)     -0.0001         0.023352   
     36. D(C   4,C   1,C   0,C  10)     -0.0001         0.023352   
     37. D(C   6,C   4,C   1,C   0)      0.0003         0.023574   
     38. D(H  12,C   4,C   1,C   0)   -179.9996         0.023574   
     39. D(C   6,C   4,C   1,O   5)   -179.9997         0.023574   
     40. D(H  12,C   4,C   1,O   5)      0.0003         0.023574   
     41. D(H   9,C   6,C   4,H  12)     -0.0003         0.024639   
     42. D(H   9,C   6,C   4,C   1)    179.9998         0.024639   
     43. D(C   8,C   6,C   4,H  12)    179.9997         0.024639   
     44. D(C   8,C   6,C   4,C   1)     -0.0002         0.024639   
     45. D(O   2,C   8,C   6,C   4)   -180.0000         0.027785   
     46. D(C  10,C   8,O   2,H   7)    179.9995         0.027435   
     47. D(C   6,C   8,O   2,H   7)     -0.0005         0.027435   
     48. D(C  10,C   8,C   6,H   9)    180.0000         0.027785   
     49. D(C  10,C   8,C   6,C   4)     -0.0000         0.027785   
     50. D(O   2,C   8,C   6,H   9)      0.0000         0.027785   
     51. D(H   3,C  10,C   8,C   6)   -179.9999         0.028579   
     52. D(H   3,C  10,C   8,O   2)      0.0001         0.028579   
     53. D(C   0,C  10,C   8,C   6)      0.0002         0.028579   
     54. D(C   0,C  10,C   8,O   2)   -179.9998         0.028579   
     55. D(C   8,C  10,C   0,H  11)    179.9999         0.024558   
     56. D(C   8,C  10,C   0,C   1)     -0.0002         0.024558   
     57. D(H   3,C  10,C   0,H  11)     -0.0000         0.024558   
     58. D(H   3,C  10,C   0,C   1)    179.9999         0.024558   
    -----------------------------------------------------------------

Number of atoms                         .... 13
Number of degrees of freedom            .... 58

         *************************************************************
         *                GEOMETRY OPTIMIZATION CYCLE   1            *
         *************************************************************
---------------------------------
CARTESIAN COORDINATES (ANGSTROEM)
---------------------------------
  C     -6.320958   -3.546488    2.042860
  C     -6.002477   -4.021951    0.755411
  O     -9.379714   -5.321527    2.924900
  H     -7.635288   -3.574428    3.752392
  C     -6.903922   -4.972822    0.240816
  O     -4.980161   -3.624213    0.106552
  C     -8.032560   -5.420423    0.941757
  H     -9.847623   -5.970252    2.376807
  C     -8.292321   -4.914254    2.206168
  H     -8.676217   -6.154566    0.474370
  C     -7.442961   -3.977171    2.765560
  H     -5.660412   -2.808031    2.495438
  H     -6.708965   -5.376871   -0.751884

----------------------------
CARTESIAN COORDINATES (A.U.)
----------------------------
  NO LB      ZA    FRAG     MASS         X           Y           Z
   0 C     6.0000    0    12.011  -11.944880   -6.701891    3.860446
   1 C     6.0000    0    12.011  -11.343038   -7.600386    1.427520
   2 O     8.0000    0    15.999  -17.725091  -10.056229    5.527260
   3 H     1.0000    0     1.008  -14.428603   -6.754690    7.090993
   4 C     6.0000    0    12.011  -13.046522   -9.397272    0.455076
   5 O     8.0000    0    15.999   -9.411140   -6.848770    0.201354
   6 C     6.0000    0    12.011  -15.179339  -10.243115    1.779663
   7 H     1.0000    0     1.008  -18.609311  -11.282141    4.491514
   8 C     6.0000    0    12.011  -15.670216   -9.286594    4.169053
   9 H     1.0000    0     1.008  -16.395674  -11.630444    0.896429
  10 C     6.0000    0    12.011  -14.065158   -7.515764    5.226151
  11 H     1.0000    0     1.008  -10.696628   -5.306410    4.715694
  12 H     1.0000    0     1.008  -12.678106  -10.160814   -1.420855

--------------------------------
INTERNAL COORDINATES (ANGSTROEM)
--------------------------------
 C      0   0   0     0.000000000000     0.00000000     0.00000000
 C      1   0   0     1.408907427524     0.00000000     0.00000000
 O      1   2   0     3.644824588462   104.26980542     0.00000000
 H      1   2   3     2.156558288460   149.06708822     0.00000000
 C      2   1   3     1.407681342027   114.66098852     0.00000000
 O      2   1   3     1.274497360680   122.76712086   179.99983382
 C      5   2   1     1.401958870911   123.25875751     0.00000000
 H      3   1   2     0.969633381519   126.44158662     0.00000000
 C      3   1   2     1.365602621849    19.80602499     0.00000000
 H      7   5   2     1.082455951005   118.64323364   179.99977301
 C      4   1   2     1.083064631129    34.34184494     0.00000000
 H      1   2   3     1.089250478563   118.12407988   180.00006107
 H      5   2   1     1.089365464961   117.97329869   180.00036504

---------------------------
INTERNAL COORDINATES (A.U.)
---------------------------
 C      0   0   0     0.000000000000     0.00000000     0.00000000
 C      1   0   0     2.662449186067     0.00000000     0.00000000
 O      1   2   0     6.887720278375   104.26980542     0.00000000
 H      1   2   3     4.075304557027   149.06708822     0.00000000
 C      2   1   3     2.660132220262   114.66098852     0.00000000
 O      2   1   3     2.408450970091   122.76712086   179.99983382
 C      5   2   1     2.649318317043   123.25875751     0.00000000
 H      3   1   2     1.832341541378   126.44158662     0.00000000
 C      3   1   2     2.580614963060    19.80602499     0.00000000
 H      7   5   2     2.045545299433   118.64323364   179.99977301
 C      4   1   2     2.046695538170    34.34184494     0.00000000
 H      1   2   3     2.058385095726   118.12407988   180.00006107
 H      5   2   1     2.058602388528   117.97329869   180.00036504

---------------------
BASIS SET INFORMATION
---------------------
There are 3 groups of distinct atoms

 Group   1 Type C   : 11s6p2d1f contracted to 5s3p2d1f pattern {62111/411/11/1}
 Group   2 Type O   : 11s6p2d1f contracted to 5s3p2d1f pattern {62111/411/11/1}
 Group   3 Type H   : 5s1p contracted to 3s1p pattern {311/1}

Atom   0C    basis set group =>   1
Atom   1C    basis set group =>   1
Atom   2O    basis set group =>   2
Atom   3H    basis set group =>   3
Atom   4C    basis set group =>   1
Atom   5O    basis set group =>   2
Atom   6C    basis set group =>   1
Atom   7H    basis set group =>   3
Atom   8C    basis set group =>   1
Atom   9H    basis set group =>   3
Atom  10C    basis set group =>   1
Atom  11H    basis set group =>   3
Atom  12H    basis set group =>   3
---------------------------------
AUXILIARY/J BASIS SET INFORMATION
---------------------------------
There are 3 groups of distinct atoms

 Group   1 Type C   : 12s5p4d2f1g contracted to 6s4p3d1f1g pattern {711111/2111/211/2/1}
 Group   2 Type O   : 12s5p4d2f1g contracted to 6s4p3d1f1g pattern {711111/2111/211/2/1}
 Group   3 Type H   : 5s2p1d contracted to 3s1p1d pattern {311/2/1}

Atom   0C    basis set group =>   1
Atom   1C    basis set group =>   1
Atom   2O    basis set group =>   2
Atom   3H    basis set group =>   3
Atom   4C    basis set group =>   1
Atom   5O    basis set group =>   2
Atom   6C    basis set group =>   1
Atom   7H    basis set group =>   3
Atom   8C    basis set group =>   1
Atom   9H    basis set group =>   3
Atom  10C    basis set group =>   1
Atom  11H    basis set group =>   3
Atom  12H    basis set group =>   3
------------------------------------------------------------------------------
                           ORCA GTO INTEGRAL CALCULATION
                           -- RI-GTO INTEGRALS CHOSEN --
------------------------------------------------------------------------------
------------------------------------------------------------------------------
                   ___                                                        
                  /   \      - P O W E R E D   B Y -                         
                 /     \                                                     
                 |  |  |   _    _      __       _____    __    __             
                 |  |  |  | |  | |    /  \     |  _  \  |  |  /  |          
                  \  \/   | |  | |   /    \    | | | |  |  | /  /          
                 / \  \   | |__| |  /  /\  \   | |_| |  |  |/  /          
                |  |  |   |  __  | /  /__\  \  |    /   |      \           
                |  |  |   | |  | | |   __   |  |    \   |  |\   \          
                \     /   | |  | | |  |  |  |  | |\  \  |  | \   \       
                 \___/    |_|  |_| |__|  |__|  |_| \__\ |__|  \__/        
                                                                              
                      - O R C A' S   B I G   F R I E N D -                    
                                      &                                       
                       - I N T E G R A L  F E E D E R -                       
                                                                              
 v1 FN, 2020, v2 2021                                                         
------------------------------------------------------------------------------


Reading SHARK input file inp.SHARKINP.tmp ... ok
----------------------
SHARK INTEGRAL PACKAGE
----------------------

Number of atoms                             ...     13
Number of basis functions                   ...    278
Number of shells                            ...    108
Maximum angular momentum                    ...      3
Integral batch strategy                     ... SHARK/LIBINT Hybrid
RI-J (if used) integral strategy            ... SPLIT-RIJ (Revised 2003 algorithm where possible)
Printlevel                                  ...      1
Contraction scheme used                     ... SEGMENTED contraction
Coulomb Range Separation                    ... NOT USED
Exchange Range Separation                   ... NOT USED
Finite Nucleus Model                        ... NOT USED
Auxiliary Coulomb fitting basis             ... AVAILABLE
   # of basis functions in Aux-J            ...    447
   # of shells in Aux-J                     ...    145
   Maximum angular momentum in Aux-J        ...      4
Auxiliary J/K fitting basis                 ... NOT available
Auxiliary Correlation fitting basis         ... NOT available
Auxiliary 'external' fitting basis          ... NOT available
Integral threshold                          ...     2.500000e-11
Primitive cut-off                           ...     2.500000e-12
Primitive pair pre-selection threshold      ...     2.500000e-12

Calculating pre-screening integrals         ... done (  0.1 sec) Dimension = 108
Organizing shell pair data                  ... done (  0.2 sec)
Shell pair information
Total number of shell pairs                 ...      5886
Shell pairs after pre-screening             ...      5434
Total number of primitive shell pairs       ...     18336
Primitive shell pairs kept                  ...     12816
          la=0 lb=0:   1357 shell pairs
          la=1 lb=0:   1492 shell pairs
          la=1 lb=1:    420 shell pairs
          la=2 lb=0:    814 shell pairs
          la=2 lb=1:    447 shell pairs
          la=2 lb=2:    126 shell pairs
          la=3 lb=0:    401 shell pairs
          la=3 lb=1:    222 shell pairs
          la=3 lb=2:    120 shell pairs
          la=3 lb=3:     35 shell pairs

Calculating one electron integrals          ... done (  0.0 sec)
Calculating RI/J V-Matrix + Cholesky decomp.... done (  0.4 sec)
Calculating Nuclear repulsion               ... done (  0.1 sec) ENN=    334.398423326055 Eh

SHARK setup successfully completed in   1.8 seconds

Maximum memory used throughout the entire GTOINT-calculation: 89.7 MB
-------------------------------------------------------------------------------
                                 ORCA SCF
-------------------------------------------------------------------------------

------------
SCF SETTINGS
------------
Hamiltonian:
 Density Functional     Method          .... DFT(GTOs)
 Exchange Functional    Exchange        .... PBE
   PBE kappa parameter   XKappa         ....  0.804000
   PBE mue parameter    XMuePBE         ....  0.219520
 Correlation Functional Correlation     .... PBE
   PBE beta parameter  CBetaPBE         ....  0.066725
 LDA part of GGA corr.  LDAOpt          .... PW91-LDA
 Gradients option       PostSCFGGA      .... off
   Density functional embedding theory  .... OFF
   NL short-range parameter             ....  6.400000
 RI-approximation to the Coulomb term is turned on
   Number of AuxJ basis functions       .... 447


General Settings:
 Integral files         IntName         .... inp
 Hartree-Fock type      HFTyp           .... RHF
 Total Charge           Charge          ....   -1
 Multiplicity           Mult            ....    1
 Number of Electrons    NEL             ....   58
 Basis Dimension        Dim             ....  278
 Nuclear Repulsion      ENuc            ....    334.3984233261 Eh

Convergence Acceleration:
 DIIS                   CNVDIIS         .... on
   Start iteration      DIISMaxIt       ....    12
   Startup error        DIISStart       ....  0.200000
   # of expansion vecs  DIISMaxEq       ....     5
   Bias factor          DIISBfac        ....   1.050
   Max. coefficient     DIISMaxC        ....  10.000
 Trust-Rad. Augm. Hess. CNVTRAH         .... auto
   Auto Start mean grad. ratio tolernc. ....  1.125000
   Auto Start start iteration           ....    20
   Auto Start num. interpolation iter.  ....    10
   Max. Number of Micro iterations      ....    16
   Max. Number of Macro iterations      .... Maxiter - #DIIS iter
   Number of Davidson start vectors     ....     2
   Converg. threshold I  (grad. norm)   ....   1.000e-05
   Converg. threshold II (energy diff.) ....   1.000e-08
   Grad. Scal. Fac. for Micro threshold ....   0.100
   Minimum threshold for Micro iter.    ....   0.010
   NR start threshold (gradient norm)   ....   0.001
   Initial trust radius                 ....   0.400
   Minimum AH scaling param. (alpha)    ....   1.000
   Maximum AH scaling param. (alpha)    .... 1000.000
   Orbital update algorithm             .... Taylor
   White noise on init. David. guess    .... on
   Maximum white noise                  ....   0.010
   Quad. conv. algorithm                .... NR
 SOSCF                  CNVSOSCF        .... on
   Start iteration      SOSCFMaxIt      ....   150
   Startup grad/error   SOSCFStart      ....  0.003300
 Level Shifting         CNVShift        .... on
   Level shift para.    LevelShift      ....    0.2500
   Turn off err/grad.   ShiftErr        ....    0.0010
 Zerner damping         CNVZerner       .... off
 Static damping         CNVDamp         .... on
   Fraction old density DampFac         ....    0.7000
   Max. Damping (<1)    DampMax         ....    0.9800
   Min. Damping (>=0)   DampMin         ....    0.0000
   Turn off err/grad.   DampErr         ....    0.1000
 Fernandez-Rico         CNVRico         .... off

SCF Procedure:
 Maximum # iterations   MaxIter         ....   125
 SCF integral mode      SCFMode         .... Direct
   Integral package                     .... SHARK and LIBINT hybrid scheme
 Reset frequency        DirectResetFreq ....    20
 Integral Threshold     Thresh          ....  2.500e-11 Eh
 Primitive CutOff       TCut            ....  2.500e-12 Eh

Convergence Tolerance:
 Convergence Check Mode ConvCheckMode   .... Total+1el-Energy
 Convergence forced     ConvForced      .... 0
 Energy Change          TolE            ....  1.000e-08 Eh
 1-El. energy change                    ....  1.000e-05 Eh
 Orbital Gradient       TolG            ....  1.000e-05
 Orbital Rotation angle TolX            ....  1.000e-05
 DIIS Error             TolErr          ....  5.000e-07


Diagonalization of the overlap matrix:
Smallest eigenvalue                        ... 1.313e-05
Time for diagonalization                   ...    0.017 sec
Threshold for overlap eigenvalues          ... 1.000e-08
Number of eigenvalues below threshold      ... 0
Time for construction of square roots      ...    0.247 sec
Total time needed                          ...    0.265 sec

Time for model grid setup =    0.309 sec

------------------------------
INITIAL GUESS: MODEL POTENTIAL
------------------------------
Loading Hartree-Fock densities                     ... done
Calculating cut-offs                               ... done
Initializing the effective Hamiltonian             ... done
Setting up the integral package (SHARK)            ... done
Starting the Coulomb interaction                   ... done (   0.4 sec)
Reading the grid                                   ... done
Mapping shells                                     ... done
Starting the XC term evaluation                    ... done (   0.4 sec)
  promolecular density results
     # of electrons  =     56.992860374
     EX              =    -48.445370390
     EC              =     -1.901819373
     EX+EC           =    -50.347189763
Transforming the Hamiltonian                       ... done (   0.0 sec)
Diagonalizing the Hamiltonian                      ... done (   0.0 sec)
Back transforming the eigenvectors                 ... done (   0.0 sec)
Now organizing SCF variables                       ... done
                      ------------------
                      INITIAL GUESS DONE (   1.2 sec)
                      ------------------
-------------------
DFT GRID GENERATION
-------------------

General Integration Accuracy     IntAcc      ... 4.388
Radial Grid Type                 RadialGrid  ... OptM3 with GC (2021)
Angular Grid (max. ang.)         AngularGrid ... 4 (Lebedev-302)
Angular grid pruning method      GridPruning ... 4 (adaptive)
Weight generation scheme         WeightScheme... Becke
Basis function cutoff            BFCut       ... 1.0000e-11
Integration weight cutoff        WCut        ... 1.0000e-14
Angular grids for H and He will be reduced by one unit
Partially contracted basis set               ... off
Rotationally invariant grid construction     ... off

Total number of grid points                  ...    64570
Total number of batches                      ...     1016
Average number of points per batch           ...       63
Average number of grid points per atom       ...     4967
Time for grid setup =    0.936 sec


--------------------
CPCM SOLVATION MODEL
--------------------
CPCM parameters:
  Epsilon                                         ...      80.4000
  Refrac                                          ...       1.3300
  Rsolv                                           ...       1.3000
  Surface type                                    ... GAUSSIAN VDW
  Epsilon function type                           ...         CPCM
Radii:
 Radius for C  used is    3.8550 Bohr (=   2.0400 Ang.)
 Radius for O  used is    3.4469 Bohr (=   1.8240 Ang.)
 Radius for H  used is    2.4944 Bohr (=   1.3200 Ang.)
Calculating surface                               ...        done! (  0.0s)
GEPOL surface points                              ...          771
GEPOL Volume                                      ...     893.9599
GEPOL Surface-area                                ...     513.9606
Calculating surface distance matrix               ...        done! (  0.0s)
Performing Cholesky decomposition & store         ...        done! (  0.2s)
Overall time for CPCM initialization              ...                 0.2s
--------------
SCF ITERATIONS
--------------
ITER       Energy         Delta-E        Max-DP      RMS-DP      [F,P]     Damp
               ***  Starting incremental Fock matrix formation  ***
  0   -381.6205765931   0.000000000000 1.00154037  0.01265144  0.3402223 0.7000
  1   -381.7683730869  -0.147796493832 0.78297605  0.00987605  0.1071655 0.7000
                               ***Turning on DIIS***
  2   -381.8163005327  -0.047927445743 0.35656189  0.00591567  0.0275716 0.0000
  3   -381.8964861761  -0.080185643451 0.76050977  0.00935897  0.0553125 0.0000
  4   -381.9159000261  -0.019413849919 0.12430994  0.00156950  0.0245744 0.0000
  5   -381.9180063646  -0.002106338573 0.05920532  0.00078085  0.0073423 0.0000
                      *** Initiating the SOSCF procedure ***
                           *** Shutting down DIIS ***
                      *** Re-Reading the Fockian *** 
                      *** Removing any level shift *** 
ITER      Energy       Delta-E        Grad      Rot      Max-DP    RMS-DP
  6   -381.91814849  -0.0001421219  0.000628  0.000628  0.028127  0.000396
               *** Restarting incremental Fock matrix formation ***
  7   -381.91814591   0.0000025808  0.001050  0.006739  0.030088  0.000357
  8   -381.91807487   0.0000710317  0.002700  0.004859  0.021453  0.000249
  9   -381.91815886  -0.0000839839  0.000118  0.000404  0.002372  0.000027
 10   -381.91815749   0.0000013661  0.000280  0.000292  0.002403  0.000029
 11   -381.91815918  -0.0000016896  0.000031  0.000136  0.001514  0.000023
 12   -381.91815913   0.0000000531  0.000048  0.000088  0.000573  0.000007
 13   -381.91815921  -0.0000000825  0.000003  0.000010  0.000373  0.000006
 14   -381.91815921   0.0000000027  0.000005  0.000006  0.000118  0.000001
                  ***Gradient check signals convergence***
              ***Rediagonalizing the Fockian in SOSCF/NRSCF***

               *****************************************************
               *                     SUCCESS                       *
               *           SCF CONVERGED AFTER  15 CYCLES          *
               *****************************************************


----------------
TOTAL SCF ENERGY
----------------

Total Energy       :         -381.91815920 Eh          -10392.52146 eV

Components:
Nuclear Repulsion  :          334.39842333 Eh            9099.44371 eV
Electronic Energy  :         -716.31658253 Eh          -19491.96516 eV
One Electron Energy:        -1193.63579299 Eh          -32480.48120 eV
Two Electron Energy:          477.31921047 Eh           12988.51604 eV
CPCM Dielectric    :           -0.10856028 Eh              -2.95408 eV

Virial components:
Potential Energy   :         -762.53184290 Eh          -20749.54633 eV
Kinetic Energy     :          380.61368370 Eh           10357.02487 eV
Virial Ratio       :            2.00342730


DFT components:
N(Alpha)           :       28.999998208774 electrons
N(Beta)            :       28.999998208774 electrons
N(Total)           :       57.999996417547 electrons
E(X)               :      -49.548864791698 Eh       
E(C)               :       -1.944796150398 Eh       
E(XC)              :      -51.493660942096 Eh       
DFET-embed. en.    :        0.000000000000 Eh       
CPCM Solvation Model Properties:
Surface-charge          :            0.97009135
Charge-correction       :           -0.00389987 Eh              -0.10612 eV
Free-energy (cav+disp)  :  This term is not implemented in the current solvation scheme

---------------
SCF CONVERGENCE
---------------

  Last Energy change         ...    7.8070e-09  Tolerance :   1.0000e-08
  Last MAX-Density change    ...    2.4382e-04  Tolerance :   1.0000e-07
  Last RMS-Density change    ...    2.8128e-06  Tolerance :   5.0000e-09
  Last Orbital Gradient      ...    5.3873e-07  Tolerance :   1.0000e-05
  Last Orbital Rotation      ...    4.7560e-06  Tolerance :   1.0000e-05

             **** THE GBW FILE WAS UPDATED (inp.gbw) ****
             **** DENSITY inp.scfp WAS UPDATED ****
             **** ENERGY FILE WAS UPDATED (inp.en.tmp) ****
             **** THE GBW FILE WAS UPDATED (inp.gbw) ****
             **** DENSITY inp.scfp WAS UPDATED ****
----------------
ORBITAL ENERGIES
----------------

  NO   OCC          E(Eh)            E(eV) 
   0   2.0000     -18.757161      -510.4083 
   1   2.0000     -18.646791      -507.4050 
   2   2.0000      -9.904923      -269.5267 
   3   2.0000      -9.884890      -268.9815 
   4   2.0000      -9.859718      -268.2966 
   5   2.0000      -9.857970      -268.2490 
   6   2.0000      -9.844705      -267.8880 
   7   2.0000      -9.844539      -267.8835 
   8   2.0000      -0.953778       -25.9536 
   9   2.0000      -0.857758       -23.3408 
  10   2.0000      -0.735589       -20.0164 
  11   2.0000      -0.649513       -17.6741 
  12   2.0000      -0.615747       -16.7553 
  13   2.0000      -0.536472       -14.5981 
  14   2.0000      -0.503966       -13.7136 
  15   2.0000      -0.466832       -12.7031 
  16   2.0000      -0.405857       -11.0439 
  17   2.0000      -0.382122       -10.3981 
  18   2.0000      -0.355164        -9.6645 
  19   2.0000      -0.348088        -9.4720 
  20   2.0000      -0.346695        -9.4341 
  21   2.0000      -0.323960        -8.8154 
  22   2.0000      -0.303357        -8.2548 
  23   2.0000      -0.295076        -8.0294 
  24   2.0000      -0.274708        -7.4752 
  25   2.0000      -0.226499        -6.1634 
  26   2.0000      -0.206260        -5.6126 
  27   2.0000      -0.154366        -4.2005 
  28   2.0000      -0.126562        -3.4439 
  29   0.0000      -0.021504        -0.5852 
  30   0.0000       0.029043         0.7903 
  31   0.0000       0.036586         0.9955 
  32   0.0000       0.055997         1.5237 
  33   0.0000       0.076115         2.0712 
  34   0.0000       0.092599         2.5198 
  35   0.0000       0.110738         3.0133 
  36   0.0000       0.127512         3.4698 
  37   0.0000       0.139761         3.8031 
  38   0.0000       0.141250         3.8436 
  39   0.0000       0.181085         4.9276 
  40   0.0000       0.189197         5.1483 
  41   0.0000       0.193538         5.2664 
  42   0.0000       0.212142         5.7727 
  43   0.0000       0.222739         6.0610 
  44   0.0000       0.228868         6.2278 
  45   0.0000       0.240098         6.5334 
  46   0.0000       0.253293         6.8925 
  47   0.0000       0.278213         7.5706 
  48   0.0000       0.296185         8.0596 
  49   0.0000       0.305901         8.3240 
  50   0.0000       0.309037         8.4093 
  51   0.0000       0.309751         8.4288 
  52   0.0000       0.317634         8.6433 
  53   0.0000       0.333125         9.0648 
  54   0.0000       0.348008         9.4698 
  55   0.0000       0.359940         9.7945 
  56   0.0000       0.376748        10.2518 
  57   0.0000       0.385150        10.4805 
  58   0.0000       0.406459        11.0603 
  59   0.0000       0.412825        11.2335 
  60   0.0000       0.423948        11.5362 
  61   0.0000       0.431638        11.7455 
  62   0.0000       0.432983        11.7821 
  63   0.0000       0.451519        12.2865 
  64   0.0000       0.460677        12.5356 
  65   0.0000       0.469401        12.7731 
  66   0.0000       0.476081        12.9548 
  67   0.0000       0.488089        13.2816 
  68   0.0000       0.510461        13.8904 
  69   0.0000       0.529468        14.4075 
  70   0.0000       0.562939        15.3183 
  71   0.0000       0.569505        15.4970 
  72   0.0000       0.597869        16.2688 
  73   0.0000       0.610112        16.6020 
  74   0.0000       0.623698        16.9717 
  75   0.0000       0.629682        17.1345 
  76   0.0000       0.666498        18.1363 
  77   0.0000       0.673936        18.3387 
  78   0.0000       0.691240        18.8096 
  79   0.0000       0.713966        19.4280 
  80   0.0000       0.721201        19.6249 
  81   0.0000       0.787446        21.4275 
  82   0.0000       0.787775        21.4364 
  83   0.0000       0.792554        21.5665 
  84   0.0000       0.795990        21.6600 
  85   0.0000       0.814010        22.1504 
  86   0.0000       0.831809        22.6347 
  87   0.0000       0.841167        22.8893 
  88   0.0000       0.854277        23.2461 
  89   0.0000       0.855113        23.2688 
  90   0.0000       0.867139        23.5961 
  91   0.0000       0.993855        27.0442 
  92   0.0000       1.000454        27.2237 
  93   0.0000       1.002694        27.2847 
  94   0.0000       1.007189        27.4070 
  95   0.0000       1.040188        28.3050 
  96   0.0000       1.074422        29.2365 
  97   0.0000       1.080920        29.4133 
  98   0.0000       1.141247        31.0549 
  99   0.0000       1.167852        31.7789 
 100   0.0000       1.169913        31.8350 
 101   0.0000       1.178619        32.0719 
 102   0.0000       1.206361        32.8268 
 103   0.0000       1.209283        32.9063 
 104   0.0000       1.245956        33.9042 
 105   0.0000       1.261146        34.3175 
 106   0.0000       1.264660        34.4131 
 107   0.0000       1.326356        36.0920 
 108   0.0000       1.344845        36.5951 
 109   0.0000       1.374474        37.4014 
 110   0.0000       1.404289        38.2126 
 111   0.0000       1.411814        38.4174 
 112   0.0000       1.439902        39.1817 
 113   0.0000       1.456286        39.6275 
 114   0.0000       1.458475        39.6871 
 115   0.0000       1.485355        40.4186 
 116   0.0000       1.511434        41.1282 
 117   0.0000       1.535892        41.7938 
 118   0.0000       1.563035        42.5323 
 119   0.0000       1.587826        43.2069 
 120   0.0000       1.612443        43.8768 
 121   0.0000       1.618616        44.0448 
 122   0.0000       1.653234        44.9868 
 123   0.0000       1.654962        45.0338 
 124   0.0000       1.678928        45.6859 
 125   0.0000       1.701439        46.2985 
 126   0.0000       1.712488        46.5992 
 127   0.0000       1.776199        48.3328 
 128   0.0000       1.792172        48.7675 
 129   0.0000       1.797938        48.9244 
 130   0.0000       1.803220        49.0681 
 131   0.0000       1.866189        50.7816 
 132   0.0000       1.875901        51.0459 
 133   0.0000       1.892271        51.4913 
 134   0.0000       1.900363        51.7115 
 135   0.0000       1.968456        53.5644 
 136   0.0000       1.978414        53.8354 
 137   0.0000       1.990482        54.1638 
 138   0.0000       2.049697        55.7751 
 139   0.0000       2.076850        56.5140 
 140   0.0000       2.093609        56.9700 
 141   0.0000       2.097266        57.0695 
 142   0.0000       2.124109        57.8000 
 143   0.0000       2.163236        58.8646 
 144   0.0000       2.183294        59.4104 
 145   0.0000       2.195324        59.7378 
 146   0.0000       2.223365        60.5008 
 147   0.0000       2.276054        61.9346 
 148   0.0000       2.307266        62.7839 
 149   0.0000       2.317306        63.0571 
 150   0.0000       2.366984        64.4089 
 151   0.0000       2.377673        64.6998 
 152   0.0000       2.429350        66.1060 
 153   0.0000       2.467472        67.1433 
 154   0.0000       2.472931        67.2919 
 155   0.0000       2.524078        68.6837 
 156   0.0000       2.535565        68.9962 
 157   0.0000       2.546281        69.2878 
 158   0.0000       2.591420        70.5161 
 159   0.0000       2.598704        70.7143 
 160   0.0000       2.619163        71.2710 
 161   0.0000       2.639313        71.8194 
 162   0.0000       2.651198        72.1428 
 163   0.0000       2.659124        72.3585 
 164   0.0000       2.661383        72.4199 
 165   0.0000       2.704898        73.6040 
 166   0.0000       2.719544        74.0026 
 167   0.0000       2.722454        74.0817 
 168   0.0000       2.759896        75.1006 
 169   0.0000       2.764615        75.2290 
 170   0.0000       2.799619        76.1815 
 171   0.0000       2.817768        76.6754 
 172   0.0000       2.848568        77.5135 
 173   0.0000       2.850463        77.5650 
 174   0.0000       2.851457        77.5921 
 175   0.0000       2.867382        78.0254 
 176   0.0000       2.872197        78.1564 
 177   0.0000       2.897134        78.8350 
 178   0.0000       2.925158        79.5976 
 179   0.0000       2.979883        81.0867 
 180   0.0000       2.983972        81.1980 
 181   0.0000       3.043939        82.8298 
 182   0.0000       3.055617        83.1476 
 183   0.0000       3.077747        83.7498 
 184   0.0000       3.082708        83.8848 
 185   0.0000       3.084817        83.9421 
 186   0.0000       3.088996        84.0558 
 187   0.0000       3.116294        84.7987 
 188   0.0000       3.140120        85.4470 
 189   0.0000       3.158786        85.9550 
 190   0.0000       3.175063        86.3979 
 191   0.0000       3.176351        86.4329 
 192   0.0000       3.189623        86.7941 
 193   0.0000       3.239988        88.1645 
 194   0.0000       3.284596        89.3784 
 195   0.0000       3.289822        89.5206 
 196   0.0000       3.296886        89.7128 
 197   0.0000       3.329805        90.6086 
 198   0.0000       3.334770        90.7437 
 199   0.0000       3.351411        91.1965 
 200   0.0000       3.355575        91.3098 
 201   0.0000       3.391333        92.2829 
 202   0.0000       3.412423        92.8567 
 203   0.0000       3.422495        93.1308 
 204   0.0000       3.425940        93.2246 
 205   0.0000       3.457450        94.0820 
 206   0.0000       3.484017        94.8049 
 207   0.0000       3.513825        95.6160 
 208   0.0000       3.547097        96.5214 
 209   0.0000       3.607871        98.1752 
 210   0.0000       3.640065        99.0512 
 211   0.0000       3.731045       101.5269 
 212   0.0000       3.760264       102.3220 
 213   0.0000       3.765262       102.4580 
 214   0.0000       3.796033       103.2953 
 215   0.0000       3.873271       105.3971 
 216   0.0000       3.905906       106.2851 
 217   0.0000       3.942958       107.2934 
 218   0.0000       3.947055       107.4048 
 219   0.0000       3.978711       108.2662 
 220   0.0000       4.024808       109.5206 
 221   0.0000       4.075560       110.9016 
 222   0.0000       4.082230       111.0831 
 223   0.0000       4.085909       111.1832 
 224   0.0000       4.139969       112.6543 
 225   0.0000       4.155298       113.0714 
 226   0.0000       4.171494       113.5121 
 227   0.0000       4.178374       113.6993 
 228   0.0000       4.216542       114.7380 
 229   0.0000       4.287436       116.6671 
 230   0.0000       4.406347       119.9028 
 231   0.0000       4.457624       121.2981 
 232   0.0000       4.484617       122.0326 
 233   0.0000       4.528667       123.2313 
 234   0.0000       4.562555       124.1534 
 235   0.0000       4.612319       125.5076 
 236   0.0000       4.682580       127.4195 
 237   0.0000       4.762004       129.5807 
 238   0.0000       4.775135       129.9380 
 239   0.0000       4.791377       130.3800 
 240   0.0000       4.853821       132.0792 
 241   0.0000       5.012962       136.4096 
 242   0.0000       5.053975       137.5256 
 243   0.0000       5.156072       140.3038 
 244   0.0000       5.157493       140.3425 
 245   0.0000       5.178107       140.9035 
 246   0.0000       5.209767       141.7650 
 247   0.0000       5.305560       144.3716 
 248   0.0000       5.361567       145.8957 
 249   0.0000       5.416648       147.3945 
 250   0.0000       5.495007       149.5267 
 251   0.0000       5.500388       149.6732 
 252   0.0000       5.685210       154.7024 
 253   0.0000       5.687484       154.7643 
 254   0.0000       5.868672       159.6947 
 255   0.0000       5.971245       162.4858 
 256   0.0000       6.150397       167.3608 
 257   0.0000       6.245162       169.9395 
 258   0.0000       6.299498       171.4180 
 259   0.0000       6.300456       171.4441 
 260   0.0000       6.323551       172.0726 
 261   0.0000       6.536148       177.8576 
 262   0.0000       6.562669       178.5793 
 263   0.0000       6.594655       179.4497 
 264   0.0000       6.692777       182.1197 
 265   0.0000       6.739255       183.3845 
 266   0.0000       6.863808       186.7737 
 267   0.0000       6.982511       190.0038 
 268   0.0000       6.988960       190.1793 
 269   0.0000       7.157304       194.7601 
 270   0.0000      21.884860       595.5173 
 271   0.0000      22.419863       610.0755 
 272   0.0000      22.437365       610.5517 
 273   0.0000      22.453085       610.9795 
 274   0.0000      22.787315       620.0744 
 275   0.0000      23.224694       631.9760 
 276   0.0000      43.525805      1184.3974 
 277   0.0000      43.623881      1187.0662 

                    ********************************
                    * MULLIKEN POPULATION ANALYSIS *
                    ********************************

-----------------------
MULLIKEN ATOMIC CHARGES
-----------------------
   0 C :   -0.251870
   1 C :    0.175665
   2 O :   -0.430750
   3 H :    0.104159
   4 C :   -0.266532
   5 O :   -0.628979
   6 C :   -0.269623
   7 H :    0.341862
   8 C :    0.233290
   9 H :    0.124793
  10 C :   -0.270284
  11 H :    0.068046
  12 H :    0.070222
Sum of atomic charges:   -1.0000000

--------------------------------
MULLIKEN REDUCED ORBITAL CHARGES
--------------------------------
  0 C s       :     3.256307  s :     3.256307
      pz      :     0.961265  p :     2.913566
      px      :     0.946603
      py      :     1.005697
      dz2     :     0.019508  d :     0.075224
      dxz     :     0.017774
      dyz     :     0.015549
      dx2y2   :     0.009287
      dxy     :     0.013106
      f0      :     0.001054  f :     0.006773
      f+1     :     0.001573
      f-1     :     0.000679
      f+2     :     0.000897
      f-2     :     0.001128
      f+3     :     0.000897
      f-3     :     0.000546
  1 C s       :     2.923635  s :     2.923635
      pz      :     0.916870  p :     2.740047
      px      :     0.911757
      py      :     0.911420
      dz2     :     0.026073  d :     0.144107
      dxz     :     0.027903
      dyz     :     0.030609
      dx2y2   :     0.037273
      dxy     :     0.022248
      f0      :     0.001552  f :     0.016547
      f+1     :     0.004636
      f-1     :     0.001396
      f+2     :     0.002499
      f-2     :     0.002177
      f+3     :     0.002029
      f-3     :     0.002258
  2 O s       :     3.743884  s :     3.743884
      pz      :     1.612689  p :     4.653906
      px      :     1.446066
      py      :     1.595151
      dz2     :     0.004605  d :     0.031339
      dxz     :     0.009577
      dyz     :     0.007391
      dx2y2   :     0.004836
      dxy     :     0.004929
      f0      :     0.000129  f :     0.001620
      f+1     :     0.000182
      f-1     :     0.000068
      f+2     :     0.000206
      f-2     :     0.000466
      f+3     :     0.000301
      f-3     :     0.000268
  3 H s       :     0.873900  s :     0.873900
      pz      :     0.011407  p :     0.021941
      px      :     0.004601
      py      :     0.005932
  4 C s       :     3.253236  s :     3.253236
      pz      :     0.944256  p :     2.931101
      px      :     0.968732
      py      :     1.018112
      dz2     :     0.017094  d :     0.075342
      dxz     :     0.013584
      dyz     :     0.012166
      dx2y2   :     0.019200
      dxy     :     0.013297
      f0      :     0.000448  f :     0.006853
      f+1     :     0.001354
      f-1     :     0.000815
      f+2     :     0.000804
      f-2     :     0.001129
      f+3     :     0.001213
      f-3     :     0.001091
  5 O s       :     3.745259  s :     3.745259
      pz      :     1.686912  p :     4.856164
      px      :     1.484416
      py      :     1.684836
      dz2     :     0.004231  d :     0.026044
      dxz     :     0.007155
      dyz     :     0.003067
      dx2y2   :     0.006069
      dxy     :     0.005521
      f0      :     0.000137  f :     0.001512
      f+1     :     0.000325
      f-1     :     0.000063
      f+2     :     0.000277
      f-2     :     0.000279
      f+3     :     0.000236
      f-3     :     0.000195
  6 C s       :     3.247887  s :     3.247887
      pz      :     0.934504  p :     2.933321
      px      :     0.980651
      py      :     1.018166
      dz2     :     0.022481  d :     0.081601
      dxz     :     0.018832
      dyz     :     0.016421
      dx2y2   :     0.008077
      dxy     :     0.015790
      f0      :     0.001132  f :     0.006814
      f+1     :     0.001513
      f-1     :     0.000647
      f+2     :     0.000852
      f-2     :     0.001179
      f+3     :     0.000988
      f-3     :     0.000503
  7 H s       :     0.613096  s :     0.613096
      pz      :     0.014005  p :     0.045042
      px      :     0.013699
      py      :     0.017338
  8 C s       :     2.997954  s :     2.997954
      pz      :     0.865642  p :     2.595424
      px      :     0.800186
      py      :     0.929595
      dz2     :     0.034027  d :     0.158375
      dxz     :     0.037182
      dyz     :     0.028274
      dx2y2   :     0.035864
      dxy     :     0.023027
      f0      :     0.001432  f :     0.014958
      f+1     :     0.003547
      f-1     :     0.001617
      f+2     :     0.002581
      f-2     :     0.002026
      f+3     :     0.001865
      f-3     :     0.001890
  9 H s       :     0.853224  s :     0.853224
      pz      :     0.005783  p :     0.021982
      px      :     0.007394
      py      :     0.008806
 10 C s       :     3.273098  s :     3.273098
      pz      :     0.955697  p :     2.908569
      px      :     0.957750
      py      :     0.995122
      dz2     :     0.018610  d :     0.081609
      dxz     :     0.012503
      dyz     :     0.010626
      dx2y2   :     0.024099
      dxy     :     0.015771
      f0      :     0.000408  f :     0.007008
      f+1     :     0.001377
      f-1     :     0.000961
      f+2     :     0.000938
      f-2     :     0.001066
      f+3     :     0.001104
      f-3     :     0.001154
 11 H s       :     0.909859  s :     0.909859
      pz      :     0.005647  p :     0.022095
      px      :     0.007534
      py      :     0.008915
 12 H s       :     0.907674  s :     0.907674
      pz      :     0.011367  p :     0.022104
      px      :     0.004634
      py      :     0.006104


                     *******************************
                     * LOEWDIN POPULATION ANALYSIS *
                     *******************************

----------------------
LOEWDIN ATOMIC CHARGES
----------------------
   0 C :   -0.190282
   1 C :   -0.492271
   2 O :    0.048019
   3 H :    0.142061
   4 C :   -0.191413
   5 O :   -0.190211
   6 C :   -0.189079
   7 H :    0.197957
   8 C :   -0.361309
   9 H :    0.144249
  10 C :   -0.180546
  11 H :    0.131401
  12 H :    0.131425

-------------------------------
LOEWDIN REDUCED ORBITAL CHARGES
-------------------------------
  0 C s       :     2.777347  s :     2.777347
      pz      :     1.024618  p :     3.000211
      px      :     1.004007
      py      :     0.971586
      dz2     :     0.091635  d :     0.372305
      dxz     :     0.102250
      dyz     :     0.074323
      dx2y2   :     0.038527
      dxy     :     0.065570
      f0      :     0.006152  f :     0.040418
      f+1     :     0.009949
      f-1     :     0.005545
      f+2     :     0.005868
      f-2     :     0.005024
      f+3     :     0.004138
      f-3     :     0.003741
  1 C s       :     2.723328  s :     2.723328
      pz      :     0.994428  p :     2.849401
      px      :     0.924811
      py      :     0.930161
      dz2     :     0.187311  d :     0.810140
      dxz     :     0.186833
      dyz     :     0.129156
      dx2y2   :     0.151380
      dxy     :     0.155460
      f0      :     0.010045  f :     0.109402
      f+1     :     0.028896
      f-1     :     0.011897
      f+2     :     0.018984
      f-2     :     0.013250
      f+3     :     0.011693
      f-3     :     0.014637
  2 O s       :     3.330013  s :     3.330013
      pz      :     1.582166  p :     4.543850
      px      :     1.432271
      py      :     1.529413
      dz2     :     0.009834  d :     0.073106
      dxz     :     0.020936
      dyz     :     0.013289
      dx2y2   :     0.012866
      dxy     :     0.016182
      f0      :     0.000448  f :     0.005012
      f+1     :     0.000998
      f-1     :     0.000260
      f+2     :     0.000838
      f-2     :     0.001221
      f+3     :     0.000699
      f-3     :     0.000547
  3 H s       :     0.797217  s :     0.797217
      pz      :     0.030752  p :     0.060722
      px      :     0.013279
      py      :     0.016691
  4 C s       :     2.777204  s :     2.777204
      pz      :     0.977603  p :     3.000103
      px      :     1.027846
      py      :     0.994655
      dz2     :     0.083676  d :     0.373514
      dxz     :     0.070577
      dyz     :     0.060210
      dx2y2   :     0.081455
      dxy     :     0.077597
      f0      :     0.002908  f :     0.040592
      f+1     :     0.008499
      f-1     :     0.004951
      f+2     :     0.006149
      f-2     :     0.006053
      f+3     :     0.005113
      f-3     :     0.006919
  5 O s       :     3.423306  s :     3.423306
      pz      :     1.609291  p :     4.699436
      px      :     1.501626
      py      :     1.588519
      dz2     :     0.011274  d :     0.062347
      dxz     :     0.017830
      dyz     :     0.006301
      dx2y2   :     0.013044
      dxy     :     0.013899
      f0      :     0.000465  f :     0.005121
      f+1     :     0.001189
      f-1     :     0.000187
      f+2     :     0.000939
      f-2     :     0.000895
      f+3     :     0.000689
      f-3     :     0.000758
  6 C s       :     2.767323  s :     2.767323
      pz      :     1.019233  p :     2.992021
      px      :     1.005413
      py      :     0.967375
      dz2     :     0.100942  d :     0.386763
      dxz     :     0.098854
      dyz     :     0.080085
      dx2y2   :     0.037534
      dxy     :     0.069348
      f0      :     0.007163  f :     0.042973
      f+1     :     0.010219
      f-1     :     0.005947
      f+2     :     0.006196
      f-2     :     0.004968
      f+3     :     0.004655
      f-3     :     0.003826
  7 H s       :     0.651490  s :     0.651490
      pz      :     0.053471  p :     0.150553
      px      :     0.039252
      py      :     0.057830
  8 C s       :     2.714961  s :     2.714961
      pz      :     1.000062  p :     2.853922
      px      :     0.876455
      py      :     0.977405
      dz2     :     0.142613  d :     0.694422
      dxz     :     0.178600
      dyz     :     0.125290
      dx2y2   :     0.137969
      dxy     :     0.109950
      f0      :     0.009715  f :     0.098004
      f+1     :     0.023241
      f-1     :     0.011399
      f+2     :     0.017096
      f-2     :     0.012684
      f+3     :     0.011783
      f-3     :     0.012086
  9 H s       :     0.794565  s :     0.794565
      pz      :     0.016600  p :     0.061186
      px      :     0.020477
      py      :     0.024109
 10 C s       :     2.765973  s :     2.765973
      pz      :     0.981058  p :     2.988351
      px      :     1.023350
      py      :     0.983943
      dz2     :     0.081808  d :     0.383228
      dxz     :     0.073125
      dyz     :     0.058479
      dx2y2   :     0.094176
      dxy     :     0.075641
      f0      :     0.002932  f :     0.042994
      f+1     :     0.008874
      f-1     :     0.005527
      f+2     :     0.007481
      f-2     :     0.006239
      f+3     :     0.004720
      f-3     :     0.007220
 11 H s       :     0.808629  s :     0.808629
      pz      :     0.015762  p :     0.059971
      px      :     0.020400
      py      :     0.023809
 12 H s       :     0.808596  s :     0.808596
      pz      :     0.030099  p :     0.059979
      px      :     0.013099
      py      :     0.016781


                      *****************************
                      * MAYER POPULATION ANALYSIS *
                      *****************************

  NA   - Mulliken gross atomic population
  ZA   - Total nuclear charge
  QA   - Mulliken gross atomic charge
  VA   - Mayer's total valence
  BVA  - Mayer's bonded valence
  FA   - Mayer's free valence

  ATOM       NA         ZA         QA         VA         BVA        FA
  0 C      6.2519     6.0000    -0.2519     3.6517     3.6517    -0.0000
  1 C      5.8243     6.0000     0.1757     4.2422     4.2422     0.0000
  2 O      8.4307     8.0000    -0.4307     2.0503     2.0503    -0.0000
  3 H      0.8958     1.0000     0.1042     0.9858     0.9858    -0.0000
  4 C      6.2665     6.0000    -0.2665     3.6265     3.6265     0.0000
  5 O      8.6290     8.0000    -0.6290     1.8875     1.8875    -0.0000
  6 C      6.2696     6.0000    -0.2696     3.7629     3.7629    -0.0000
  7 H      0.6581     1.0000     0.3419     0.8952     0.8952    -0.0000
  8 C      5.7667     6.0000     0.2333     3.8800     3.8800    -0.0000
  9 H      0.8752     1.0000     0.1248     0.9685     0.9685    -0.0000
 10 C      6.2703     6.0000    -0.2703     3.8850     3.8850    -0.0000
 11 H      0.9320     1.0000     0.0680     1.0030     1.0030    -0.0000
 12 H      0.9298     1.0000     0.0702     1.0049     1.0049     0.0000

  Mayer bond orders larger than 0.100000
B(  0-C ,  1-C ) :   1.2055 B(  0-C , 10-C ) :   1.3529 B(  0-C , 11-H ) :   0.9891 
B(  1-C ,  4-C ) :   1.2104 B(  1-C ,  5-O ) :   1.7337 B(  2-O ,  7-H ) :   0.8699 
B(  2-O ,  8-C ) :   1.0843 B(  3-H , 10-C ) :   0.9759 B(  4-C ,  6-C ) :   1.3047 
B(  4-C , 12-H ) :   0.9733 B(  6-C ,  8-C ) :   1.3212 B(  6-C ,  9-H ) :   0.9602 
B(  8-C , 10-C ) :   1.3642 

-------
TIMINGS
-------

Total SCF time: 0 days 0 hours 0 min 52 sec 

Total time                  ....      52.578 sec
Sum of individual times     ....      49.902 sec  ( 94.9%)

Fock matrix formation       ....      46.965 sec  ( 89.3%)
  Split-RI-J                ....       8.409 sec  ( 17.9% of F)
  XC integration            ....      23.424 sec  ( 49.9% of F)
    Basis function eval.    ....       6.680 sec  ( 28.5% of XC)
    Density eval.           ....       5.704 sec  ( 24.4% of XC)
    XC-Functional eval.     ....       0.891 sec  (  3.8% of XC)
    XC-Potential eval.      ....       7.333 sec  ( 31.3% of XC)
Diagonalization             ....       0.104 sec  (  0.2%)
Density matrix formation    ....       0.012 sec  (  0.0%)
Population analysis         ....       0.152 sec  (  0.3%)
Initial guess               ....       0.866 sec  (  1.6%)
Orbital Transformation      ....       0.000 sec  (  0.0%)
Orbital Orthonormalization  ....       0.000 sec  (  0.0%)
DIIS solution               ....       0.185 sec  (  0.4%)
SOSCF solution              ....       0.373 sec  (  0.7%)
Grid generation             ....       1.245 sec  (  2.4%)

Maximum memory used throughout the entire SCF-calculation: 111.0 MB


-------------------------------------------------------------------------------
                          DFT DISPERSION CORRECTION                            
                                                                               
                              DFTD3 V3.1  Rev 1                                
                          USING Becke-Johnson damping                          
-------------------------------------------------------------------------------
The PBE functional is recognized
Active option DFTDOPT                   ...         4   

molecular C6(AA) [au] = 2076.104606 


            DFT-D V3
 parameters
 s6 scaling factor         :     1.0000 
 a1 scaling factor         :     0.4289 
 s8 scaling factor         :     0.7875 
 a2 scaling factor         :     4.4407 
 ad hoc parameters k1-k3   :    16.0000     1.3333    -4.0000 

 Edisp/kcal,au: -8.010383467448  -0.012765357248 
 E6   /kcal   :  -5.563359908 
 E8   /kcal   :  -2.447023560 
 % E8         :  30.548145037 

-------------------------   ----------------
Dispersion correction           -0.012765357
-------------------------   ----------------


-------------------------   --------------------
FINAL SINGLE POINT ENERGY      -381.930924557422
-------------------------   --------------------

------------------------------------------------------------------------------
                         ORCA SCF GRADIENT CALCULATION
------------------------------------------------------------------------------

Gradient of the Kohn-Sham DFT energy:
Kohn-Sham wavefunction type      ... RKS
Hartree-Fock exchange scaling    ...    0.000
Number of operators              ...    1
Number of atoms                  ...   13
Basis set dimensions             ...  278
Integral neglect threshold       ... 2.5e-11
Integral primitive cutoff        ... 2.5e-12
SHARK Integral package           ... ON

Nuc. rep. gradient       (SHARK) ... done (  0.0 sec)
HCore & Overlap gradient (SHARK) ... done (  0.4 sec)
RI-J gradient            (SHARK) ... done (  2.5 sec)
Exchange-correlation gradient    ... done
Dispersion correction            ... done

------------------
CARTESIAN GRADIENT
------------------

   1   C   :    0.009244109   -0.005094775   -0.021685940
   2   C   :    0.002136825    0.000526992   -0.001761877
   3   O   :    0.016299686    0.004868465   -0.013009275
   4   H   :    0.002764321   -0.001343796   -0.006124460
   5   C   :    0.017700386    0.015830335    0.004981498
   6   O   :   -0.025932602   -0.010199479    0.016280707
   7   C   :   -0.016495406   -0.006666255    0.010118247
   8   H   :    0.004644652    0.003365059   -0.000170165
   9   C   :    0.001474604    0.002050204    0.001647618
  10   H   :    0.006996672    0.005456180    0.000522874
  11   C   :   -0.015121559   -0.007382909    0.006797023
  12   H   :   -0.002686824   -0.002591833   -0.001085456
  13   H   :   -0.001024865    0.001181811    0.003489205

Difference to translation invariance:
           :    0.0000000000    0.0000000000   -0.0000000000

Difference to rotation invariance:
           :    0.0009045764   -0.0017797686    0.0006902952

Norm of the cartesian gradient     ...    0.0602043368
RMS gradient                       ...    0.0096404093
MAX gradient                       ...    0.0259326015

-------
TIMINGS
-------

Total SCF gradient time            ...       13.435 sec

One electron gradient       ....       0.352 sec  (  2.6%)
RI-J Coulomb gradient       ....       2.478 sec  ( 18.4%)
XC gradient                 ....       9.013 sec  ( 67.1%)
CPCM gradient               ....       0.598 sec  (  4.4%)
   A-Matrix (El+Nuc)        ....       0.034 sec  (  0.3%)
   Potential                ....       0.563 sec  (  4.2%)

Maximum memory used throughout the entire SCFGRAD-calculation: 112.7 MB
------------------------------------------------------------------------------
                         ORCA GEOMETRY RELAXATION STEP
------------------------------------------------------------------------------

Reading the OPT-File                    .... done
Getting information on internals        .... done
Copying old internal coords+grads       .... done
Making the new internal coordinates     .... (new redundants).... done
Validating the new internal coordinates .... (new redundants).... done
Calculating the B-matrix                .... done
Calculating the G,G- and P matrices     .... done
Transforming gradient to internals      .... done
Projecting the internal gradient        .... done
Number of atoms                         ....  13
Number of internal coordinates          ....  58
Current Energy                          ....  -381.930924557 Eh
Current gradient norm                   ....     0.060204337 Eh/bohr
Maximum allowed component of the step   ....  0.300
Current trust radius                    ....  0.300
Evaluating the initial hessian          ....  (Almloef) done
Projecting the Hessian                  .... done
Forming the augmented Hessian           .... done
Diagonalizing the augmented Hessian     .... done
Last element of RFO vector              ....  0.995074513
Lowest eigenvalues of augmented Hessian:
 -0.005828861  0.023459759  0.023782471  0.023985873  0.024149019
Length of the computed step             ....  0.099620464
The final length of the internal step   ....  0.099620464
Converting the step to cartesian space:
 Initial RMS(Int)=    0.0130808077
Transforming coordinates:
 Iter   0:  RMS(Cart)=    0.0269989814 RMS(Int)=    1.8447941280
 Iter   1:  RMS(Cart)=    0.0001203609 RMS(Int)=    0.0000753058
 Iter   2:  RMS(Cart)=    0.0000017950 RMS(Int)=    0.0000010481
 Iter   3:  RMS(Cart)=    0.0000000295 RMS(Int)=    0.0000000251
done
Storing new coordinates                 .... done

                                .--------------------.
          ----------------------|Geometry convergence|-------------------------
          Item                value                   Tolerance       Converged
          ---------------------------------------------------------------------
          RMS gradient        0.0079142242            0.0001000000      NO
          MAX gradient        0.0322718007            0.0003000000      NO
          RMS step            0.0130808077            0.0020000000      NO
          MAX step            0.0421656001            0.0040000000      NO
          ........................................................
          Max(Bonds)      0.0223      Max(Angles)    1.03
          Max(Dihed)        0.03      Max(Improp)    0.00
          ---------------------------------------------------------------------

The optimization has not yet converged - more geometry cycles are needed


    ---------------------------------------------------------------------------
                         Redundant Internal Coordinates
                            (Angstroem and degrees)

        Definition                    Value    dE/dq     Step     New-Value
    ----------------------------------------------------------------------------
     1. B(C   1,C   0)                1.4089 -0.022790  0.0206    1.4295   
     2. B(C   4,C   1)                1.4077 -0.023663  0.0213    1.4290   
     3. B(O   5,C   1)                1.2745 -0.032272  0.0198    1.2943   
     4. B(C   6,C   4)                1.4020 -0.000616  0.0005    1.4025   
     5. B(H   7,O   2)                0.9696 -0.004441  0.0046    0.9743   
     6. B(C   8,C   6)                1.3865 -0.013349  0.0109    1.3974   
     7. B(C   8,O   2)                1.3656 -0.026054  0.0223    1.3879   
     8. B(H   9,C   6)                1.0825 -0.008085  0.0114    1.0938   
     9. B(C  10,C   8)                1.3829 -0.015430  0.0125    1.3954   
    10. B(C  10,H   3)                1.0831 -0.006575  0.0093    1.0923   
    11. B(C  10,C   0)                1.4024  0.000001  0.0000    1.4024   
    12. B(H  11,C   0)                1.0893 -0.003841  0.0055    1.0948   
    13. B(H  12,C   4)                1.0894 -0.003797  0.0055    1.0948   
    14. A(C  10,C   0,H  11)          118.64 -0.000709    0.11    118.74   
    15. A(C   1,C   0,C  10)          123.24  0.000234   -0.02    123.21   
    16. A(C   1,C   0,H  11)          118.12  0.000475   -0.08    118.04   
    17. A(C   0,C   1,C   4)          114.66  0.004694   -0.58    114.08   
    18. A(C   4,C   1,O   5)          122.57 -0.002655    0.33    122.90   
    19. A(C   0,C   1,O   5)          122.77 -0.002039    0.25    123.02   
    20. A(H   7,O   2,C   8)          106.64 -0.006701    1.03    107.67   
    21. A(C   6,C   4,H  12)          118.77 -0.000746    0.11    118.88   
    22. A(C   1,C   4,H  12)          117.97  0.000200   -0.04    117.93   
    23. A(C   1,C   4,C   6)          123.26  0.000546   -0.07    123.19   
    24. A(C   4,C   6,C   8)          119.35 -0.005583    0.74    120.09   
    25. A(C   8,C   6,H   9)          122.00  0.006521   -0.96    121.04   
    26. A(C   4,C   6,H   9)          118.64 -0.000938    0.22    118.87   
    27. A(O   2,C   8,C   6)          121.35 -0.004984    0.68    122.03   
    28. A(C   6,C   8,C  10)          120.08  0.005409   -0.76    119.32   
    29. A(O   2,C   8,C  10)          118.57 -0.000425    0.08    118.65   
    30. A(H   3,C  10,C   8)          120.76  0.004684   -0.67    120.09   
    31. A(C   0,C  10,C   8)          119.41 -0.005300    0.70    120.11   
    32. A(C   0,C  10,H   3)          119.83  0.000615   -0.03    119.80   
    33. D(O   5,C   1,C   0,C  10)    180.00 -0.000005    0.01    180.01   
    34. D(C   4,C   1,C   0,H  11)    180.00  0.000001   -0.00    180.00   
    35. D(O   5,C   1,C   0,H  11)     -0.00 -0.000012    0.02      0.02   
    36. D(C   4,C   1,C   0,C  10)     -0.00  0.000009   -0.02     -0.02   
    37. D(C   6,C   4,C   1,C   0)      0.00 -0.000014    0.03      0.03   
    38. D(H  12,C   4,C   1,C   0)   -180.00 -0.000018    0.03   -179.97   
    39. D(C   6,C   4,C   1,O   5)   -180.00 -0.000001    0.00   -180.00   
    40. D(H  12,C   4,C   1,O   5)      0.00 -0.000004    0.01      0.01   
    41. D(H   9,C   6,C   4,H  12)     -0.00  0.000009   -0.02     -0.02   
    42. D(H   9,C   6,C   4,C   1)    180.00  0.000005   -0.01    179.99   
    43. D(C   8,C   6,C   4,H  12)    180.00  0.000016   -0.03    179.97   
    44. D(C   8,C   6,C   4,C   1)     -0.00  0.000013   -0.02     -0.02   
    45. D(O   2,C   8,C   6,C   4)   -180.00  0.000001   -0.00   -180.00   
    46. D(C  10,C   8,O   2,H   7)    180.00 -0.000003    0.01    180.01   
    47. D(C   6,C   8,O   2,H   7)     -0.00 -0.000009    0.02      0.01   
    48. D(C  10,C   8,C   6,H   9)    180.00  0.000003   -0.01    179.99   
    49. D(C  10,C   8,C   6,C   4)     -0.00 -0.000005    0.01      0.01   
    50. D(O   2,C   8,C   6,H   9)      0.00  0.000009   -0.02     -0.02   
    51. D(H   3,C  10,C   8,C   6)   -180.00  0.000011   -0.02   -180.02   
    52. D(H   3,C  10,C   8,O   2)      0.00  0.000005   -0.01     -0.01   
    53. D(C   0,C  10,C   8,C   6)      0.00 -0.000001    0.00      0.00   
    54. D(C   0,C  10,C   8,O   2)   -180.00 -0.000006    0.01   -179.99   
    55. D(C   8,C  10,C   0,H  11)    180.00  0.000006   -0.01    179.99   
    56. D(C   8,C  10,C   0,C   1)     -0.00 -0.000002    0.00      0.00   
    57. D(H   3,C  10,C   0,H  11)     -0.00 -0.000005    0.01      0.01   
    58. D(H   3,C  10,C   0,C   1)    180.00 -0.000013    0.02    180.02   
    ----------------------------------------------------------------------------

         *************************************************************
         *                GEOMETRY OPTIMIZATION CYCLE   2            *
         *************************************************************
---------------------------------
CARTESIAN COORDINATES (ANGSTROEM)
---------------------------------
  C     -6.314139   -3.536946    2.051189
  C     -5.983178   -4.013334    0.744629
  O     -9.403560   -5.330101    2.941176
  H     -7.638870   -3.571859    3.761890
  C     -6.900653   -4.978470    0.226180
  O     -4.944107   -3.607511    0.088182
  C     -8.028296   -5.422447    0.932088
  H     -9.887896   -5.984113    2.405572
  C     -8.299603   -4.919158    2.207204
  H     -8.684101   -6.164220    0.467155
  C     -7.438668   -3.973906    2.766161
  H     -5.653754   -2.794561    2.510887
  H     -6.706755   -5.386371   -0.771168

----------------------------
CARTESIAN COORDINATES (A.U.)
----------------------------
  NO LB      ZA    FRAG     MASS         X           Y           Z
   0 C     6.0000    0    12.011  -11.931993   -6.683860    3.876186
   1 C     6.0000    0    12.011  -11.306569   -7.584102    1.407144
   2 O     8.0000    0    15.999  -17.770152  -10.072430    5.558018
   3 H     1.0000    0     1.008  -14.435372   -6.749836    7.108943
   4 C     6.0000    0    12.011  -13.040343   -9.407946    0.427419
   5 O     8.0000    0    15.999   -9.343009   -6.817208    0.166640
   6 C     6.0000    0    12.011  -15.171281  -10.246939    1.761391
   7 H     1.0000    0     1.008  -18.685416  -11.308334    4.545872
   8 C     6.0000    0    12.011  -15.683976   -9.295862    4.171011
   9 H     1.0000    0     1.008  -16.410572  -11.648687    0.882796
  10 C     6.0000    0    12.011  -14.057044   -7.509595    5.227287
  11 H     1.0000    0     1.008  -10.684047   -5.280955    4.744889
  12 H     1.0000    0     1.008  -12.673930  -10.178766   -1.457295

--------------------------------
INTERNAL COORDINATES (ANGSTROEM)
--------------------------------
 C      0   0   0     0.000000000000     0.00000000     0.00000000
 C      1   0   0     1.429538338737     0.00000000     0.00000000
 O      1   2   0     3.681304333417   104.65096868     0.00000000
 H      1   2   3     2.163938726162   149.19278811     0.00000000
 C      2   1   3     1.428998325118   114.08079983     0.00000000
 O      2   1   3     1.294327343159   123.01879476   180.00687342
 C      5   2   1     1.402497934542   123.18962168     0.02761995
 H      3   1   2     0.974261917557   127.68200671     0.00000000
 C      3   1   2     1.387915696474    20.01678946     0.00000000
 H      7   5   2     1.093832548522   118.86762964   179.98942749
 C      4   1   2     1.092336864538    34.21890047     0.03790785
 H      1   2   3     1.094790192537   118.04068534   180.01652521
 H      5   2   1     1.094843179299   117.93179957   180.03439689

---------------------------
INTERNAL COORDINATES (A.U.)
---------------------------
 C      0   0   0     0.000000000000     0.00000000     0.00000000
 C      1   0   0     2.701435958154     0.00000000     0.00000000
 O      1   2   0     6.956657005775   104.65096868     0.00000000
 H      1   2   3     4.089251563033   149.19278811     0.00000000
 C      2   1   3     2.700415480304   114.08079983     0.00000000
[...]
 237   0.0000       4.740627       128.9990 
 238   0.0000       4.756692       129.4362 
 239   0.0000       4.771562       129.8408 
 240   0.0000       4.826170       131.3268 
 241   0.0000       4.963881       135.0741 
 242   0.0000       5.021653       136.6461 
 243   0.0000       5.119531       139.3095 
 244   0.0000       5.144043       139.9765 
 245   0.0000       5.154364       140.2574 
 246   0.0000       5.181872       141.0059 
 247   0.0000       5.281707       143.7226 
 248   0.0000       5.343941       145.4160 
 249   0.0000       5.379862       146.3935 
 250   0.0000       5.446725       148.2129 
 251   0.0000       5.492173       149.4496 
 252   0.0000       5.625964       153.0903 
 253   0.0000       5.629739       153.1930 
 254   0.0000       5.834182       158.7562 
 255   0.0000       5.907105       160.7405 
 256   0.0000       6.092052       165.7732 
 257   0.0000       6.192738       168.5130 
 258   0.0000       6.251760       170.1190 
 259   0.0000       6.287704       171.0971 
 260   0.0000       6.306935       171.6204 
 261   0.0000       6.459623       175.7753 
 262   0.0000       6.505982       177.0368 
 263   0.0000       6.575709       178.9341 
 264   0.0000       6.671624       181.5441 
 265   0.0000       6.723384       182.9526 
 266   0.0000       6.849924       186.3959 
 267   0.0000       6.950300       189.1273 
 268   0.0000       6.956797       189.3041 
 269   0.0000       7.131045       194.0456 
 270   0.0000      21.821216       593.7855 
 271   0.0000      22.331691       607.6762 
 272   0.0000      22.401055       609.5637 
 273   0.0000      22.406022       609.6989 
 274   0.0000      22.643333       616.1564 
 275   0.0000      23.053474       627.3169 
 276   0.0000      43.502463      1183.7622 
 277   0.0000      43.607734      1186.6268 

                    ********************************
                    * MULLIKEN POPULATION ANALYSIS *
                    ********************************

-----------------------
MULLIKEN ATOMIC CHARGES
-----------------------
   0 C :   -0.263804
   1 C :    0.192429
   2 O :   -0.439588
   3 H :    0.104177
   4 C :   -0.277794
   5 O :   -0.641338
   6 C :   -0.250579
   7 H :    0.343062
   8 C :    0.208995
   9 H :    0.122647
  10 C :   -0.249949
  11 H :    0.074512
  12 H :    0.077230
Sum of atomic charges:   -1.0000000

--------------------------------
MULLIKEN REDUCED ORBITAL CHARGES
--------------------------------
  0 C s       :     3.264967  s :     3.264967
      pz      :     0.956469  p :     2.917980
      px      :     0.952898
      py      :     1.008613
      dz2     :     0.019495  d :     0.074266
      dxz     :     0.017372
      dyz     :     0.015178
      dx2y2   :     0.009156
      dxy     :     0.013065
      f0      :     0.001018  f :     0.006590
      f+1     :     0.001492
      f-1     :     0.000687
      f+2     :     0.000827
      f-2     :     0.001104
      f+3     :     0.000923
      f-3     :     0.000538
  1 C s       :     2.958932  s :     2.958932
      pz      :     0.901013  p :     2.692664
      px      :     0.887279
      py      :     0.904372
      dz2     :     0.026877  d :     0.140550
      dxz     :     0.027048
      dyz     :     0.028561
      dx2y2   :     0.035378
      dxy     :     0.022687
      f0      :     0.001488  f :     0.015426
      f+1     :     0.004208
      f-1     :     0.001327
      f+2     :     0.002290
      f-2     :     0.002068
      f+3     :     0.001967
      f-3     :     0.002079
  2 O s       :     3.750564  s :     3.750564
      pz      :     1.613882  p :     4.657557
      px      :     1.443083
      py      :     1.600593
      dz2     :     0.004238  d :     0.029923
      dxz     :     0.009425
      dyz     :     0.006986
      dx2y2   :     0.004542
      dxy     :     0.004732
      f0      :     0.000133  f :     0.001543
      f+1     :     0.000157
      f-1     :     0.000051
      f+2     :     0.000198
      f-2     :     0.000450
      f+3     :     0.000293
      f-3     :     0.000261
  3 H s       :     0.874260  s :     0.874260
      pz      :     0.011348  p :     0.021562
      px      :     0.004512
      py      :     0.005702
  4 C s       :     3.262480  s :     3.262480
      pz      :     0.950359  p :     2.934558
      px      :     0.967774
      py      :     1.016425
      dz2     :     0.016993  d :     0.074111
      dxz     :     0.013380
      dyz     :     0.011882
      dx2y2   :     0.018436
      dxy     :     0.013420
      f0      :     0.000452  f :     0.006645
      f+1     :     0.001301
      f-1     :     0.000782
      f+2     :     0.000766
      f-2     :     0.001129
      f+3     :     0.001182
      f-3     :     0.001033
  5 O s       :     3.762759  s :     3.762759
      pz      :     1.688410  p :     4.851679
      px      :     1.479313
      py      :     1.683957
      dz2     :     0.003970  d :     0.025453
      dxz     :     0.007170
      dyz     :     0.002956
      dx2y2   :     0.005954
      dxy     :     0.005403
      f0      :     0.000137  f :     0.001446
      f+1     :     0.000295
      f-1     :     0.000059
      f+2     :     0.000269
      f-2     :     0.000272
      f+3     :     0.000223
      f-3     :     0.000191
  6 C s       :     3.236261  s :     3.236261
      pz      :     0.933418  p :     2.925053
      px      :     0.977860
      py      :     1.013776
      dz2     :     0.023278  d :     0.082565
      dxz     :     0.018458
      dyz     :     0.016631
      dx2y2   :     0.008083
      dxy     :     0.016115
      f0      :     0.001129  f :     0.006700
      f+1     :     0.001467
      f-1     :     0.000644
      f+2     :     0.000811
      f-2     :     0.001150
      f+3     :     0.000983
      f-3     :     0.000515
  7 H s       :     0.612243  s :     0.612243
      pz      :     0.013541  p :     0.044695
      px      :     0.013872
      py      :     0.017283
  8 C s       :     3.022090  s :     3.022090
      pz      :     0.866310  p :     2.601164
      px      :     0.800166
      py      :     0.934689
      dz2     :     0.033083  d :     0.153749
      dxz     :     0.036221
      dyz     :     0.027869
      dx2y2   :     0.033818
      dxy     :     0.022758
      f0      :     0.001408  f :     0.014002
      f+1     :     0.003239
      f-1     :     0.001523
      f+2     :     0.002404
      f-2     :     0.001950
      f+3     :     0.001733
      f-3     :     0.001745
  9 H s       :     0.855795  s :     0.855795
      pz      :     0.005478  p :     0.021558
      px      :     0.007423
      py      :     0.008657
 10 C s       :     3.265252  s :     3.265252
      pz      :     0.951706  p :     2.895056
      px      :     0.953189
      py      :     0.990161
      dz2     :     0.018631  d :     0.082713
      dxz     :     0.013197
      dyz     :     0.010457
      dx2y2   :     0.024236
      dxy     :     0.016193
      f0      :     0.000403  f :     0.006929
      f+1     :     0.001367
      f-1     :     0.000899
      f+2     :     0.000905
      f-2     :     0.001079
      f+3     :     0.001146
      f-3     :     0.001130
 11 H s       :     0.903535  s :     0.903535
      pz      :     0.005625  p :     0.021952
      px      :     0.007456
      py      :     0.008872
 12 H s       :     0.900778  s :     0.900778
      pz      :     0.011364  p :     0.021992
      px      :     0.004568
      py      :     0.006060


                     *******************************
                     * LOEWDIN POPULATION ANALYSIS *
                     *******************************

----------------------
LOEWDIN ATOMIC CHARGES
----------------------
   0 C :   -0.194694
   1 C :   -0.449467
   2 O :    0.018647
   3 H :    0.143812
   4 C :   -0.196436
   5 O :   -0.218042
   6 C :   -0.194494
   7 H :    0.197616
   8 C :   -0.332148
   9 H :    0.145973
  10 C :   -0.185424
  11 H :    0.132407
  12 H :    0.132249

-------------------------------
LOEWDIN REDUCED ORBITAL CHARGES
-------------------------------
  0 C s       :     2.786317  s :     2.786317
      pz      :     1.020501  p :     3.006691
      px      :     1.010538
      py      :     0.975651
      dz2     :     0.090009  d :     0.363059
      dxz     :     0.099127
      dyz     :     0.070941
      dx2y2   :     0.038204
      dxy     :     0.064778
      f0      :     0.005715  f :     0.038627
      f+1     :     0.009343
      f-1     :     0.005240
      f+2     :     0.005586
      f-2     :     0.004793
      f+3     :     0.004194
      f-3     :     0.003757
  1 C s       :     2.741378  s :     2.741378
      pz      :     0.988681  p :     2.838183
      px      :     0.919983
      py      :     0.929519
      dz2     :     0.178380  d :     0.770700
      dxz     :     0.178568
      dyz     :     0.121296
      dx2y2   :     0.143351
      dxy     :     0.149106
      f0      :     0.009179  f :     0.099206
      f+1     :     0.025622
      f-1     :     0.010770
      f+2     :     0.017316
      f-2     :     0.012100
      f+3     :     0.010766
      f-3     :     0.013452
  2 O s       :     3.350173  s :     3.350173
      pz      :     1.588460  p :     4.558859
      px      :     1.429141
      py      :     1.541257
      dz2     :     0.008878  d :     0.067859
      dxz     :     0.019735
      dyz     :     0.012312
      dx2y2   :     0.011769
      dxy     :     0.015164
      f0      :     0.000437  f :     0.004461
      f+1     :     0.000815
      f-1     :     0.000191
      f+2     :     0.000746
      f-2     :     0.001145
      f+3     :     0.000638
      f-3     :     0.000489
  3 H s       :     0.797112  s :     0.797112
      pz      :     0.030379  p :     0.059077
      px      :     0.012825
      py      :     0.015872
  4 C s       :     2.786391  s :     2.786391
      pz      :     0.982569  p :     3.008318
      px      :     1.029827
      py      :     0.995922
      dz2     :     0.082026  d :     0.363067
      dxz     :     0.069344
      dyz     :     0.057622
      dx2y2   :     0.077704
      dxy     :     0.076372
      f0      :     0.002814  f :     0.038661
      f+1     :     0.008111
      f-1     :     0.004584
      f+2     :     0.005926
      f-2     :     0.005861
      f+3     :     0.004835
      f-3     :     0.006531
  5 O s       :     3.445483  s :     3.445483
      pz      :     1.616046  p :     4.709275
      px      :     1.497984
      py      :     1.595245
      dz2     :     0.010083  d :     0.058664
      dxz     :     0.017150
      dyz     :     0.005929
      dx2y2   :     0.012475
      dxy     :     0.013028
      f0      :     0.000436  f :     0.004620
      f+1     :     0.001013
      f-1     :     0.000164
      f+2     :     0.000860
      f-2     :     0.000829
      f+3     :     0.000623
      f-3     :     0.000694
  6 C s       :     2.773858  s :     2.773858
      pz      :     1.018447  p :     2.990489
      px      :     1.006276
      py      :     0.965766
      dz2     :     0.103004  d :     0.388232
      dxz     :     0.097867
      dyz     :     0.079273
      dx2y2   :     0.037267
      dxy     :     0.070821
      f0      :     0.006953  f :     0.041916
      f+1     :     0.010029
      f-1     :     0.005650
      f+2     :     0.006035
      f-2     :     0.004808
      f+3     :     0.004606
      f-3     :     0.003836
  7 H s       :     0.652486  s :     0.652486
      pz      :     0.051649  p :     0.149898
      px      :     0.039984
      py      :     0.058265
  8 C s       :     2.726917  s :     2.726917
      pz      :     0.998842  p :     2.853896
      px      :     0.873439
      py      :     0.981614
      dz2     :     0.136575  d :     0.661958
      dxz     :     0.172113
      dyz     :     0.120226
      dx2y2   :     0.129404
      dxy     :     0.103640
      f0      :     0.009096  f :     0.089377
      f+1     :     0.021007
      f-1     :     0.010435
      f+2     :     0.015684
      f-2     :     0.011599
      f+3     :     0.010537
      f-3     :     0.011019
  9 H s       :     0.794994  s :     0.794994
      pz      :     0.015407  p :     0.059033
      px      :     0.020271
      py      :     0.023355
 10 C s       :     2.772626  s :     2.772626
      pz      :     0.981032  p :     2.987168
      px      :     1.024406
      py      :     0.981729
      dz2     :     0.082061  d :     0.383762
      dxz     :     0.074017
      dyz     :     0.056894
      dx2y2   :     0.094298
      dxy     :     0.076492
      f0      :     0.002855  f :     0.041868
      f+1     :     0.008673
      f-1     :     0.005218
      f+2     :     0.007235
      f-2     :     0.006056
      f+3     :     0.004697
      f-3     :     0.007135
 11 H s       :     0.807993  s :     0.807993
      pz      :     0.015709  p :     0.059599
      px      :     0.020154
      py      :     0.023737
 12 H s       :     0.808044  s :     0.808044
      pz      :     0.030213  p :     0.059707
      px      :     0.012836
      py      :     0.016658


                      *****************************
                      * MAYER POPULATION ANALYSIS *
                      *****************************

  NA   - Mulliken gross atomic population
  ZA   - Total nuclear charge
  QA   - Mulliken gross atomic charge
  VA   - Mayer's total valence
  BVA  - Mayer's bonded valence
  FA   - Mayer's free valence

  ATOM       NA         ZA         QA         VA         BVA        FA
  0 C      6.2638     6.0000    -0.2638     3.6800     3.6800    -0.0000
  1 C      5.8076     6.0000     0.1924     4.1845     4.1845    -0.0000
  2 O      8.4396     8.0000    -0.4396     2.0460     2.0460    -0.0000
  3 H      0.8958     1.0000     0.1042     0.9841     0.9841     0.0000
  4 C      6.2778     6.0000    -0.2778     3.6466     3.6466    -0.0000
  5 O      8.6413     8.0000    -0.6413     1.8726     1.8726    -0.0000
  6 C      6.2506     6.0000    -0.2506     3.7553     3.7553    -0.0000
  7 H      0.6569     1.0000     0.3431     0.8940     0.8940    -0.0000
  8 C      5.7910     6.0000     0.2090     3.8941     3.8941    -0.0000
  9 H      0.8774     1.0000     0.1226     0.9680     0.9680     0.0000
 10 C      6.2499     6.0000    -0.2499     3.8735     3.8735     0.0000
 11 H      0.9255     1.0000     0.0745     0.9989     0.9989     0.0000
 12 H      0.9228     1.0000     0.0772     1.0004     1.0004     0.0000

  Mayer bond orders larger than 0.100000
B(  0-C ,  1-C ) :   1.1922 B(  0-C , 10-C ) :   1.3760 B(  0-C , 11-H ) :   0.9849 
B(  1-C ,  4-C ) :   1.1969 B(  1-C ,  5-O ) :   1.7047 B(  2-O ,  7-H ) :   0.8687 
B(  2-O ,  8-C ) :   1.0820 B(  3-H , 10-C ) :   0.9698 B(  4-C ,  6-C ) :   1.3186 
B(  4-C , 12-H ) :   0.9709 B(  6-C ,  8-C ) :   1.3221 B(  6-C ,  9-H ) :   0.9553 
B(  8-C , 10-C ) :   1.3596 

-------
TIMINGS
-------

Total SCF time: 0 days 0 hours 0 min 28 sec 

Total time                  ....      28.725 sec
Sum of individual times     ....      26.217 sec  ( 91.3%)

Fock matrix formation       ....      24.645 sec  ( 85.8%)
  Split-RI-J                ....       4.469 sec  ( 18.1% of F)
  XC integration            ....      11.600 sec  ( 47.1% of F)
    Basis function eval.    ....       3.739 sec  ( 32.2% of XC)
    Density eval.           ....       3.028 sec  ( 26.1% of XC)
    XC-Functional eval.     ....       0.496 sec  (  4.3% of XC)
    XC-Potential eval.      ....       2.767 sec  ( 23.9% of XC)
Diagonalization             ....       0.017 sec  (  0.1%)
Density matrix formation    ....       0.007 sec  (  0.0%)
Population analysis         ....       0.087 sec  (  0.3%)
Initial guess               ....       0.022 sec  (  0.1%)
Orbital Transformation      ....       0.000 sec  (  0.0%)
Orbital Orthonormalization  ....       0.015 sec  (  0.1%)
DIIS solution               ....       0.004 sec  (  0.0%)
SOSCF solution              ....       0.402 sec  (  1.4%)
Grid generation             ....       1.033 sec  (  3.6%)

Maximum memory used throughout the entire SCF-calculation: 110.5 MB


-------------------------------------------------------------------------------
                          DFT DISPERSION CORRECTION                            
                                                                               
                              DFTD3 V3.1  Rev 1                                
                          USING Becke-Johnson damping                          
-------------------------------------------------------------------------------
The PBE functional is recognized
Active option DFTDOPT                   ...         4   

molecular C6(AA) [au] = 2080.981074 


            DFT-D V3
 parameters
 s6 scaling factor         :     1.0000 
 a1 scaling factor         :     0.4289 
 s8 scaling factor         :     0.7875 
 a2 scaling factor         :     4.4407 
 ad hoc parameters k1-k3   :    16.0000     1.3333    -4.0000 

 Edisp/kcal,au: -7.943057381993  -0.012658066313 
 E6   /kcal   :  -5.515220444 
 E8   /kcal   :  -2.427836938 
 % E8         :  30.565521825 

-------------------------   ----------------
Dispersion correction           -0.012658066
-------------------------   ----------------


-------------------------   --------------------
FINAL SINGLE POINT ENERGY      -381.934751200856
-------------------------   --------------------

                                *** OPTIMIZATION RUN DONE ***

                            ***************************************
                            *     ORCA property calculations      *
                            ***************************************

                                    ---------------------
                                    Active property flags
                                    ---------------------
   (+) Dipole Moment


------------------------------------------------------------------------------
                       ORCA ELECTRIC PROPERTIES CALCULATION
------------------------------------------------------------------------------

Dipole Moment Calculation                       ... on
Quadrupole Moment Calculation                   ... off
Polarizability Calculation                      ... off
GBWName                                         ... inp.gbw
Electron density                                ... inp.scfp
The origin for moment calculation is the CENTER OF MASS  = (-13.583383, -8.476348  2.839732)

-------------
DIPOLE MOMENT
-------------
                                X             Y             Z
Electronic contribution:     -0.52208      -0.14955       0.42440
Nuclear contribution   :     -2.48705      -1.38998       0.82448
                        -----------------------------------------
Total Dipole Moment    :     -3.00914      -1.53953       1.24888
                        -----------------------------------------
Magnitude (a.u.)       :      3.60344
Magnitude (Debye)      :      9.15922



--------------------
Rotational spectrum 
--------------------
 
Rotational constants in cm-1:     0.188816     0.049689     0.039337 
Rotational constants in MHz :  5660.572059  1489.639117  1179.295670 

 Dipole components along the rotational axes: 
x,y,z [a.u.] :    -3.534506    -0.701455    -0.002951 
x,y,z [Debye]:    -8.983999    -1.782957    -0.007500 

 

Timings for individual modules:

Sum of individual times         ...      326.700 sec (=   5.445 min)
GTO integral calculation        ...        9.253 sec (=   0.154 min)   2.8 %
SCF iterations                  ...      235.679 sec (=   3.928 min)  72.1 %
SCF Gradient evaluation         ...       80.683 sec (=   1.345 min)  24.7 %
Geometry relaxation             ...        1.085 sec (=   0.018 min)   0.3 %
                             ****ORCA TERMINATED NORMALLY****
TOTAL RUN TIME: 0 days 0 hours 5 minutes 31 seconds 726 msec
