 Entering Gaussian System
 *********************************************
 Gaussian 98:
 frequency output generated by the xtb code
 *********************************************
                         Standard orientation:
 --------------------------------------------------------------------
  Center     Atomic     Atomic              Coordinates (Angstroms)
  Number     Number      Type              X           Y           Z
 --------------------------------------------------------------------
    1          6             0       -2.046562   -2.820228    1.560431
    2          6             0       -2.542063   -2.171340    0.376428
    3          6             0       -3.712886   -2.528968   -0.201425
    4          6             0       -4.507521   -3.567479    0.340845
    5          6             0       -4.050216   -4.227627    1.503542
    6          6             0       -2.879089   -3.873981    2.085942
    7          8             0       -6.373600   -4.844232    0.252410
    8          1             0       -2.536979   -4.387761    2.979263
    9          1             0       -1.934623   -1.378633   -0.036688
   10          1             0       -4.074983   -2.033955   -1.092003
   11          7             0       -5.694109   -3.925860   -0.247437
   12          1             0       -4.664929   -5.020317    1.908809
   13          8             0       -6.075325   -3.329040   -1.273219
   14          7             0       -0.915452   -2.428692    2.068515
   15          1             0       -0.670340   -2.962872    2.905840
 --------------------------------------------------------------------
     1 basis functions        1 primitive gaussians
     1 alpha electrons        1 beta electrons
 
 Harmonic frequencies (cm**-1), IR intensities (km*mol⁻¹),
 Raman scattering activities (A**4/amu), Raman depolarization ratios,
 reduced masses (AMU), force constants (mDyne/A) and normal coordinates:
                      1                      2                      3
                        a                      a                      a 
 Frequencies --    92.4887                93.4382               211.0974
 Red. masses --    12.7431                13.7448                13.6051
 Frc consts  --     0.0000                 0.0000                 0.0000
 IR Inten    --    13.1599                 0.8407                 7.3700
 Raman Activ --     0.0000                 0.0000                 0.0000
 Depolar     --     0.0000                 0.0000                 0.0000
 Atom AN      X      Y      Z        X      Y      Z        X      Y      Z
   1   6    -0.02   0.02   0.02    -0.01   0.01   0.01    -0.01  -0.04   0.04
   2   6     0.06  -0.08  -0.07     0.16  -0.22  -0.19     0.13   0.07   0.03
   3   6     0.12  -0.16  -0.14     0.15  -0.21  -0.18     0.14   0.21  -0.13
   4   6     0.11  -0.15  -0.13     0.04  -0.06  -0.05     0.04   0.23  -0.23
   5   6     0.19  -0.26  -0.22    -0.04   0.05   0.04    -0.07   0.15  -0.23
   6   6     0.15  -0.21  -0.18    -0.08   0.11   0.10    -0.11   0.00  -0.10
   7   8    -0.23   0.32   0.27     0.22  -0.30  -0.26     0.35  -0.05   0.35
   8   1     0.06  -0.08  -0.07    -0.05   0.07   0.06    -0.07  -0.02  -0.03
   9   1     0.01  -0.01  -0.01     0.08  -0.11  -0.09     0.07   0.02   0.04
  10   1     0.04  -0.05  -0.04     0.07  -0.10  -0.08     0.08   0.09  -0.04
  11   7    -0.04   0.05   0.04    -0.01   0.02   0.02     0.00   0.02  -0.02
  12   1     0.07  -0.10  -0.09    -0.03   0.04   0.03    -0.05   0.05  -0.10
  13   8    -0.03   0.04   0.03    -0.32   0.44   0.37    -0.42  -0.28  -0.03
  14   7    -0.27   0.37   0.32    -0.09   0.13   0.11    -0.03  -0.24   0.26
  15   1    -0.08   0.12   0.10    -0.06   0.08   0.07    -0.07  -0.10   0.06
                      4                      5                      6
                        a                      a                      a 
 Frequencies --   247.1365               352.7506               374.6955
 Red. masses --    11.4239                13.7929                 9.3866
 Frc consts  --     0.0000                 0.0000                 0.0000
 IR Inten    --     1.5767                 0.0556                 1.9656
 Raman Activ --     0.0000                 0.0000                 0.0000
 Depolar     --     0.0000                 0.0000                 0.0000
 Atom AN      X      Y      Z        X      Y      Z        X      Y      Z
   1   6    -0.11   0.15   0.13     0.33   0.12   0.15     0.01  -0.01  -0.01
   2   6    -0.17   0.24   0.21     0.12  -0.04   0.14    -0.20   0.28   0.24
   3   6     0.10  -0.14  -0.12     0.07  -0.07   0.14     0.21  -0.29  -0.25
   4   6     0.26  -0.37  -0.31    -0.14  -0.05  -0.06     0.02  -0.02  -0.02
   5   6     0.11  -0.15  -0.12     0.12   0.12  -0.04    -0.22   0.30   0.26
   6   6    -0.18   0.25   0.21     0.16   0.15  -0.04     0.21  -0.28  -0.24
   7   8    -0.09   0.13   0.11    -0.37  -0.08  -0.22     0.02  -0.03  -0.02
   8   1    -0.10   0.13   0.11     0.01   0.02  -0.01     0.08  -0.11  -0.10
   9   1    -0.09   0.13   0.11    -0.00  -0.00  -0.00    -0.10   0.13   0.11
  10   1     0.03  -0.04  -0.04     0.06   0.01   0.04     0.12  -0.17  -0.14
  11   7     0.07  -0.10  -0.08    -0.26  -0.08  -0.12     0.00  -0.01  -0.00
  12   1     0.04  -0.05  -0.04     0.08   0.02   0.04    -0.14   0.19   0.16
  13   8    -0.09   0.13   0.11    -0.37  -0.14  -0.14    -0.02   0.03   0.03
  14   7     0.14  -0.20  -0.17     0.38   0.09   0.21    -0.03   0.03   0.03
  15   1     0.06  -0.08  -0.07     0.08   0.01   0.06     0.08  -0.11  -0.09
                      7                      8                      9
                        a                      a                      a 
 Frequencies --   400.8996               430.4393               547.9323
 Red. masses --    10.9386                 8.7859                13.2624
 Frc consts  --     0.0000                 0.0000                 0.0000
 IR Inten    --    10.8670                 0.4552                 1.2618
 Raman Activ --     0.0000                 0.0000                 0.0000
 Depolar     --     0.0000                 0.0000                 0.0000
 Atom AN      X      Y      Z        X      Y      Z        X      Y      Z
   1   6     0.03   0.23  -0.25    -0.24   0.33   0.28     0.02   0.09  -0.09
   2   6    -0.00   0.22  -0.27    -0.04   0.05   0.05    -0.02   0.03  -0.05
   3   6    -0.08  -0.04  -0.02     0.14  -0.20  -0.17    -0.06  -0.26   0.25
   4   6    -0.01  -0.07   0.08    -0.23   0.31   0.27    -0.04  -0.18   0.18
   5   6     0.05  -0.01   0.05     0.12  -0.17  -0.14    -0.06  -0.25   0.25
   6   6     0.07   0.25  -0.23    -0.03   0.03   0.03     0.02   0.05  -0.04
   7   8    -0.14  -0.07  -0.03     0.04  -0.05  -0.04     0.41   0.24   0.07
   8   1     0.08   0.12  -0.06     0.11  -0.15  -0.13     0.07   0.06  -0.01
   9   1    -0.06   0.08  -0.14     0.10  -0.14  -0.12    -0.06   0.02  -0.08
  10   1    -0.08  -0.05  -0.01     0.16  -0.22  -0.19    -0.08  -0.12   0.07
  11   7    -0.00  -0.09   0.10    -0.07   0.10   0.09     0.05   0.25  -0.25
  12   1     0.06  -0.01   0.06     0.15  -0.20  -0.17     0.04  -0.08   0.13
  13   8     0.19   0.04   0.12     0.03  -0.05  -0.04    -0.34   0.02  -0.31
  14   7    -0.04  -0.39   0.42     0.09  -0.13  -0.11     0.01  -0.01   0.03
  15   1    -0.23  -0.24   0.09     0.06  -0.08  -0.07    -0.03  -0.03   0.00
                     10                     11                     12
                        a                      a                      a 
 Frequencies --   603.4750               618.0348               650.4674
 Red. masses --    11.5084                13.1401                11.2511
 Frc consts  --     0.0000                 0.0000                 0.0000
 IR Inten    --     2.0404                33.6259                11.8508
 Raman Activ --     0.0000                 0.0000                 0.0000
 Depolar     --     0.0000                 0.0000                 0.0000
 Atom AN      X      Y      Z        X      Y      Z        X      Y      Z
   1   6     0.00   0.06  -0.06     0.19   0.06   0.10    -0.24   0.33   0.28
   2   6     0.39   0.28   0.01    -0.18  -0.22   0.11     0.12  -0.17  -0.14
   3   6     0.34  -0.01   0.31    -0.18  -0.17   0.04    -0.15   0.21   0.18
   4   6     0.01  -0.03   0.05    -0.24  -0.07  -0.13     0.10  -0.14  -0.12
   5   6    -0.37  -0.25  -0.03    -0.19   0.05  -0.22    -0.14   0.20   0.17
   6   6    -0.31   0.03  -0.31    -0.16   0.12  -0.28     0.11  -0.15  -0.13
   7   8    -0.11  -0.08  -0.00     0.23  -0.12   0.33    -0.08   0.10   0.09
   8   1    -0.07   0.02  -0.08    -0.12  -0.02  -0.08     0.11  -0.15  -0.13
   9   1     0.10   0.08  -0.00    -0.12  -0.05  -0.04     0.12  -0.17  -0.14
  10   1     0.08  -0.01   0.08    -0.00  -0.01   0.01     0.02  -0.02  -0.02
  11   7    -0.01  -0.07   0.08    -0.11  -0.04  -0.04     0.23  -0.32  -0.27
  12   1    -0.10  -0.07  -0.00    -0.02   0.01  -0.03     0.01  -0.02  -0.01
  13   8     0.05  -0.05   0.11     0.33   0.27  -0.04    -0.08   0.10   0.09
  14   7    -0.00   0.12  -0.15     0.26   0.10   0.11     0.03  -0.05  -0.04
  15   1     0.06   0.07  -0.03     0.07   0.03   0.03     0.06  -0.09  -0.07
                     13                     14                     15
                        a                      a                      a 
 Frequencies --   701.0216               745.7387               781.5537
 Red. masses --    13.1792                 2.8038                13.4707
 Frc consts  --     0.0000                 0.0000                 0.0000
 IR Inten    --    45.3606                51.5027                 1.4289
 Raman Activ --     0.0000                 0.0000                 0.0000
 Depolar     --     0.0000                 0.0000                 0.0000
 Atom AN      X      Y      Z        X      Y      Z        X      Y      Z
   1   6     0.15  -0.21  -0.18     0.05  -0.07  -0.06     0.16   0.05   0.08
   2   6    -0.07   0.10   0.08     0.00  -0.01  -0.01    -0.20  -0.13  -0.02
   3   6     0.06  -0.08  -0.07    -0.05   0.07   0.06    -0.19   0.02  -0.18
   4   6    -0.22   0.31   0.26    -0.02   0.03   0.03     0.14   0.05   0.07
   5   6     0.04  -0.06  -0.05     0.08  -0.11  -0.10    -0.22  -0.14  -0.02
   6   6    -0.06   0.09   0.08    -0.02   0.02   0.02    -0.17  -0.00  -0.15
   7   8    -0.10   0.14   0.12    -0.01   0.01   0.01     0.02   0.30  -0.33
   8   1    -0.00   0.01   0.01    -0.14   0.19   0.16    -0.09  -0.03  -0.04
   9   1    -0.02   0.03   0.03     0.10  -0.14  -0.12    -0.10  -0.02  -0.05
  10   1     0.02  -0.03  -0.03     0.07  -0.09  -0.08    -0.10  -0.03  -0.05
  11   7     0.35  -0.48  -0.41     0.01  -0.01  -0.01     0.33   0.10   0.17
  12   1     0.03  -0.05  -0.04    -0.08   0.11   0.09    -0.10  -0.03  -0.05
  13   8    -0.10   0.14   0.12     0.00  -0.00  -0.00    -0.10  -0.32   0.30
  14   7    -0.02   0.03   0.03    -0.15   0.20   0.17     0.26   0.08   0.13
  15   1    -0.05   0.06   0.05     0.40  -0.55  -0.47     0.07   0.02   0.03
                     16                     17                     18
                        a                      a                      a 
 Frequencies --   808.2495               837.2377               856.9522
 Red. masses --     5.8883                 3.5532                11.8494
 Frc consts  --     0.0000                 0.0000                 0.0000
 IR Inten    --    32.4441                 2.5583                 7.0031
 Raman Activ --     0.0000                 0.0000                 0.0000
 Depolar     --     0.0000                 0.0000                 0.0000
 Atom AN      X      Y      Z        X      Y      Z        X      Y      Z
   1   6     0.19  -0.25  -0.22     0.02  -0.03  -0.03    -0.15  -0.06  -0.07
   2   6    -0.11   0.15   0.13    -0.15   0.21   0.18    -0.04  -0.27   0.28
   3   6    -0.06   0.08   0.06    -0.11   0.15   0.12     0.08  -0.23   0.33
   4   6     0.12  -0.16  -0.14     0.02  -0.03  -0.03    -0.03  -0.01  -0.01
   5   6    -0.09   0.12   0.11     0.07  -0.09  -0.08     0.17   0.30  -0.20
   6   6    -0.16   0.22   0.19     0.10  -0.14  -0.12     0.06   0.29  -0.28
   7   8     0.01  -0.01  -0.01    -0.00   0.00   0.00     0.05   0.17  -0.15
   8   1     0.26  -0.37  -0.31    -0.17   0.24   0.20     0.01   0.07  -0.08
   9   1     0.17  -0.24  -0.21     0.26  -0.36  -0.31    -0.02  -0.08   0.08
  10   1     0.09  -0.13  -0.11     0.19  -0.26  -0.22     0.11  -0.01   0.09
  11   7    -0.04   0.06   0.05    -0.00   0.01   0.01     0.14   0.04   0.07
  12   1     0.14  -0.20  -0.17    -0.12   0.17   0.14     0.12   0.07   0.02
  13   8     0.01  -0.01  -0.01     0.00  -0.01  -0.01    -0.01  -0.16   0.17
  14   7    -0.06   0.08   0.07     0.05  -0.07  -0.06    -0.29  -0.08  -0.15
  15   1     0.03  -0.03  -0.03    -0.18   0.25   0.21    -0.10  -0.04  -0.04
                     19                     20                     21
                        a                      a                      a 
 Frequencies --   914.8001               920.1153               973.0000
 Red. masses --     2.7553                 3.2968                 8.7996
 Frc consts  --     0.0000                 0.0000                 0.0000
 IR Inten    --     3.5745                 0.2661                 0.0205
 Raman Activ --     0.0000                 0.0000                 0.0000
 Depolar     --     0.0000                 0.0000                 0.0000
 Atom AN      X      Y      Z        X      Y      Z        X      Y      Z
   1   6    -0.05   0.07   0.06    -0.01   0.02   0.01     0.03   0.02   0.01
   2   6    -0.03   0.04   0.04    -0.11   0.15   0.13     0.06   0.27  -0.26
   3   6     0.06  -0.09  -0.07     0.15  -0.21  -0.18    -0.03  -0.29   0.31
   4   6    -0.01   0.01   0.01    -0.00   0.00   0.00    -0.09  -0.02  -0.05
   5   6     0.15  -0.20  -0.17    -0.09   0.12   0.11     0.08   0.30  -0.28
   6   6    -0.09   0.12   0.10     0.07  -0.10  -0.08    -0.04  -0.27   0.28
   7   8    -0.00   0.00   0.00    -0.00   0.00   0.00     0.05   0.08  -0.06
   8   1     0.21  -0.29  -0.25    -0.12   0.16   0.14    -0.19  -0.20   0.07
   9   1     0.11  -0.15  -0.13     0.23  -0.31  -0.27    -0.16   0.11  -0.26
  10   1    -0.18   0.24   0.21    -0.31   0.43   0.36    -0.14  -0.17   0.08
  11   7     0.02  -0.02  -0.02     0.00  -0.01  -0.01     0.04   0.01   0.02
  12   1    -0.33   0.46   0.39     0.15  -0.21  -0.18    -0.10   0.11  -0.20
  13   8    -0.00   0.00   0.00    -0.00   0.00   0.00     0.02  -0.06   0.10
  14   7     0.01  -0.01  -0.01    -0.01   0.01   0.01     0.02   0.00   0.02
  15   1    -0.01   0.01   0.01     0.02  -0.03  -0.03     0.03   0.02   0.01
                     22                     23                     24
                        a                      a                      a 
 Frequencies --  1100.3750              1145.5372              1171.6273
 Red. masses --     4.9168                 7.4895                 3.3886
 Frc consts  --     0.0000                 0.0000                 0.0000
 IR Inten    --    13.4429                 6.1897                93.1612
 Raman Activ --     0.0000                 0.0000                 0.0000
 Depolar     --     0.0000                 0.0000                 0.0000
 Atom AN      X      Y      Z        X      Y      Z        X      Y      Z
   1   6     0.06   0.27  -0.26     0.01  -0.01   0.02     0.04   0.19  -0.19
   2   6    -0.08  -0.19   0.15     0.04   0.11  -0.09     0.04  -0.01   0.05
   3   6     0.07  -0.05   0.12     0.02   0.07  -0.07    -0.04  -0.01  -0.02
   4   6     0.05   0.13  -0.11    -0.43  -0.13  -0.22    -0.11  -0.08   0.00
   5   6    -0.08  -0.12   0.07    -0.01  -0.07   0.07    -0.01   0.01  -0.02
   6   6     0.03  -0.14   0.18     0.00  -0.09   0.10    -0.02  -0.10   0.10
   7   8    -0.03  -0.03   0.01     0.18   0.22  -0.11     0.06   0.07  -0.03
   8   1     0.20   0.09   0.06    -0.04  -0.05   0.03    -0.29  -0.23   0.02
   9   1    -0.23  -0.01  -0.18    -0.08   0.05  -0.13     0.37  -0.08   0.41
  10   1     0.38   0.24   0.04     0.38   0.30  -0.02    -0.12  -0.08  -0.01
  11   7    -0.00   0.00  -0.01    -0.10  -0.03  -0.05    -0.05  -0.02  -0.02
  12   1    -0.31   0.02  -0.29     0.29  -0.08   0.35     0.07  -0.01   0.07
  13   8     0.01  -0.00   0.01     0.11  -0.14   0.25     0.03  -0.03   0.07
  14   7     0.06   0.08  -0.04    -0.03  -0.02  -0.00     0.17   0.17  -0.06
  15   1    -0.30  -0.18  -0.04     0.04   0.03   0.00    -0.48  -0.30  -0.06
                     25                     26                     27
                        a                      a                      a 
 Frequencies --  1200.3033              1282.5861              1349.8912
 Red. masses --     4.8847                 4.1491                 9.5723
 Frc consts  --     0.0000                 0.0000                 0.0000
 IR Inten    --    98.0548                60.4004               602.0044
 Raman Activ --     0.0000                 0.0000                 0.0000
 Depolar     --     0.0000                 0.0000                 0.0000
 Atom AN      X      Y      Z        X      Y      Z        X      Y      Z
   1   6    -0.04  -0.03   0.00    -0.00  -0.04   0.05    -0.01   0.16  -0.20
   2   6     0.07   0.08  -0.03     0.09  -0.09   0.18    -0.10   0.01  -0.10
   3   6    -0.09  -0.07  -0.00     0.13   0.08   0.01    -0.11  -0.19   0.13
   4   6    -0.28  -0.08  -0.14     0.03   0.24  -0.26    -0.05   0.13  -0.20
   5   6    -0.08  -0.01  -0.05    -0.12  -0.03  -0.07    -0.04   0.06  -0.10
   6   6     0.11   0.01   0.08    -0.08  -0.13   0.08    -0.18  -0.21   0.10
   7   8     0.15   0.17  -0.07    -0.00   0.01  -0.01    -0.18  -0.18   0.06
   8   1     0.49   0.32   0.03     0.29   0.19   0.03     0.20   0.12   0.03
   9   1     0.29  -0.03   0.28    -0.23   0.03  -0.23     0.20  -0.05   0.22
  10   1    -0.14  -0.10  -0.01    -0.41  -0.30   0.00     0.12   0.06   0.04
  11   7    -0.15  -0.04  -0.08    -0.07  -0.03  -0.02     0.43   0.13   0.21
  12   1    -0.26   0.04  -0.26     0.26  -0.07   0.30     0.22  -0.03   0.23
  13   8     0.10  -0.10   0.20     0.05  -0.02   0.07    -0.09   0.08  -0.17
  14   7     0.03  -0.02   0.06     0.06   0.09  -0.06     0.06  -0.04   0.10
  15   1     0.14   0.08   0.03    -0.23  -0.14  -0.03     0.18   0.10   0.04
                     28                     29                     30
                        a                      a                      a 
 Frequencies --  1377.3295              1412.9890              1474.3704
 Red. masses --     8.9040                11.1634                11.9543
 Frc consts  --     0.0000                 0.0000                 0.0000
 IR Inten    --    20.4164              1096.6885                27.4341
 Raman Activ --     0.0000                 0.0000                 0.0000
 Depolar     --     0.0000                 0.0000                 0.0000
 Atom AN      X      Y      Z        X      Y      Z        X      Y      Z
   1   6    -0.08  -0.35   0.34    -0.19  -0.08  -0.07    -0.04  -0.24   0.25
   2   6    -0.03   0.14  -0.19    -0.14   0.03  -0.15    -0.12   0.11  -0.23
   3   6     0.01   0.04  -0.04    -0.09  -0.15   0.10    -0.09  -0.21   0.17
   4   6    -0.11  -0.27   0.23     0.50   0.16   0.24     0.06   0.36  -0.37
   5   6    -0.08   0.12  -0.21    -0.04   0.10  -0.16    -0.01  -0.19   0.22
   6   6    -0.01   0.03  -0.04    -0.15  -0.10  -0.01     0.22   0.21  -0.06
   7   8    -0.05  -0.06   0.03     0.09   0.09  -0.03    -0.13  -0.16   0.08
   8   1     0.23   0.17  -0.01     0.12   0.08  -0.00    -0.11  -0.07  -0.01
   9   1    -0.01   0.04  -0.05     0.08  -0.02   0.09     0.08  -0.00   0.07
  10   1     0.16   0.12  -0.01     0.20   0.12   0.03     0.05   0.00   0.04
  11   7     0.22   0.07   0.11    -0.42  -0.13  -0.21     0.06   0.24  -0.23
  12   1     0.02   0.03  -0.01     0.17  -0.00   0.15    -0.06  -0.04  -0.01
  13   8    -0.08   0.05  -0.13     0.06  -0.05   0.11     0.08  -0.09   0.17
  14   7     0.18   0.18  -0.06     0.20   0.06   0.09     0.04   0.05  -0.03
  15   1    -0.37  -0.23  -0.04     0.04   0.01   0.03    -0.12  -0.08  -0.01
                     31                     32                     33
                        a                      a                      a 
 Frequencies --  1508.9525              1536.2962              1565.5780
 Red. masses --    13.8288                11.6189                12.0078
 Frc consts  --     0.0000                 0.0000                 0.0000
 IR Inten    --   368.1986                 1.1177                80.4991
 Raman Activ --     0.0000                 0.0000                 0.0000
 Depolar     --     0.0000                 0.0000                 0.0000
 Atom AN      X      Y      Z        X      Y      Z        X      Y      Z
   1   6     0.01   0.11  -0.12     0.05  -0.02   0.07     0.63   0.20   0.31
   2   6    -0.04  -0.08   0.06     0.39   0.10   0.21    -0.00   0.05  -0.06
   3   6     0.13   0.14  -0.06    -0.42  -0.17  -0.16    -0.16  -0.09  -0.03
   4   6    -0.04  -0.22   0.22     0.01   0.02  -0.01     0.17   0.04   0.09
   5   6    -0.08   0.08  -0.16     0.40   0.09   0.24    -0.20  -0.00  -0.17
   6   6     0.00  -0.06   0.07    -0.43  -0.16  -0.18     0.05  -0.03   0.07
   7   8    -0.17  -0.25   0.15    -0.04  -0.05   0.03     0.01   0.01   0.00
   8   1     0.04   0.01   0.02     0.06   0.09  -0.05     0.09   0.03   0.03
   9   1    -0.03  -0.01  -0.01    -0.00   0.06  -0.07     0.08   0.00   0.07
  10   1    -0.05  -0.02  -0.02     0.04   0.07  -0.05     0.06   0.05  -0.01
  11   7     0.09   0.50  -0.51     0.01   0.12  -0.13    -0.07  -0.02  -0.03
  12   1     0.04   0.01   0.02    -0.01   0.05  -0.07     0.05  -0.02   0.07
  13   8     0.09  -0.18   0.28     0.02  -0.04   0.06     0.01  -0.00   0.01
  14   7    -0.01  -0.03   0.03    -0.01   0.04  -0.06    -0.44  -0.14  -0.21
  15   1     0.07   0.04   0.01    -0.08  -0.04  -0.02    -0.10  -0.02  -0.06
                     34                     35                     36
                        a                      a                      a 
 Frequencies --  1623.6762              3007.3748              3063.2635
 Red. masses --    11.5694                 1.7928                 1.8297
 Frc consts  --     0.0000                 0.0000                 0.0000
 IR Inten    --   191.2493                86.0037                46.3746
 Raman Activ --     0.0000                 0.0000                 0.0000
 Depolar     --     0.0000                 0.0000                 0.0000
 Atom AN      X      Y      Z        X      Y      Z        X      Y      Z
   1   6     0.22   0.05   0.13    -0.01   0.00  -0.01    -0.00  -0.00   0.00
   2   6    -0.42  -0.07  -0.27     0.01   0.01  -0.00    -0.02  -0.03   0.02
   3   6     0.41   0.18   0.15     0.00   0.00  -0.00    -0.03   0.03  -0.06
   4   6    -0.08  -0.02  -0.05    -0.00  -0.00   0.00     0.01   0.00  -0.00
   5   6     0.36   0.06   0.24    -0.02  -0.02   0.01     0.15   0.19  -0.09
   6   6    -0.39  -0.16  -0.15    -0.09   0.12  -0.22    -0.02   0.02  -0.04
   7   8     0.02   0.02  -0.01    -0.00  -0.00  -0.00    -0.00  -0.00   0.00
   8   1     0.06   0.08  -0.04     0.30  -0.45   0.78     0.04  -0.06   0.10
   9   1     0.03  -0.05   0.09    -0.02  -0.02   0.01     0.09   0.12  -0.06
  10   1    -0.05  -0.07   0.04     0.00  -0.00   0.00     0.09  -0.12   0.22
  11   7    -0.07  -0.02  -0.03     0.00   0.00  -0.00     0.00   0.00  -0.00
  12   1    -0.03   0.04  -0.08     0.08   0.10  -0.05    -0.51  -0.66   0.34
  13   8     0.01  -0.01   0.03    -0.00  -0.00  -0.00    -0.00  -0.00   0.00
  14   7    -0.05  -0.01  -0.03     0.00  -0.00   0.01     0.00   0.00   0.00
  15   1    -0.04  -0.02  -0.01    -0.00   0.01  -0.01    -0.00   0.00  -0.00
                     37                     38                     39
                        a                      a                      a 
 Frequencies --  3063.9289              3077.4224              3260.1705
 Red. masses --     1.7620                 1.8810                 1.8425
 Frc consts  --     0.0000                 0.0000                 0.0000
 IR Inten    --    21.7156                69.4752               149.2133
 Raman Activ --     0.0000                 0.0000                 0.0000
 Depolar     --     0.0000                 0.0000                 0.0000
 Atom AN      X      Y      Z        X      Y      Z        X      Y      Z
   1   6     0.01   0.00  -0.00     0.01   0.00   0.00     0.01   0.01  -0.01
   2   6     0.10   0.13  -0.07     0.11   0.14  -0.07     0.00  -0.00   0.00
   3   6     0.06  -0.08   0.14    -0.07   0.09  -0.16     0.00   0.00   0.00
   4   6     0.01  -0.00   0.01    -0.01  -0.00  -0.00    -0.00  -0.00   0.00
   5   6     0.05   0.06  -0.03    -0.01  -0.02   0.01     0.00   0.00  -0.00
   6   6    -0.00   0.00  -0.01     0.00  -0.01   0.01    -0.00   0.00  -0.00
   7   8    -0.00  -0.00   0.00     0.00   0.00   0.00    -0.00  -0.00   0.00
   8   1     0.01  -0.01   0.02    -0.01   0.02  -0.03     0.00  -0.01   0.01
   9   1    -0.38  -0.49   0.25    -0.38  -0.49   0.26    -0.00  -0.01   0.00
  10   1    -0.21   0.29  -0.52     0.22  -0.31   0.56    -0.00   0.00  -0.00
  11   7     0.00  -0.00   0.00    -0.00   0.00  -0.00     0.00   0.00   0.00
  12   1    -0.17  -0.22   0.11     0.04   0.05  -0.03    -0.00  -0.00   0.00
  13   8     0.00   0.00  -0.00     0.00  -0.00   0.00    -0.00   0.00  -0.00
  14   7     0.00  -0.00   0.00    -0.00  -0.00  -0.00    -0.07   0.12  -0.21
  15   1    -0.00   0.01  -0.01    -0.00   0.00  -0.00     0.26  -0.49   0.79
