      -----------------------------------------------------------      
     |                   =====================                   |     
     |                           x T B                           |     
     |                   =====================                   |     
     |                         S. Grimme                         |     
     |          Mulliken Center for Theoretical Chemistry        |     
     |                    University of Bonn                     |     
      -----------------------------------------------------------      

   * xtb version 6.7.1 (edcfbbe) compiled by 'albert@albert-system' on 2024-07-22

   xtb is free software: you can redistribute it and/or modify it under
   the terms of the GNU Lesser General Public License as published by
   the Free Software Foundation, either version 3 of the License, or
   (at your option) any later version.
   
   xtb is distributed in the hope that it will be useful,
   but WITHOUT ANY WARRANTY; without even the implied warranty of
   MERCHANTABILITY or FITNESS FOR A PARTICULAR PURPOSE.  See the
   GNU Lesser General Public License for more details.
   
   Cite this work as:
   * C. Bannwarth, E. Caldeweyher, S. Ehlert, A. Hansen, P. Pracht,
     J. Seibert, S. Spicher, S. Grimme, WIREs Comput. Mol. Sci., 2020, 11,
     e01493. DOI: 10.1002/wcms.1493
   
   for GFN2-xTB:
   * C. Bannwarth, S. Ehlert and S. Grimme., J. Chem. Theory Comput., 2019,
     15, 1652-1671. DOI: 10.1021/acs.jctc.8b01176
   for GFN1-xTB:
   * S. Grimme, C. Bannwarth, P. Shushkov, J. Chem. Theory Comput., 2017,
     13, 1989-2009. DOI: 10.1021/acs.jctc.7b00118
   for GFN0-xTB:
   * P. Pracht, E. Caldeweyher, S. Ehlert, S. Grimme, ChemRxiv, 2019, preprint.
     DOI: 10.26434/chemrxiv.8326202.v1
   for GFN-FF:
   * S. Spicher and S. Grimme, Angew. Chem. Int. Ed., 2020, 59, 15665-15673.
     DOI: 10.1002/anie.202004239
   
   for ALPB and GBSA implicit solvation:
   * S. Ehlert, M. Stahn, S. Spicher, S. Grimme, J. Chem. Theory Comput.,
     2021, 17, 4250-4261. DOI: 10.1021/acs.jctc.1c00471
   
   for ddCOSMO and CPCM-X implicit solvation:
   * M. Stahn, S. Ehlert, S. Grimme, J. Phys. Chem. A,
     2023, XX, XXXX-XXXX. DOI: 10.1021/acs.jpca.3c04382
   
   for DFT-D4:
   * E. Caldeweyher, C. Bannwarth and S. Grimme, J. Chem. Phys., 2017,
     147, 034112. DOI: 10.1063/1.4993215
   * E. Caldeweyher, S. Ehlert, A. Hansen, H. Neugebauer, S. Spicher,
     C. Bannwarth and S. Grimme, J. Chem. Phys., 2019, 150, 154122.
     DOI: 10.1063/1.5090222
   * E. Caldeweyher, J.-M. Mewes, S. Ehlert and S. Grimme, Phys. Chem. Chem. Phys.
     2020, 22, 8499-8512. DOI: 10.1039/D0CP00502A
   
   for sTDA-xTB:
   * S. Grimme and C. Bannwarth, J. Chem. Phys., 2016, 145, 054103.
     DOI: 10.1063/1.4959605
   
   in the mass-spec context:
   * V. Asgeirsson, C. Bauer and S. Grimme, Chem. Sci., 2017, 8, 4879.
     DOI: 10.1039/c7sc00601b
   * J. Koopman and S. Grimme, ACS Omega 2019, 4, 12, 15120-15133.
     DOI: 10.1021/acsomega.9b02011
   
   for metadynamics refer to:
   * S. Grimme, J. Chem. Theory Comput., 2019, 155, 2847-2862
     DOI: 10.1021/acs.jctc.9b00143
   
   for SPH calculations refer to:
   * S. Spicher and S. Grimme, J. Chem. Theory Comput., 2021, 17, 1701-1714
     DOI: 10.1021/acs.jctc.0c01306
   
   for ONIOM refer to:
   * C. Plett, A. Katbashev, S. Ehlert, S. Grimme, M. Bursch,
     Phys. Chem. Chem. Phys., 2023, 25, 17860-17868. DOI: 10.1039/D3CP02178E
   
   for DIPRO refer to:
   * J. Kohn, N. Gildemeister, S. Grimme, D. Fazzi, A. Hansen,
     J. Chem. Phys., 2023, just accepted.
   
   for PTB refer to:
   * S. Grimme, M. Mueller, A. Hansen, J. Chem. Phys., 2023, 158, 124111.
     DOI: 10.1063/5.0137838
   
   with help from (in alphabetical order)
   P. Atkinson, C. Bannwarth, F. Bohle, G. Brandenburg, E. Caldeweyher
   M. Checinski, S. Dohm, S. Ehlert, S. Ehrlich, I. Gerasimov, C. Hölzer
   A. Katbashev, J. Kohn, J. Koopman, C. Lavigne, S. Lehtola, F. März, M. Müller,
   F. Musil, H. Neugebauer, J. Pisarek, C. Plett, P. Pracht, F. Pultar,
   J. Seibert, P. Shushkov, S. Spicher, M. Stahn, M. Steiner, T. Strunk,
   J. Stückrath, T. Rose, and J. Unsleber
   
 * started run on 2025/10/18 at 04:56:40.831     
   ID    Z sym.   atoms
    1    6 C      1-6
    2    8 O      7, 13
    3    1 H      8-10, 12, 15
    4    7 N      11, 14

           -------------------------------------------------
          |                Calculation Setup                |
           -------------------------------------------------

          program call               : xtb xyz.xyz --charge -1 --ohess
          hostname                   : m003
          coordinate file            : xyz.xyz
          omp threads                :                     2


           -------------------------------------------------
          |                 G F N 2 - x T B                 |
           -------------------------------------------------

        Reference                      10.1021/acs.jctc.8b01176
      * Hamiltonian:
        H0-scaling (s, p, d)           1.850000    2.230000    2.230000
        zeta-weighting                 0.500000
      * Dispersion:
        s8                             2.700000
        a1                             0.520000
        a2                             5.000000
        s9                             5.000000
      * Repulsion:
        kExp                           1.500000    1.000000
        rExp                           1.000000
      * Coulomb:
        alpha                          2.000000
        third order                    shell-resolved
        anisotropic                    true
        a3                             3.000000
        a5                             4.000000
        cn-shift                       1.200000
        cn-exp                         4.000000
        max-rad                        5.000000


          ...................................................
          :                      SETUP                      :
          :.................................................:
          :  # basis functions                  45          :
          :  # atomic orbitals                  45          :
          :  # shells                           25          :
          :  # electrons                        52          :
          :  max. iterations                   250          :
          :  Hamiltonian                  GFN2-xTB          :
          :  restarted?                      false          :
          :  GBSA solvation                  false          :
          :  PC potential                    false          :
          :  electronic temp.          300.0000000     K    :
          :  accuracy                    1.0000000          :
          :  -> integral cutoff          0.2500000E+02      :
          :  -> integral neglect         0.1000000E-07      :
          :  -> SCF convergence          0.1000000E-05 Eh   :
          :  -> wf. convergence          0.1000000E-03 e    :
          :  Broyden damping             0.4000000          :
          :  net charge                         -1          :
          :  unpaired electrons                  0          :
          ...................................................

 iter      E             dE          RMSdq      gap      omega  full diag
   1    -29.6931091 -0.296931E+02  0.524E+00    1.98       0.0  T
   2    -29.7666145 -0.735054E-01  0.317E+00    0.46       1.0  T
   3    -29.7758411 -0.922660E-02  0.212E+00    1.98       1.0  T
   4    -29.8239959 -0.481547E-01  0.103E+00    0.79       1.0  T
   5    -29.8271722 -0.317640E-02  0.430E-01    0.64       1.0  T
   6    -29.8295992 -0.242698E-02  0.861E-02    0.78       1.0  T
   7    -29.8296097 -0.104528E-04  0.463E-02    0.83       1.0  T
   8    -29.8296349 -0.251869E-04  0.189E-02    0.82       1.4  T
   9    -29.8296378 -0.297206E-05  0.855E-03    0.81       3.0  T
  10    -29.8296382 -0.374968E-06  0.480E-03    0.81       5.4  T
  11    -29.8296385 -0.252216E-06  0.121E-03    0.81      21.3  T
  12    -29.8296385 -0.992953E-08  0.548E-04    0.81      47.1  T
  13    -29.8296385 -0.127507E-08  0.157E-04    0.81     164.2  T

   *** convergence criteria satisfied after 13 iterations ***

         #    Occupation            Energy/Eh            Energy/eV
      -------------------------------------------------------------
         1        2.0000           -0.5654345             -15.3863
       ...           ...                  ...                  ...
        20        2.0000           -0.2809347              -7.6446
        21        2.0000           -0.2773081              -7.5459
        22        2.0000           -0.2584360              -7.0324
        23        2.0000           -0.2449816              -6.6663
        24        2.0000           -0.2441991              -6.6450
        25        2.0000           -0.1789755              -4.8702
        26        2.0000           -0.1491449              -4.0584 (HOMO)
        27        0.0000           -0.1194371              -3.2500 (LUMO)
        28                         -0.0655674              -1.7842
        29                          0.0020362               0.0554
        30                          0.1130758               3.0770
        31                          0.1455624               3.9610
       ...                                ...                  ...
        45                          1.5754214              42.8694
      -------------------------------------------------------------
                  HL-Gap            0.0297078 Eh            0.8084 eV
             Fermi-level           -0.1342910 Eh           -3.6542 eV

 SCC (total)                   0 d,  0 h,  0 min,  0.052 sec
 SCC setup                      ...        0 min,  0.000 sec (  0.376%)
 Dispersion                     ...        0 min,  0.000 sec (  0.273%)
 classical contributions        ...        0 min,  0.000 sec (  0.057%)
 integral evaluation            ...        0 min,  0.002 sec (  3.199%)
 iterations                     ...        0 min,  0.047 sec ( 90.341%)
 molecular gradient             ...        0 min,  0.003 sec (  5.448%)
 printout                       ...        0 min,  0.000 sec (  0.243%)

         :::::::::::::::::::::::::::::::::::::::::::::::::::::
         ::                     SUMMARY                     ::
         :::::::::::::::::::::::::::::::::::::::::::::::::::::
         :: total energy             -29.379772188098 Eh    ::
         :: gradient norm              0.531513863599 Eh/a0 ::
         :: HOMO-LUMO gap              0.808389348278 eV    ::
         ::.................................................::
         :: SCC energy               -29.829629609172 Eh    ::
         :: -> isotropic ES            0.165978556971 Eh    ::
         :: -> anisotropic ES          0.016636824654 Eh    ::
         :: -> anisotropic XC          0.006447490836 Eh    ::
         :: -> dispersion             -0.013859523537 Eh    ::
         :: repulsion energy           0.449857421074 Eh    ::
         :: add. restraining           0.000000000000 Eh    ::
         :: total charge              -1.000000000000 e     ::
         :::::::::::::::::::::::::::::::::::::::::::::::::::::

      ----------------------------------------------------------- 
     |                   =====================                   |
     |                        A N C O P T                        |
     |                   =====================                   |
     |               Approximate Normal Coordinate               |
     |                Rational Function Optimizer                |
      ----------------------------------------------------------- 
      ----------------------------------------------------------- 
     |                   =====================                   |
     |                        A N C O P T                        |
     |                   =====================                   |
     |               Approximate Normal Coordinate               |
     |                Rational Function Optimizer                |
      ----------------------------------------------------------- 

          ...................................................
          :                      SETUP                      :
          :.................................................:
          :   optimization level            normal          :
          :   max. optcycles                   200          :
          :   ANC micro-cycles                  20          :
          :   degrees of freedom                39          :
          :.................................................:
          :   RF solver                   davidson          :
          :   write xtbopt.log                true          :
          :   linear?                        false          :
          :   energy convergence         0.5000000E-05 Eh   :
          :   grad. convergence          0.1000000E-02 Eh/α :
          :   maxmium RF displ.          1.0000000          :
          :   Hlow (freq-cutoff)         0.1000000E-01      :
          :   Hmax (freq-cutoff)         5.0000000          :
          :   S6 in model hess.         20.0000000          :
          ...................................................

generating ANC from exact Hessian ...
Using Lindh-Hessian (1995)
 Shifting diagonal of input Hessian by   8.823427509898188E-003
 Lowest  eigenvalues of input Hessian
    0.000000    0.000000    0.000000    0.000000    0.000000    0.000000
    0.010000    0.014842    0.020550    0.024801    0.027343    0.029936
    0.038486    0.064097    0.064263    0.075986    0.088525    0.098925
 Highest eigenvalues
    1.813821    1.898751    2.046742    2.331946    2.449628    3.080771
 

........................................................................
.............................. CYCLE    1 ..............................
........................................................................

 iter      E             dE          RMSdq      gap      omega  full diag
   1    -29.8296385 -0.298296E+02  0.531E-05    0.81       0.0  T
   2    -29.8296385 -0.914824E-11  0.283E-05    0.81     911.4  T
   3    -29.8296385  0.305178E-11  0.199E-05    0.81    1294.7  T
     SCC iter.                  ...        0 min,  0.001 sec
     gradient                   ...        0 min,  0.002 sec
 * total energy  :   -29.3797722 Eh     change       -0.3001048E-09 Eh
   gradient norm :     0.5315148 Eh/α   predicted     0.0000000E+00 (-100.00%)
   displ. norm   :     0.3415607 α      lambda       -0.1324093E+00
   maximum displ.:     0.1627151 α      in ANC's #20, #13, #39, ...

........................................................................
.............................. CYCLE    2 ..............................
........................................................................

 iter      E             dE          RMSdq      gap      omega  full diag
   1    -29.8183336 -0.298183E+02  0.642E-01    1.25       0.0  T
   2    -29.8200243 -0.169065E-02  0.708E-01    0.55       1.0  T
   3    -29.8253182 -0.529387E-02  0.321E-01    0.84       1.0  T
   4    -29.8244566  0.861567E-03  0.318E-01    0.71       1.0  T
   5    -29.8254809 -0.102428E-02  0.396E-02    0.77       1.0  T
   6    -29.8254967 -0.158640E-04  0.208E-02    0.78       1.2  T
   7    -29.8254990 -0.221279E-05  0.874E-03    0.79       3.0  T
   8    -29.8254996 -0.652903E-06  0.356E-03    0.78       7.2  T
   9    -29.8254997 -0.118468E-06  0.106E-03    0.78      24.3  T
  10    -29.8254997 -0.299191E-08  0.442E-04    0.78      58.4  T
  11    -29.8254997 -0.124748E-08  0.157E-04    0.78     164.6  T
     SCC iter.                  ...        0 min,  0.004 sec
     gradient                   ...        0 min,  0.002 sec
 * total energy  :   -29.4482672 Eh     change       -0.6849506E-01 Eh
   gradient norm :     0.1002883 Eh/α   predicted    -0.7392831E-01 (   7.93%)
   displ. norm   :     0.1743912 α      lambda       -0.9531505E-02
   maximum displ.:     0.1036725 α      in ANC's #13, #5, #19, ...

........................................................................
.............................. CYCLE    3 ..............................
........................................................................

 iter      E             dE          RMSdq      gap      omega  full diag
   1    -29.8297992 -0.298298E+02  0.287E-01    0.85       0.0  T
   2    -29.8299057 -0.106450E-03  0.162E-01    0.96       1.0  T
   3    -29.8299772 -0.715273E-04  0.143E-01    0.85       1.0  T
   4    -29.8301082 -0.131027E-03  0.448E-02    0.91       1.0  T
   5    -29.8301468 -0.385320E-04  0.135E-02    0.89       1.9  T
   6    -29.8301489 -0.212033E-05  0.379E-03    0.90       6.8  T
   7    -29.8301490 -0.894269E-07  0.175E-03    0.90      14.7  T
   8    -29.8301490 -0.519714E-08  0.624E-04    0.90      41.4  T
   9    -29.8301490 -0.268093E-08  0.198E-04    0.90     130.3  T
     SCC iter.                  ...        0 min,  0.003 sec
     gradient                   ...        0 min,  0.002 sec
 * total energy  :   -29.4547927 Eh     change       -0.6525490E-02 Eh
   gradient norm :     0.0452545 Eh/α   predicted    -0.4910687E-02 ( -24.75%)
   displ. norm   :     0.1247029 α      lambda       -0.2689455E-02
   maximum displ.:     0.0751240 α      in ANC's #13, #12, #5, ...

........................................................................
.............................. CYCLE    4 ..............................
........................................................................

 iter      E             dE          RMSdq      gap      omega  full diag
   1    -29.8292857 -0.298293E+02  0.233E-01    0.91       0.0  T
   2    -29.8292908 -0.506097E-05  0.141E-01    1.05       1.0  T
   3    -29.8294197 -0.128868E-03  0.115E-01    0.94       1.0  T
   4    -29.8295238 -0.104115E-03  0.334E-02    0.98       1.0  T
   5    -29.8295394 -0.156159E-04  0.584E-03    0.98       4.4  T
   6    -29.8295397 -0.334287E-06  0.214E-03    0.98      12.1  T
   7    -29.8295398 -0.330268E-07  0.101E-03    0.98      25.6  T
   8    -29.8295398 -0.130155E-08  0.366E-04    0.98      70.6  T
   9    -29.8295398 -0.133186E-08  0.110E-04    0.98     234.3  T
     SCC iter.                  ...        0 min,  0.003 sec
     gradient                   ...        0 min,  0.002 sec
 * total energy  :   -29.4562717 Eh     change       -0.1479015E-02 Eh
   gradient norm :     0.0165130 Eh/α   predicted    -0.1365640E-02 (  -7.67%)
   displ. norm   :     0.0343060 α      lambda       -0.2112632E-03
   maximum displ.:     0.0192727 α      in ANC's #14, #5, #10, ...

........................................................................
.............................. CYCLE    5 ..............................
........................................................................

 iter      E             dE          RMSdq      gap      omega  full diag
   1    -29.8287846 -0.298288E+02  0.544E-02    0.97       0.0  T
   2    -29.8287804  0.416687E-05  0.486E-02    1.02       1.0  T
   3    -29.8288144 -0.339368E-04  0.216E-02    0.99       1.2  T
   4    -29.8288154 -0.104303E-05  0.934E-03    1.00       2.8  T
   5    -29.8288161 -0.726910E-06  0.127E-03    1.00      20.3  T
   6    -29.8288162 -0.174062E-07  0.620E-04    1.00      41.6  T
   7    -29.8288162 -0.157095E-08  0.222E-04    1.00     116.0  T
     SCC iter.                  ...        0 min,  0.003 sec
     gradient                   ...        0 min,  0.002 sec
 * total energy  :   -29.4564217 Eh     change       -0.1499205E-03 Eh
   gradient norm :     0.0094347 Eh/α   predicted    -0.1057540E-03 ( -29.46%)
   displ. norm   :     0.0291435 α      lambda       -0.1185544E-03
   maximum displ.:     0.0179905 α      in ANC's #14, #9, #5, ...

........................................................................
.............................. CYCLE    6 ..............................
........................................................................

 iter      E             dE          RMSdq      gap      omega  full diag
   1    -29.8292011 -0.298292E+02  0.441E-02    1.00       0.0  T
   2    -29.8292006  0.552374E-06  0.417E-02    1.04       1.0  T
   3    -29.8292242 -0.236230E-04  0.171E-02    1.02       1.5  T
   4    -29.8292243 -0.800842E-07  0.883E-03    1.02       2.9  T
   5    -29.8292250 -0.664079E-06  0.137E-03    1.02      18.8  T
   6    -29.8292250 -0.956904E-08  0.773E-04    1.02      33.4  T
   7    -29.8292250 -0.281409E-08  0.182E-04    1.02     142.0  T
     SCC iter.                  ...        0 min,  0.003 sec
     gradient                   ...        0 min,  0.002 sec
 * total energy  :   -29.4565051 Eh     change       -0.8348057E-04 Eh
   gradient norm :     0.0071810 Eh/α   predicted    -0.5932589E-04 ( -28.93%)
   displ. norm   :     0.0454709 α      lambda       -0.1393416E-03
   maximum displ.:     0.0265852 α      in ANC's #9, #14, #23, ...

........................................................................
.............................. CYCLE    7 ..............................
........................................................................

 iter      E             dE          RMSdq      gap      omega  full diag
   1    -29.8299794 -0.298300E+02  0.680E-02    1.02       0.0  T
   2    -29.8299821 -0.265762E-05  0.506E-02    1.07       1.0  T
   3    -29.8300011 -0.189824E-04  0.290E-02    1.04       1.0  T
   4    -29.8300069 -0.579888E-05  0.112E-02    1.05       2.3  T
   5    -29.8300082 -0.135064E-05  0.223E-03    1.05      11.6  T
   6    -29.8300082 -0.673157E-08  0.129E-03    1.05      20.0  T
   7    -29.8300082 -0.913321E-08  0.202E-04    1.05     128.1  T
   8    -29.8300082 -0.292566E-09  0.106E-04    1.05     244.6  T
     SCC iter.                  ...        0 min,  0.003 sec
     gradient                   ...        0 min,  0.002 sec
 * total energy  :   -29.4566499 Eh     change       -0.1447772E-03 Eh
   gradient norm :     0.0162305 Eh/α   predicted    -0.6981452E-04 ( -51.78%)
   displ. norm   :     0.0418459 α      lambda       -0.2194415E-03
   maximum displ.:     0.0280140 α      in ANC's #9, #23, #5, ...

........................................................................
.............................. CYCLE    8 ..............................
........................................................................

 iter      E             dE          RMSdq      gap      omega  full diag
   1    -29.8303856 -0.298304E+02  0.605E-02    1.06       0.0  T
   2    -29.8303872 -0.155510E-05  0.369E-02    1.08       1.0  T
   3    -29.8303833  0.389712E-05  0.288E-02    1.06       1.0  T
   4    -29.8303945 -0.111547E-04  0.707E-03    1.07       3.6  T
   5    -29.8303950 -0.576751E-06  0.200E-03    1.07      12.9  T
   6    -29.8303950  0.680682E-09  0.999E-04    1.07      25.8  T
   7    -29.8303950 -0.835206E-08  0.198E-04    1.07     130.1  T
     SCC iter.                  ...        0 min,  0.003 sec
     gradient                   ...        0 min,  0.002 sec
 * total energy  :   -29.4569192 Eh     change       -0.2693047E-03 Eh
   gradient norm :     0.0239351 Eh/α   predicted    -0.1099113E-03 ( -59.19%)
   displ. norm   :     0.0618530 α      lambda       -0.4621765E-03
   maximum displ.:     0.0410990 α      in ANC's #9, #23, #5, ...

........................................................................
.............................. CYCLE    9 ..............................
........................................................................

 iter      E             dE          RMSdq      gap      omega  full diag
   1    -29.8308179 -0.298308E+02  0.875E-02    1.08       0.0  T
   2    -29.8308209 -0.305660E-05  0.527E-02    1.12       1.0  T
   3    -29.8308132  0.771617E-05  0.418E-02    1.08       1.0  T
   4    -29.8308362 -0.229947E-04  0.100E-02    1.10       2.6  T
   5    -29.8308373 -0.112467E-05  0.292E-03    1.10       8.8  T
   6    -29.8308373  0.123272E-08  0.138E-03    1.10      18.7  T
   7    -29.8308373 -0.167198E-07  0.307E-04    1.10      84.1  T
   8    -29.8308373 -0.416755E-09  0.166E-04    1.10     155.4  T
     SCC iter.                  ...        0 min,  0.003 sec
     gradient                   ...        0 min,  0.002 sec
 * total energy  :   -29.4574804 Eh     change       -0.5611365E-03 Eh
   gradient norm :     0.0351492 Eh/α   predicted    -0.2319724E-03 ( -58.66%)
   displ. norm   :     0.0858670 α      lambda       -0.9319448E-03
   maximum displ.:     0.0562053 α      in ANC's #9, #23, #5, ...

........................................................................
.............................. CYCLE   10 ..............................
........................................................................

 iter      E             dE          RMSdq      gap      omega  full diag
   1    -29.8314193 -0.298314E+02  0.120E-01    1.13       0.0  T
   2    -29.8314254 -0.616659E-05  0.698E-02    1.17       1.0  T
   3    -29.8314073  0.181477E-04  0.571E-02    1.13       1.0  T
   4    -29.8314502 -0.428537E-04  0.134E-02    1.15       1.9  T
   5    -29.8314521 -0.193520E-05  0.421E-03    1.15       6.1  T
   6    -29.8314521 -0.205710E-08  0.176E-03    1.15      14.7  T
   7    -29.8314521 -0.287944E-07  0.467E-04    1.15      55.3  T
   8    -29.8314521 -0.664119E-09  0.245E-04    1.15     105.2  T
     SCC iter.                  ...        0 min,  0.003 sec
     gradient                   ...        0 min,  0.002 sec
 * total energy  :   -29.4585865 Eh     change       -0.1106138E-02 Eh
   gradient norm :     0.0503806 Eh/α   predicted    -0.4694066E-03 ( -57.56%)
   displ. norm   :     0.1074296 α      lambda       -0.1724133E-02
   maximum displ.:     0.0693786 α      in ANC's #9, #23, #29, ...

........................................................................
.............................. CYCLE   11 ..............................
........................................................................

 iter      E             dE          RMSdq      gap      omega  full diag
   1    -29.8323169 -0.298323E+02  0.152E-01    1.19       0.0  T
   2    -29.8323277 -0.107788E-04  0.847E-02    1.25       1.0  T
   3    -29.8322902  0.375362E-04  0.711E-02    1.19       1.0  T
   4    -29.8323569 -0.666859E-04  0.163E-02    1.22       1.6  T
   5    -29.8323595 -0.267774E-05  0.582E-03    1.22       4.4  T
   6    -29.8323596 -0.278459E-07  0.196E-03    1.22      13.1  T
   7    -29.8323596 -0.371664E-07  0.653E-04    1.22      39.5  T
   8    -29.8323596 -0.975010E-09  0.302E-04    1.22      85.4  T
     SCC iter.                  ...        0 min,  0.003 sec
     gradient                   ...        0 min,  0.003 sec
 * total energy  :   -29.4605591 Eh     change       -0.1972602E-02 Eh
   gradient norm :     0.0684642 Eh/α   predicted    -0.8720181E-03 ( -55.79%)
   displ. norm   :     0.1144504 α      lambda       -0.2794256E-02
   maximum displ.:     0.0740010 α      in ANC's #9, #23, #29, ...

........................................................................
.............................. CYCLE   12 ..............................
........................................................................

 iter      E             dE          RMSdq      gap      omega  full diag
   1    -29.8338756 -0.298339E+02  0.170E-01    1.29       0.0  T
   2    -29.8338906 -0.149319E-04  0.911E-02    1.33       1.0  T
   3    -29.8338439  0.466834E-04  0.742E-02    1.28       1.0  T
   4    -29.8339127 -0.688593E-04  0.173E-02    1.31       1.5  T
   5    -29.8339157 -0.300435E-05  0.703E-03    1.31       3.7  T
   6    -29.8339158 -0.108785E-06  0.190E-03    1.31      13.6  T
   7    -29.8339159 -0.333437E-07  0.754E-04    1.31      34.2  T
   8    -29.8339159 -0.157129E-08  0.243E-04    1.31     106.2  T
     SCC iter.                  ...        0 min,  0.003 sec
     gradient                   ...        0 min,  0.002 sec
 * total energy  :   -29.4636254 Eh     change       -0.3066309E-02 Eh
   gradient norm :     0.0846022 Eh/α   predicted    -0.1415430E-02 ( -53.84%)
   displ. norm   :     0.1146816 α      lambda       -0.3898347E-02
   maximum displ.:     0.0700826 α      in ANC's #9, #23, #29, ...

........................................................................
.............................. CYCLE   13 ..............................
........................................................................

 iter      E             dE          RMSdq      gap      omega  full diag
   1    -29.8363414 -0.298363E+02  0.172E-01    1.40       0.0  T
   2    -29.8363589 -0.175323E-04  0.909E-02    1.43       1.0  T
   3    -29.8363262  0.326865E-04  0.661E-02    1.39       1.0  T
   4    -29.8363715 -0.452367E-04  0.167E-02    1.41       1.5  T
   5    -29.8363745 -0.307451E-05  0.738E-03    1.41       3.5  T
   6    -29.8363748 -0.259355E-06  0.197E-03    1.41      13.1  T
   7    -29.8363748 -0.367099E-07  0.760E-04    1.41      34.0  T
   8    -29.8363748 -0.155362E-08  0.231E-04    1.41     111.7  T
     SCC iter.                  ...        0 min,  0.003 sec
     gradient                   ...        0 min,  0.002 sec
 * total energy  :   -29.4677375 Eh     change       -0.4112078E-02 Eh
   gradient norm :     0.0947949 Eh/α   predicted    -0.1974808E-02 ( -51.98%)
   displ. norm   :     0.1164256 α      lambda       -0.4695280E-02
   maximum displ.:     0.0643195 α      in ANC's #9, #23, #29, ...

........................................................................
.............................. CYCLE   14 ..............................
........................................................................

 iter      E             dE          RMSdq      gap      omega  full diag
   1    -29.8393175 -0.298393E+02  0.166E-01    1.52       0.0  T
   2    -29.8393362 -0.187245E-04  0.879E-02    1.53       1.0  T
   3    -29.8393212  0.149803E-04  0.541E-02    1.51       1.0  T
   4    -29.8393435 -0.222590E-04  0.139E-02    1.53       1.9  T
   5    -29.8393452 -0.168388E-05  0.759E-03    1.52       3.4  T
   6    -29.8393458 -0.608752E-06  0.218E-03    1.52      11.8  T
   7    -29.8393458 -0.456698E-07  0.728E-04    1.52      35.4  T
   8    -29.8393458 -0.106369E-08  0.274E-04    1.52      94.1  T
     SCC iter.                  ...        0 min,  0.003 sec
     gradient                   ...        0 min,  0.002 sec
 * total energy  :   -29.4725112 Eh     change       -0.4773750E-02 Eh
   gradient norm :     0.0992902 Eh/α   predicted    -0.2379459E-02 ( -50.16%)
   displ. norm   :     0.1105807 α      lambda       -0.4956684E-02
   maximum displ.:     0.0499873 α      in ANC's #9, #1, #23, ...

........................................................................
.............................. CYCLE   15 ..............................
........................................................................

 iter      E             dE          RMSdq      gap      omega  full diag
   1    -29.8427349 -0.298427E+02  0.146E-01    1.64       0.0  T
   2    -29.8427525 -0.175957E-04  0.807E-02    1.63       1.0  T
   3    -29.8427388  0.136294E-04  0.404E-02    1.64       1.0  T
   4    -29.8427573 -0.184848E-04  0.143E-02    1.62       1.8  T
   5    -29.8427593 -0.198541E-05  0.623E-03    1.63       4.1  T
   6    -29.8427595 -0.214733E-06  0.252E-03    1.62      10.3  T
   7    -29.8427596 -0.898674E-07  0.614E-04    1.63      42.1  T
   8    -29.8427596 -0.745437E-09  0.257E-04    1.63     100.5  T
     SCC iter.                  ...        0 min,  0.003 sec
     gradient                   ...        0 min,  0.002 sec
 * total energy  :   -29.4773965 Eh     change       -0.4885279E-02 Eh
   gradient norm :     0.0962630 Eh/α   predicted    -0.2508649E-02 ( -48.65%)
   displ. norm   :     0.8028424 α      lambda       -0.4676863E-01
   maximum displ.:     0.3642447 α      in ANC's #29, #23, #9, ...

........................................................................
.............................. CYCLE   16 ..............................
........................................................................

 iter      E             dE          RMSdq      gap      omega  full diag
   1    -29.8182165 -0.298182E+02  0.132E+00    1.85       0.0  T
   2    -29.8188745 -0.658054E-03  0.917E-01    1.65       1.0  T
   3    -29.8157437  0.313078E-02  0.623E-01    1.93       1.0  T
   4    -29.8234295 -0.768578E-02  0.212E-01    1.73       1.0  T
   5    -29.8237735 -0.344019E-03  0.406E-02    1.75       1.0  T
   6    -29.8237718  0.176576E-05  0.269E-02    1.75       1.0  T
   7    -29.8237782 -0.639548E-05  0.954E-03    1.75       2.7  T
   8    -29.8237790 -0.837190E-06  0.229E-03    1.75      11.3  T
   9    -29.8237790 -0.152840E-07  0.627E-04    1.75      41.2  T
  10    -29.8237790 -0.125221E-08  0.304E-04    1.75      84.9  T
     SCC iter.                  ...        0 min,  0.004 sec
     gradient                   ...        0 min,  0.002 sec
 * total energy  :   -29.4851487 Eh     change       -0.7752142E-02 Eh
   gradient norm :     0.1073643 Eh/α   predicted    -0.3845678E-01 ( 396.08%)
   displ. norm   :     0.4041630 α      lambda       -0.2893511E-01
   maximum displ.:     0.1925765 α      in ANC's #9, #23, #29, ...

........................................................................
.............................. CYCLE   17 ..............................
........................................................................

 iter      E             dE          RMSdq      gap      omega  full diag
   1    -29.8579013 -0.298579E+02  0.789E-01    1.81       0.0  T
   2    -29.8577494  0.151922E-03  0.407E-01    1.70       1.0  T
   3    -29.8563589  0.139049E-02  0.452E-01    1.86       1.0  T
   4    -29.8587926 -0.243369E-02  0.764E-02    1.76       1.0  T
   5    -29.8588563 -0.636455E-04  0.276E-02    1.76       1.0  T
   6    -29.8588588 -0.251136E-05  0.750E-03    1.76       3.4  T
   7    -29.8588594 -0.651168E-06  0.303E-03    1.76       8.5  T
   8    -29.8588595 -0.301360E-07  0.163E-03    1.76      15.8  T
   9    -29.8588595 -0.179810E-07  0.544E-04    1.76      47.5  T
  10    -29.8588595 -0.250618E-08  0.172E-04    1.76     149.8  T
     SCC iter.                  ...        0 min,  0.004 sec
     gradient                   ...        0 min,  0.002 sec
 * total energy  :   -29.4931640 Eh     change       -0.8015301E-02 Eh
   gradient norm :     0.0749794 Eh/α   predicted    -0.1683079E-01 ( 109.98%)
   displ. norm   :     0.3965539 α      lambda       -0.1485264E-01
   maximum displ.:     0.2755666 α      in ANC's #9, #14, #5, ...

........................................................................
.............................. CYCLE   18 ..............................
........................................................................

 iter      E             dE          RMSdq      gap      omega  full diag
   1    -29.8467741 -0.298468E+02  0.601E-01    1.77       0.0  T
   2    -29.8470446 -0.270453E-03  0.518E-01    2.05       1.0  T
   3    -29.8514258 -0.438119E-02  0.198E-01    1.90       1.0  T
   4    -29.8515024 -0.766373E-04  0.103E-01    1.91       1.0  T
   5    -29.8515577 -0.553239E-04  0.170E-02    1.91       1.5  T
   6    -29.8515617 -0.395726E-05  0.798E-03    1.91       3.2  T
   7    -29.8515619 -0.217463E-06  0.380E-03    1.91       6.8  T
   8    -29.8515620 -0.124703E-06  0.115E-03    1.91      22.4  T
   9    -29.8515620 -0.339752E-08  0.653E-04    1.91      39.6  T
  10    -29.8515621 -0.264935E-08  0.172E-04    1.91     150.2  T
     SCC iter.                  ...        0 min,  0.004 sec
     gradient                   ...        0 min,  0.002 sec
 * total energy  :   -29.4928544 Eh     change        0.3095267E-03 Eh
   gradient norm :     0.0911400 Eh/α   predicted    -0.8594147E-02 (*******%)
   displ. norm   :     0.2461906 α      lambda       -0.9670238E-02
   maximum displ.:     0.1453294 α      in ANC's #1, #14, #9, ...

........................................................................
.............................. CYCLE   19 ..............................
........................................................................

 iter      E             dE          RMSdq      gap      omega  full diag
   1    -29.8517400 -0.298517E+02  0.341E-01    1.90       0.0  T
   2    -29.8515138  0.226224E-03  0.325E-01    1.77       1.0  T
   3    -29.8529889 -0.147503E-02  0.136E-01    1.85       1.0  T
   4    -29.8530305 -0.416141E-04  0.641E-02    1.83       1.0  T
   5    -29.8530580 -0.275342E-04  0.110E-02    1.84       2.3  T
   6    -29.8530585 -0.473586E-06  0.570E-03    1.84       4.5  T
   7    -29.8530587 -0.213193E-06  0.156E-03    1.84      16.5  T
   8    -29.8530587 -0.327640E-07  0.556E-04    1.84      46.4  T
   9    -29.8530587 -0.840558E-09  0.300E-04    1.84      86.1  T
     SCC iter.                  ...        0 min,  0.003 sec
     gradient                   ...        0 min,  0.002 sec
 * total energy  :   -29.4979388 Eh     change       -0.5084392E-02 Eh
   gradient norm :     0.0331512 Eh/α   predicted    -0.5128175E-02 (   0.86%)
   displ. norm   :     0.1405016 α      lambda       -0.1427388E-02
   maximum displ.:     0.1059742 α      in ANC's #1, #2, #7, ...

........................................................................
.............................. CYCLE   20 ..............................
........................................................................

 iter      E             dE          RMSdq      gap      omega  full diag
   1    -29.8560223 -0.298560E+02  0.152E-01    1.83       0.0  T
   2    -29.8560032  0.191221E-04  0.102E-01    1.79       1.0  T
   3    -29.8560510 -0.478398E-04  0.764E-02    1.83       1.0  T
   4    -29.8561191 -0.680905E-04  0.179E-02    1.81       1.4  T
   5    -29.8561217 -0.258225E-05  0.569E-03    1.81       4.5  T
   6    -29.8561217  0.192852E-07  0.245E-03    1.81      10.5  T
   7    -29.8561217 -0.799187E-07  0.418E-04    1.81      61.7  T
   8    -29.8561217 -0.540538E-09  0.227E-04    1.81     113.7  T
     SCC iter.                  ...        0 min,  0.003 sec
     gradient                   ...        0 min,  0.002 sec
 * total energy  :   -29.4985608 Eh     change       -0.6219357E-03 Eh
   gradient norm :     0.0224996 Eh/α   predicted    -0.7277837E-03 (  17.02%)
   displ. norm   :     0.1850801 α      lambda       -0.1989837E-02
   maximum displ.:     0.1349021 α      in ANC's #1, #9, #2, ...
 * RMSD in coord.:     0.3562514 α      energy gain  -0.1187886E+00 Eh

generating ANC from exact Hessian ...
Using Lindh-Hessian (1995)
 Shifting diagonal of input Hessian by   5.462757255818173E-003
 Lowest  eigenvalues of input Hessian
    0.000000    0.000000    0.000000    0.000000    0.000000    0.000000
    0.010000    0.018601    0.021688    0.023872    0.027011    0.027694
    0.045592    0.048023    0.069700    0.075904    0.083447    0.093670
 Highest eigenvalues
    1.763587    1.894462    1.928477    2.111615    2.294898    2.501176
 

........................................................................
.............................. CYCLE   21 ..............................
........................................................................

 iter      E             dE          RMSdq      gap      omega  full diag
   1    -29.8626772 -0.298627E+02  0.163E-01    1.82       0.0  T
   2    -29.8626902 -0.130474E-04  0.963E-02    1.83       1.0  T
   3    -29.8626456  0.446199E-04  0.502E-02    1.82       1.0  T
   4    -29.8626966 -0.510376E-04  0.177E-02    1.83       1.5  T
   5    -29.8627004 -0.375351E-05  0.550E-03    1.83       4.7  T
   6    -29.8627004 -0.702082E-08  0.281E-03    1.83       9.2  T
   7    -29.8627005 -0.113391E-06  0.600E-04    1.83      43.0  T
   8    -29.8627005 -0.404867E-09  0.196E-04    1.83     131.7  T
     SCC iter.                  ...        0 min,  0.003 sec
     gradient                   ...        0 min,  0.002 sec
 * total energy  :   -29.4993460 Eh     change       -0.7852119E-03 Eh
   gradient norm :     0.0247448 Eh/α   predicted     0.0000000E+00 (-100.00%)
   displ. norm   :     0.1720980 α      lambda       -0.1958969E-02
   maximum displ.:     0.1269528 α      in ANC's #7, #6, #9, ...

........................................................................
.............................. CYCLE   22 ..............................
........................................................................

 iter      E             dE          RMSdq      gap      omega  full diag
   1    -29.8601461 -0.298601E+02  0.115E-01    1.83       0.0  T
   2    -29.8601468 -0.750525E-06  0.657E-02    1.84       1.0  T
   3    -29.8601229  0.239098E-04  0.612E-02    1.82       1.0  T
   4    -29.8601667 -0.437937E-04  0.138E-02    1.83       1.9  T
   5    -29.8601692 -0.251609E-05  0.349E-03    1.83       7.4  T
   6    -29.8601692 -0.166713E-07  0.150E-03    1.83      17.2  T
   7    -29.8601692 -0.156366E-07  0.571E-04    1.83      45.2  T
   8    -29.8601692 -0.130299E-08  0.247E-04    1.83     104.6  T
     SCC iter.                  ...        0 min,  0.003 sec
     gradient                   ...        0 min,  0.003 sec
 * total energy  :   -29.5006723 Eh     change       -0.1326369E-02 Eh
   gradient norm :     0.0102947 Eh/α   predicted    -0.1008493E-02 ( -23.97%)
   displ. norm   :     0.2539683 α      lambda       -0.1586642E-02
   maximum displ.:     0.1965695 α      in ANC's #7, #6, #1, ...

........................................................................
.............................. CYCLE   23 ..............................
........................................................................

 iter      E             dE          RMSdq      gap      omega  full diag
   1    -29.8559820 -0.298560E+02  0.158E-01    1.83       0.0  T
   2    -29.8559878 -0.577788E-05  0.870E-02    1.85       1.0  T
   3    -29.8559382  0.496152E-04  0.771E-02    1.82       1.0  T
   4    -29.8560045 -0.662825E-04  0.173E-02    1.84       1.5  T
   5    -29.8560092 -0.467854E-05  0.522E-03    1.84       4.9  T
   6    -29.8560092 -0.533614E-07  0.170E-03    1.84      15.2  T
   7    -29.8560092 -0.184070E-07  0.795E-04    1.84      32.5  T
   8    -29.8560092 -0.211201E-08  0.309E-04    1.84      83.4  T
     SCC iter.                  ...        0 min,  0.003 sec
     gradient                   ...        0 min,  0.002 sec
 * total energy  :   -29.5010087 Eh     change       -0.3363857E-03 Eh
   gradient norm :     0.0185621 Eh/α   predicted    -0.8444952E-03 ( 151.05%)
   displ. norm   :     0.0672618 α      lambda       -0.5962203E-03
   maximum displ.:     0.0326798 α      in ANC's #3, #7, #6, ...

........................................................................
.............................. CYCLE   24 ..............................
........................................................................

 iter      E             dE          RMSdq      gap      omega  full diag
   1    -29.8587718 -0.298588E+02  0.647E-02    1.84       0.0  T
   2    -29.8587720 -0.160470E-06  0.351E-02    1.84       1.0  T
   3    -29.8587602  0.117606E-04  0.342E-02    1.85       1.0  T
   4    -29.8587761 -0.158317E-04  0.524E-03    1.84       4.9  T
   5    -29.8587763 -0.272952E-06  0.201E-03    1.84      12.8  T
   6    -29.8587763 -0.111669E-07  0.653E-04    1.84      39.6  T
   7    -29.8587763 -0.127129E-08  0.284E-04    1.84      90.8  T
     SCC iter.                  ...        0 min,  0.003 sec
     gradient                   ...        0 min,  0.002 sec
 * total energy  :   -29.5013320 Eh     change       -0.3232206E-03 Eh
   gradient norm :     0.0071934 Eh/α   predicted    -0.2994578E-03 (  -7.35%)
   displ. norm   :     0.0239561 α      lambda       -0.6328746E-04
   maximum displ.:     0.0157492 α      in ANC's #1, #7, #30, ...

........................................................................
.............................. CYCLE   25 ..............................
........................................................................

 iter      E             dE          RMSdq      gap      omega  full diag
   1    -29.8595073 -0.298595E+02  0.187E-02    1.84       0.0  T
   2    -29.8595073 -0.411394E-07  0.104E-02    1.84       2.5  T
   3    -29.8595065  0.772816E-06  0.100E-02    1.84       2.6  T
   4    -29.8595078 -0.130066E-05  0.202E-03    1.84      12.8  T
   5    -29.8595079 -0.432659E-07  0.534E-04    1.84      48.4  T
   6    -29.8595079 -0.529607E-09  0.267E-04    1.84      96.8  T
     SCC iter.                  ...        0 min,  0.002 sec
     gradient                   ...        0 min,  0.002 sec
 * total energy  :   -29.5013780 Eh     change       -0.4608859E-04 Eh
   gradient norm :     0.0031663 Eh/α   predicted    -0.3166119E-04 ( -31.30%)
   displ. norm   :     0.0387658 α      lambda       -0.3719405E-04
   maximum displ.:     0.0268263 α      in ANC's #7, #1, #6, ...

........................................................................
.............................. CYCLE   26 ..............................
........................................................................

 iter      E             dE          RMSdq      gap      omega  full diag
   1    -29.8597753 -0.298598E+02  0.201E-02    1.84       0.0  T
   2    -29.8597755 -0.201792E-06  0.120E-02    1.84       2.1  T
   3    -29.8597747  0.748974E-06  0.972E-03    1.84       2.7  T
   4    -29.8597759 -0.118280E-05  0.278E-03    1.84       9.3  T
   5    -29.8597760 -0.100985E-06  0.718E-04    1.84      36.0  T
   6    -29.8597760 -0.130427E-08  0.380E-04    1.84      67.9  T
     SCC iter.                  ...        0 min,  0.002 sec
     gradient                   ...        0 min,  0.002 sec
 * total energy  :   -29.5013972 Eh     change       -0.1915414E-04 Eh
   gradient norm :     0.0004936 Eh/α   predicted    -0.1862414E-04 (  -2.77%)
   displ. norm   :     0.0070238 α      lambda       -0.7618596E-06
   maximum displ.:     0.0051797 α      in ANC's #1, #8, #7, ...

........................................................................
.............................. CYCLE   27 ..............................
........................................................................

 iter      E             dE          RMSdq      gap      omega  full diag
   1    -29.8597635 -0.298598E+02  0.621E-03    1.84       0.0  T
   2    -29.8597635 -0.467894E-08  0.366E-03    1.84       7.1  T
   3    -29.8597634  0.125215E-06  0.280E-03    1.84       9.2  T
   4    -29.8597635 -0.144317E-06  0.403E-04    1.84      64.1  T
   5    -29.8597635 -0.121331E-08  0.203E-04    1.84     127.5  T
     SCC iter.                  ...        0 min,  0.002 sec
     gradient                   ...        0 min,  0.002 sec
 * total energy  :   -29.5013976 Eh     change       -0.4113354E-06 Eh
   gradient norm :     0.0002688 Eh/α   predicted    -0.3802131E-06 (  -7.57%)
   displ. norm   :     0.0028967 α      lambda       -0.1987696E-06
   maximum displ.:     0.0023758 α      in ANC's #1, #9, #8, ...

   *** GEOMETRY OPTIMIZATION CONVERGED AFTER 27 ITERATIONS ***

------------------------------------------------------------------------
 total energy gain   :        -0.1216254 Eh      -76.3211 kcal/mol
 total RMSD          :         0.4388111 a0        0.2322 Å
 total power (kW/mol):       -11.8269444 (step)-1691.4699 (real)
------------------------------------------------------------------------

 ANCopt (total)                0 d,  0 h,  0 min,  0.189 sec
 optimizer setup                ...        0 min,  0.000 sec (  0.126%)
 model hessian                  ...        0 min,  0.004 sec (  2.057%)
 ANC generation                 ...        0 min,  0.001 sec (  0.303%)
 coordinate transformation      ...        0 min,  0.000 sec (  0.095%)
 single point calculation       ...        0 min,  0.179 sec ( 94.648%)
 optimization log               ...        0 min,  0.002 sec (  0.796%)
 hessian update                 ...        0 min,  0.000 sec (  0.087%)
 rational function              ...        0 min,  0.003 sec (  1.381%)

================
 final structure:
================
15
 xtb: 6.7.1 (edcfbbe)
C           -2.04655275642394       -2.82024092877232        1.56041915513036
C           -2.54205241733801       -2.17135328379686        0.37641569345752
C           -3.71287208439791       -2.52898717332642       -0.20144240937366
C           -4.50750335475354       -3.56750286915027        0.34082295104294
C           -4.05019886004612       -4.22765059896258        1.50352064223828
C           -2.87907599456611       -3.87399914268054        2.08592529482013
O           -6.37357455023109       -4.84426554800288        0.25237918097354
H           -2.53696638643857       -4.38777943655710        2.97924623546728
H           -1.93461498311774       -1.37864254809576       -0.03669693193545
H           -4.07496819401955       -2.03397468066689       -1.09202065115309
N           -5.69408681572655       -3.92588897032443       -0.24746390052269
H           -4.66490893934709       -5.02034457339824        1.90878329942516
O           -6.07530209232528       -3.32906944302310       -1.27324613312423
N           -0.91544612768602       -2.42870000458052        2.06850747702661
H           -0.67033444358252       -2.96288079866207        2.90583209652734
 
 Bond Distances (Angstroems)
 ---------------------------
C1-C2=1.4382         C1-C6=1.4421         C1-N14=1.3003        C2-C1=1.4382         C2-C3=1.3538         C2-H9=1.0808         
C3-C2=1.3538         C3-C4=1.4156         C3-H10=1.0813        C4-C3=1.4156         C4-C5=1.4131         C4-N11=1.3720        
C5-C4=1.4131         C5-C6=1.3549         C5-H12=1.0819        C6-C1=1.4421         C6-C5=1.3549         C6-H8=1.0858         
O7-N11=1.2470        H8-C6=1.0858         H9-C2=1.0808         H10-C3=1.0813        N11-C4=1.3720        N11-O7=1.2470        
N11-O13=1.2465       H12-C5=1.0819        O13-N11=1.2465       N14-C1=1.3003        N14-H15=1.0230       H15-N14=1.0230       
 C  H  Rav=1.0825 sigma=0.0020  Rmin=1.0808  Rmax=1.0858     4
 C  C  Rav=1.4029 sigma=0.0360  Rmin=1.3538  Rmax=1.4421     6
 N  H  Rav=1.0230 sigma=0.0000  Rmin=1.0230  Rmax=1.0230     1
 N  C  Rav=1.3362 sigma=0.0359  Rmin=1.3003  Rmax=1.3720     2
 O  N  Rav=1.2467 sigma=0.0002  Rmin=1.2465  Rmax=1.2470     2
 
 selected bond angles (degree)
 --------------------
C6-C1-C2=115.52                N14-C1-C2=119.05               N14-C1-C6=125.44               C3-C2-C1=122.02                
H9-C2-C1=116.87                H9-C2-C3=121.11                C4-C3-C2=121.05                H10-C3-C2=121.35               
H10-C3-C4=117.60               C5-C4-C3=118.44                N11-C4-C3=120.85               N11-C4-C5=120.71               
C6-C5-C4=120.76                H12-C5-C4=117.82               H12-C5-C6=121.42               C5-C6-C1=122.21                
H8-C6-C1=117.62                H8-C6-C5=120.16                
 
 selected dihedral angles (degree)
 ---------------------------------
C3-C2-C1-C6=  0.05            C3-C2-C1-N14=180.11           H9-C2-C1-C6=180.06            H9-C2-C1-N14=  0.12           
C4-C3-C2-C1=  0.00            C4-C3-C2-H9=180.00            H10-C3-C2-C1=180.03           H10-C3-C2-H9=  0.03           
C5-C4-C3-C2=359.94            C5-C4-C3-H10=179.92           N11-C4-C3-C2=179.94           N11-C4-C3-H10=359.92          
C6-C5-C4-C3=  0.05            C6-C5-C4-N11=180.05           H12-C5-C4-C3=180.06           H12-C5-C4-N11=  0.06          
C5-C6-C1-C2=359.94            C5-C6-C1-N14=179.87           H8-C6-C1-C2=179.96            H8-C6-C1-N14=359.89           
C1-C6-C5-C4=  0.00            C1-C6-C5-H12=180.00           H8-C6-C5-C4=179.99            H8-C6-C5-H12=  0.00           
           -------------------------------------------------
          |                Final Singlepoint                |
           -------------------------------------------------

          ...................................................
          :                      SETUP                      :
          :.................................................:
          :  # basis functions                  45          :
          :  # atomic orbitals                  45          :
          :  # shells                           25          :
          :  # electrons                        52          :
          :  max. iterations                   250          :
          :  Hamiltonian                  GFN2-xTB          :
          :  restarted?                      false          :
          :  GBSA solvation                  false          :
          :  PC potential                    false          :
          :  electronic temp.          300.0000000     K    :
          :  accuracy                    1.0000000          :
          :  -> integral cutoff          0.2500000E+02      :
          :  -> integral neglect         0.1000000E-07      :
          :  -> SCF convergence          0.1000000E-05 Eh   :
          :  -> wf. convergence          0.1000000E-03 e    :
          :  Broyden damping             0.4000000          :
          :  net charge                         -1          :
          :  unpaired electrons                  0          :
          ...................................................

 iter      E             dE          RMSdq      gap      omega  full diag
   1    -29.8597635 -0.298598E+02  0.635E-05    1.84       0.0  T
   2    -29.8597635 -0.102354E-10  0.455E-05    1.84     567.5  T
   3    -29.8597635 -0.236291E-10  0.240E-05    1.84    1073.7  T

   *** convergence criteria satisfied after 3 iterations ***

         #    Occupation            Energy/Eh            Energy/eV
      -------------------------------------------------------------
         1        2.0000           -0.5728010             -15.5867
       ...           ...                  ...                  ...
        20        2.0000           -0.2826704              -7.6919
        21        2.0000           -0.2805179              -7.6333
        22        2.0000           -0.2673399              -7.2747
        23        2.0000           -0.2591106              -7.0508
        24        2.0000           -0.2588338              -7.0432
        25        2.0000           -0.2151122              -5.8535
        26        2.0000           -0.2011590              -5.4738 (HOMO)
        27                         -0.1335849              -3.6350 (LUMO)
        28                         -0.0751740              -2.0456
        29                         -0.0345281              -0.9396
        30                          0.0636696               1.7325
        31                          0.1934865               5.2650
       ...                                ...                  ...
        45                          0.8322226              22.6459
      -------------------------------------------------------------
                  HL-Gap            0.0675742 Eh            1.8388 eV
             Fermi-level           -0.1673720 Eh           -4.5544 eV

 SCC (total)                   0 d,  0 h,  0 min,  0.005 sec
 SCC setup                      ...        0 min,  0.000 sec (  1.661%)
 Dispersion                     ...        0 min,  0.000 sec (  1.014%)
 classical contributions        ...        0 min,  0.000 sec (  0.241%)
 integral evaluation            ...        0 min,  0.001 sec ( 20.311%)
 iterations                     ...        0 min,  0.001 sec ( 24.203%)
 molecular gradient             ...        0 min,  0.002 sec ( 50.618%)
 printout                       ...        0 min,  0.000 sec (  1.439%)

         :::::::::::::::::::::::::::::::::::::::::::::::::::::
         ::                     SUMMARY                     ::
         :::::::::::::::::::::::::::::::::::::::::::::::::::::
         :: total energy             -29.501397608663 Eh    ::
         :: gradient norm              0.000268091803 Eh/a0 ::
         :: HOMO-LUMO gap              1.838787160816 eV    ::
         ::.................................................::
         :: SCC energy               -29.859754002753 Eh    ::
         :: -> isotropic ES            0.167709610835 Eh    ::
         :: -> anisotropic ES          0.011736658883 Eh    ::
         :: -> anisotropic XC          0.006523776056 Eh    ::
         :: -> dispersion             -0.013796961827 Eh    ::
         :: repulsion energy           0.358356394090 Eh    ::
         :: add. restraining           0.000000000000 Eh    ::
         :: total charge              -1.000000000000 e     ::
         :::::::::::::::::::::::::::::::::::::::::::::::::::::

           ------------------------------------------------- 
          |                Numerical Hessian                |
           ------------------------------------------------- 
step length          :   0.00500
SCC accuracy         :   0.30000
Hessian scale factor :   1.00000
frozen atoms in %    :   0.00000    0
RMS gradient         :   0.00027
estimated CPU  time      0.03 min
estimated wall time      0.01 min

writing file <hessian>.

 projected vibrational frequencies (cm⁻¹)
eigval :       -0.00    -0.00     0.00     0.00     0.00     0.00
eigval :       92.49    93.44   211.10   247.14   352.75   374.70
eigval :      400.90   430.44   547.93   603.48   618.03   650.47
eigval :      701.02   745.74   781.55   808.25   837.24   856.95
eigval :      914.80   920.12   973.00  1100.37  1145.54  1171.63
eigval :     1200.30  1282.59  1349.89  1377.33  1412.99  1474.37
eigval :     1508.95  1536.30  1565.58  1623.68  3007.37  3063.26
eigval :     3063.93  3077.42  3260.17
           -------------------------------------------------
          |                Property Printout                |
           -------------------------------------------------

    * Orbital Energies and Occupations

         #    Occupation            Energy/Eh            Energy/eV
      -------------------------------------------------------------
         1        2.0000           -0.5728007             -15.5867
       ...           ...                  ...                  ...
        14        2.0000           -0.3505612              -9.5393
        15        2.0000           -0.3422120              -9.3121
        16        2.0000           -0.3391381              -9.2284
        17        2.0000           -0.3373391              -9.1795
        18        2.0000           -0.3084346              -8.3929
        19        2.0000           -0.2880296              -7.8377
        20        2.0000           -0.2826704              -7.6919
        21        2.0000           -0.2805176              -7.6333
        22        2.0000           -0.2673399              -7.2747
        23        2.0000           -0.2591104              -7.0508
        24        2.0000           -0.2588336              -7.0432
        25        2.0000           -0.2151126              -5.8535
        26        2.0000           -0.2011592              -5.4738 (HOMO)
        27                         -0.1335847              -3.6350 (LUMO)
        28                         -0.0751741              -2.0456
        29                         -0.0345281              -0.9396
        30                          0.0636695               1.7325
        31                          0.1934867               5.2650
        32                          0.2432098               6.6181
        33                          0.2697054               7.3391
        34                          0.2928810               7.9697
        35                          0.3029045               8.2425
        36                          0.3372967               9.1783
        37                          0.3585005               9.7553
       ...                                ...                  ...
        45                          0.8322225              22.6459
      -------------------------------------------------------------
                  HL-Gap            0.0675744 Eh            1.8388 eV
             Fermi-level           -0.1673720 Eh           -4.5544 eV

     #   Z          covCN         q      C6AA      α(0)
     1   6 C        2.887     0.104    25.698     8.311
     2   6 C        2.921    -0.067    29.658     8.931
     3   6 C        2.910    -0.038    28.949     8.823
     4   6 C        2.912    -0.031    28.769     8.795
     5   6 C        2.910    -0.037    28.912     8.817
     6   6 C        2.914    -0.077    29.930     8.971
     7   8 O        0.930    -0.512    24.006     6.571
     8   1 H        0.925    -0.011     3.249     2.819
     9   1 H        0.926     0.013     2.834     2.633
    10   1 H        0.925     0.029     2.605     2.524
    11   7 N        2.763     0.471    14.359     5.628
    12   1 H        0.925     0.025     2.652     2.547
    13   8 O        0.930    -0.510    23.974     6.567
    14   7 N        1.784    -0.437    32.413     8.432
    15   1 H        0.860     0.077     2.024     2.229

 Mol. C6AA /au·bohr⁶  :       3527.192195
 Mol. C8AA /au·bohr⁸  :      83456.496924
 Mol. α(0) /au        :         92.595851


Wiberg/Mayer (AO) data.
largest (>0.10) Wiberg bond orders for each atom

 ---------------------------------------------------------------------------
     #   Z sym  total        # sym  WBO       # sym  WBO       # sym  WBO
 ---------------------------------------------------------------------------
     1   6 C    3.981 --    14 N    1.597     2 C    1.156     6 C    1.149
     2   6 C    3.988 --     3 C    1.648     1 C    1.156     9 H    0.970
     3   6 C    3.992 --     2 C    1.648     4 C    1.234    10 H    0.966
     4   6 C    3.943 --     5 C    1.243     3 C    1.234    11 N    1.149
     5   6 C    3.992 --     6 C    1.636     4 C    1.243    12 H    0.965
     6   6 C    3.983 --     5 C    1.636     1 C    1.149     8 H    0.968
     7   8 O    1.736 --    11 N    1.309    13 O    0.241
     8   1 H    0.999 --     6 C    0.968
     9   1 H    0.999 --     2 C    0.970
    10   1 H    0.998 --     3 C    0.966
    11   7 N    3.849 --    13 O    1.311     7 O    1.309     4 C    1.149
    12   1 H    0.999 --     5 C    0.965
    13   8 O    1.738 --    11 N    1.311     7 O    0.241
    14   7 N    2.792 --     1 C    1.597    15 H    0.968
    15   1 H    0.993 --    14 N    0.968
 ---------------------------------------------------------------------------

Topologies differ in total number of bonds
Writing topology from bond orders to xtbtopo.mol

molecular dipole:
                 x           y           z       tot (Debye)
 q only:        8.319       6.646      -0.706
   full:        8.129       6.340      -0.510      26.233
molecular quadrupole (traceless):
                xx          xy          yy          xz          yz          zz
 q only:      -64.736     -95.197       1.657      -7.294       4.750      63.079
  q+dip:      -67.014     -92.671       3.770      -9.122       0.208      63.244
   full:      -67.707     -94.091       4.274     -10.243       1.430      63.433

           -------------------------------------------------
          |                Geometry Summary                 |
           -------------------------------------------------

      molecular mass/u    :      137.1163354
   center of mass at/Å    :       -3.9588104      -3.3997713       0.6122035
  moments of inertia/u·Å² :        0.1281564E+03   0.5866103E+03   0.7147664E+03
rotational constants/cm⁻¹ :        0.1315395E+00   0.2873736E-01   0.2358481E-01

 * 12 selected distances

     #   Z          #   Z                                           value/Å
     2   6 C        3   6 C                                       1.3537507
     3   6 C        4   6 C                                       1.4156291 (max)
     4   6 C        5   6 C                                       1.4130777
     5   6 C        6   6 C                                       1.3549146
     6   6 C        8   1 H                                       1.0858323
     2   6 C        9   1 H                                       1.0807557 (min)
     3   6 C       10   1 H                                       1.0813329
     4   6 C       11   7 N                                       1.3720432
     7   8 O       11   7 N                                       1.2469814
     5   6 C       12   1 H                                       1.0818827
    11   7 N       13   8 O                                       1.2464943
     1   6 C       14   7 N                                       1.3003309

 * 4 distinct bonds (by element types)

   Z      Z             #   av. dist./Å        max./Å        min./Å
   1 H    6 C           4     1.0824509     1.0858323     1.0807557
   6 C    6 C           4     1.3843431     1.4156291     1.3537507
   6 C    7 N           2     1.3361871     1.3720432     1.3003309
   7 N    8 O           2     1.2467378     1.2469814     1.2464943

           -------------------------------------------------
          |               Frequency Printout                |
           -------------------------------------------------
 projected vibrational frequencies (cm⁻¹)
eigval :       -0.00    -0.00     0.00     0.00     0.00     0.00
eigval :       92.49    93.44   211.10   247.14   352.75   374.70
eigval :      400.90   430.44   547.93   603.48   618.03   650.47
eigval :      701.02   745.74   781.55   808.25   837.24   856.95
eigval :      914.80   920.12   973.00  1100.37  1145.54  1171.63
eigval :     1200.30  1282.59  1349.89  1377.33  1412.99  1474.37
eigval :     1508.95  1536.30  1565.58  1623.68  3007.37  3063.26
eigval :     3063.93  3077.42  3260.17
 reduced masses (amu)
   1: 12.61   2: 13.67   3: 12.80   4: 12.96   5: 13.17   6: 12.40   7: 12.74   8: 13.74
   9: 13.61  10: 11.42  11: 13.79  12:  9.39  13: 10.94  14:  8.79  15: 13.26  16: 11.51
  17: 13.14  18: 11.25  19: 13.18  20:  2.80  21: 13.47  22:  5.89  23:  3.55  24: 11.85
  25:  2.76  26:  3.30  27:  8.80  28:  4.92  29:  7.49  30:  3.39  31:  4.88  32:  4.15
  33:  9.57  34:  8.90  35: 11.16  36: 11.95  37: 13.83  38: 11.62  39: 12.01  40: 11.57
  41:  1.79  42:  1.83  43:  1.76  44:  1.88  45:  1.84
 IR intensities (km·mol⁻¹)
   1:  0.57   2:  6.67   3:  1.96   4:  5.39   5:  6.22   6:  0.89   7: 13.16   8:  0.84
   9:  7.37  10:  1.58  11:  0.06  12:  1.97  13: 10.87  14:  0.46  15:  1.26  16:  2.04
  17: 33.63  18: 11.85  19: 45.36  20: 51.50  21:  1.43  22: 32.44  23:  2.56  24:  7.00
  25:  3.57  26:  0.27  27:  0.02  28: 13.44  29:  6.19  30: 93.16  31: 98.05  32: 60.40
  33:602.00  34: 20.42  35:******  36: 27.43  37:368.20  38:  1.12  39: 80.50  40:191.25
  41: 86.00  42: 46.37  43: 21.72  44: 69.48  45:149.21
 Raman intensities (Ä⁴*amu⁻¹)
   1:  0.00   2:  0.00   3:  0.00   4:  0.00   5:  0.00   6:  0.00   7:  0.00   8:  0.00
   9:  0.00  10:  0.00  11:  0.00  12:  0.00  13:  0.00  14:  0.00  15:  0.00  16:  0.00
  17:  0.00  18:  0.00  19:  0.00  20:  0.00  21:  0.00  22:  0.00  23:  0.00  24:  0.00
  25:  0.00  26:  0.00  27:  0.00  28:  0.00  29:  0.00  30:  0.00  31:  0.00  32:  0.00
  33:  0.00  34:  0.00  35:  0.00  36:  0.00  37:  0.00  38:  0.00  39:  0.00  40:  0.00
  41:  0.00  42:  0.00  43:  0.00  44:  0.00  45:  0.00
 output can be read by thermo (or use thermo option).
 writing <g98.out> molden fake output.
 recommended (thermochemical) frequency scaling factor: 1.0
           -------------------------------------------------
          |             Thermodynamic Functions             |
           -------------------------------------------------

Molecule has the following symmetry elements: (sigma) 
It seems to be the Cs point group
cs  symmetry found (for desy threshold:  0.10E+00) used in thermo

          ...................................................
          :                      SETUP                      :
          :.................................................:
          :  # frequencies                          39      :
          :  # imaginary freq.                       0      :
          :  linear?                             false      :
          :  only rotor calc.                    false      :
          :  symmetry                               cs      :
          :  rotational number                       1      :
          :  scaling factor                  1.0000000      :
          :  rotor cutoff                   50.0000000 cm⁻¹ :
          :  imag. cutoff                  -20.0000000 cm⁻¹ :
          :.................................................:

    mode    ω/cm⁻¹     T·S(HO)/kcal·mol⁻¹    T·S(FR)/kcal·mol⁻¹   T·S(vib)
   ------------------------------------------------------------------------
       1     92.49    -1.07534 ( 92.13%)    -0.87423 (  7.87%)    -1.05952
       2     93.44    -1.06939 ( 92.42%)    -0.87120 (  7.58%)    -1.05437
       3    211.10    -0.60648 ( 99.69%)    -0.62982 (  0.31%)    -0.60656
       4    247.14    -0.52203 ( 99.83%)    -0.58314 (  0.17%)    -0.52214
   ------------------------------------------------------------------------

   temp. (K)  partition function   enthalpy   heat capacity  entropy
                                   cal/mol     cal/K/mol   cal/K/mol   J/K/mol
 298.15  VIB   51.3                 3279.865     24.585     18.725
         ROT  0.560E+06              888.752      2.981     29.284
         INT  0.287E+08             4168.617     27.566     48.009
         TR   0.155E+28             1481.254      4.968     40.640
         TOT                        5649.8709    32.5344    88.6490   370.9076

       T/K    H(0)-H(T)+PV         H(T)/Eh          T*S/Eh         G(T)/Eh
   ------------------------------------------------------------------------
    298.15    0.900364E-02    0.112394E+00    0.421200E-01    0.702742E-01
   ------------------------------------------------------------------------

         :::::::::::::::::::::::::::::::::::::::::::::::::::::
         ::                  THERMODYNAMIC                  ::
         :::::::::::::::::::::::::::::::::::::::::::::::::::::
         :: total free energy         -29.431123458525 Eh   ::
         ::.................................................::
         :: total energy              -29.501397608660 Eh   ::
         :: zero point energy           0.103390528673 Eh   ::
         :: G(RRHO) w/o ZPVE           -0.033116378538 Eh   ::
         :: G(RRHO) contrib.            0.070274150135 Eh   ::
         :::::::::::::::::::::::::::::::::::::::::::::::::::::

optimized geometry written to: xtbopt.xyz


           -------------------------------------------------
          | TOTAL ENERGY              -29.501397608660 Eh   |
          | TOTAL ENTHALPY            -29.389003437545 Eh   |
          | TOTAL FREE ENERGY         -29.431123458525 Eh   |
          | GRADIENT NORM               0.000268173812 Eh/α |
          | HOMO-LUMO GAP               1.838794360301 eV   |
           -------------------------------------------------

------------------------------------------------------------------------
 * finished run on 2025/10/18 at 04:56:41.940     
------------------------------------------------------------------------
 total:
 * wall-time:     0 d,  0 h,  0 min,  1.107 sec
 *  cpu-time:     0 d,  0 h,  0 min,  1.741 sec
 * ratio c/w:     1.572 speedup
 SCF:
 * wall-time:     0 d,  0 h,  0 min,  0.053 sec
 *  cpu-time:     0 d,  0 h,  0 min,  0.068 sec
 * ratio c/w:     1.303 speedup
 ANC optimizer:
 * wall-time:     0 d,  0 h,  0 min,  0.408 sec
 *  cpu-time:     0 d,  0 h,  0 min,  0.603 sec
 * ratio c/w:     1.477 speedup
 analytical hessian:
 * wall-time:     0 d,  0 h,  0 min,  0.497 sec
 *  cpu-time:     0 d,  0 h,  0 min,  0.914 sec
 * ratio c/w:     1.838 speedup

