15
 energy: -29.379772188399 gnorm: 0.531514758765 xtb: 6.7.1 (edcfbbe)
C           -2.09689400000000       -2.89183400000000        1.60173700000000
C           -2.48236100000000       -2.22819400000000        0.49645300000000
C           -3.73725800000000       -2.57729100000000       -0.16288000000000
C           -4.50022500000000       -3.56712000000000        0.34686300000000
C           -4.08140900000000       -4.28609800000000        1.54533900000000
C           -2.92169200000000       -3.95653000000000        2.14652500000000
O           -6.43908900000000       -4.80998000000000        0.15201700000000
H           -2.58567600000000       -4.47463300000000        3.03928000000000
H           -1.88561600000000       -1.42875200000000        0.06818200000000
H           -4.00423900000000       -2.01261800000000       -1.05141000000000
N           -5.75495800000000       -3.89787500000000       -0.33380700000000
H           -4.70831500000000       -5.07909200000000        1.94038400000000
O           -6.06390000000000       -3.25586200000000       -1.34861900000000
N           -1.14193100000000       -2.63379000000000        2.11240200000000
H           -0.27489500000000       -2.40161100000000        2.57851600000000
15
 energy: -29.448267243641 gnorm: 0.100288296308 xtb: 6.7.1 (edcfbbe)
C           -2.11138123715677       -2.90147194009609        1.60069278082510
C           -2.53104911076052       -2.22461496762165        0.45081863693433
C           -3.72926831783233       -2.56529551405926       -0.17012734591152
C           -4.51656208444018       -3.57708391474037        0.34462487425117
C           -4.10803861282701       -4.29211652133625        1.52971935286764
C           -2.95422484449799       -3.97008346854817        2.13470606736025
O           -6.43777756250392       -4.81141614656736        0.15481553298236
H           -2.60198994245498       -4.47740976227659        3.02864585808141
H           -1.90990718513015       -1.43129161620028        0.05048004416855
H           -4.01135554428649       -2.01422724584280       -1.05558296785041
N           -5.73866563967136       -3.90011076386891       -0.31732056040699
H           -4.73104295027132       -5.08213775141069        1.92460488072993
O           -6.05387022547542       -3.26049454342933       -1.33465690213697
N           -1.03518678132645       -2.60758029869297        2.17257103643967
H           -0.20813796136511       -2.38594554530928        2.61699071166549
15
 energy: -29.454792733311 gnorm: 0.045254488608 xtb: 6.7.1 (edcfbbe)
C           -2.09967841679325       -2.90285662281888        1.61227880050134
C           -2.54642601614642       -2.22632478853585        0.43973310428064
C           -3.71799896633648       -2.55833886758174       -0.16868251818945
C           -4.52541705138639       -3.58061775934423        0.34122634996860
C           -4.11985278778135       -4.28397785991492        1.51013064124943
C           -2.96091356737465       -3.96564561075046        2.12381580071251
O           -6.42562597831892       -4.81606216938551        0.17059918785476
H           -2.61929306216544       -4.47808623136564        3.01471204143153
H           -1.92629804143087       -1.43482710799425        0.04067103398918
H           -4.02353752615890       -2.02213639208540       -1.05669086054914
N           -5.71940988523975       -3.90395844795406       -0.29642466961933
H           -4.75678218824789       -5.07132469565556        1.89003241354278
O           -6.04527579243103       -3.27002094184284       -1.31618693805915
N           -1.01244727412922       -2.60453494081401        2.18837306558386
H           -0.17950144605946       -2.38256756395664        2.63739454730242
15
 energy: -29.456271748405 gnorm: 0.016512983225 xtb: 6.7.1 (edcfbbe)
C           -2.08367498048907       -2.90252859601132        1.62553045494972
C           -2.55013231398059       -2.22527552797796        0.43535606131765
C           -3.71324758999472       -2.55282381766742       -0.17109925942162
C           -4.53622605477752       -3.58378682620752        0.33573319870661
C           -4.12181066816831       -4.27460315502162        1.49748382596361
C           -2.96030416803579       -3.95894546286986        2.11649504308723
O           -6.42220668247029       -4.82079043816316        0.17904485701287
H           -2.63483603396460       -4.48200954579482        3.00608721678556
H           -1.92844658259349       -1.43356128543396        0.03737238972767
H           -4.04309341069004       -2.03181522433411       -1.06200668794997
N           -5.71113545544065       -3.90705182288044       -0.28576540998962
H           -4.76748551249633       -5.06050920391274        1.86825106764813
O           -6.05197658424458       -3.28034865160411       -1.30980039287080
N           -0.99448844494585       -2.60309390309203        2.20201999150730
H           -0.15939351770818       -2.38413653902894        2.65627964352563
15
 energy: -29.456421668938 gnorm: 0.009434793525 xtb: 6.7.1 (edcfbbe)
C           -2.07824462976540       -2.90182316263658        1.62935887592686
C           -2.54860543520527       -2.22377993953973        0.43492289518088
C           -3.71204903737413       -2.55062231434977       -0.17266080040079
C           -4.53801744190621       -3.58335308050270        0.33369237964083
C           -4.11885927067248       -4.27197314257043        1.49691357505923
C           -2.95790954661013       -3.95631460627374        2.11547204554294
O           -6.42435373955184       -4.82259369356630        0.17931431801187
H           -2.64017339882835       -4.48515798421868        3.00526218650665
H           -1.92651445089568       -1.43162175106714        0.03678064828303
H           -4.04738145539591       -2.03364639287602       -1.06352230363760
N           -5.71293900750647       -3.90791935881679       -0.28629445031180
H           -4.76463629046356       -5.05811003526440        1.86785744814081
O           -6.05976708034365       -3.28429551607867       -1.31182572370368
N           -0.99170939282733       -2.60265196012174        2.20397799593251
H           -0.15729782265359       -2.38741706211731        2.66173290982826
15
 energy: -29.456505149503 gnorm: 0.007181253988 xtb: 6.7.1 (edcfbbe)
C           -2.07447522219573       -2.90072924164698        1.63141138363016
C           -2.54773416970538       -2.22216349594286        0.43384691274795
C           -3.71106840247538       -2.54895393634149       -0.17379317561175
C           -4.53836761458508       -3.58258157309783        0.33245156348486
C           -4.11620142008741       -4.27021303853883        1.49710577125484
C           -2.95585566243704       -3.95377032712728        2.11431897026025
O           -6.42507416660365       -4.82373418926923        0.17999032842993
H           -2.64531663059364       -4.48811605203496        3.00447426889462
H           -1.92533398108897       -1.42964367160603        0.03561137847138
H           -4.04975171374226       -2.03473810892302       -1.06430147996649
N           -5.71387622745898       -3.90828318450598       -0.28673543653792
H           -4.76059185687057       -5.05684376372685        1.86978293901008
O           -6.06499860136596       -3.28711254163981       -1.31302976535906
N           -0.99117628328772       -2.60086898629135        2.20279000053702
H           -0.15863604750223       -2.39352788930751        2.66705834075410
15
 energy: -29.456649926711 gnorm: 0.016230836126 xtb: 6.7.1 (edcfbbe)
C           -2.07034674035763       -2.89831015321379        1.63257914360427
C           -2.54723353703172       -2.21964741872102        0.43162094197738
C           -3.71052281384937       -2.54735966255230       -0.17525656674803
C           -4.53855270601731       -3.58182702297012        0.33127080254208
C           -4.11330176347326       -4.26823765375067        1.49721620686369
C           -2.95325649961811       -3.95001750129488        2.11242842404206
O           -6.42502110381340       -4.82514835001981        0.18145964524601
H           -2.65063584837129       -4.49034600993389        3.00305579159271
H           -1.92446282531767       -1.42676649648400        0.03355369545277
H           -4.05283434414054       -2.03612059205119       -1.06546470685603
N           -5.71449049473794       -3.90880335518996       -0.28683079110563
H           -4.75513849269168       -5.05558703986888        1.87283520426007
O           -6.06999088602881       -3.29036841698386       -1.31370859126546
N           -0.99081772439878       -2.59549261192618        2.19860184155519
H           -0.16185222015249       -2.40724771503946        2.67762095883893
15
 energy: -29.456919231414 gnorm: 0.023935583067 xtb: 6.7.1 (edcfbbe)
C           -2.06790459642542       -2.89574621824045        1.63253072299840
C           -2.54730968812295       -2.21752843973463        0.42964364145230
C           -3.71049014860322       -2.54641673195097       -0.17645619103309
C           -4.53873152417648       -3.58156139931451        0.33049808940754
C           -4.11134813355443       -4.26680312078758        1.49710491733704
C           -2.95136632835869       -3.94702041804333        2.11101407918570
O           -6.42483462338267       -4.82638542703245        0.18276490485382
H           -2.65266735599509       -4.49014680561543        3.00198424313188
H           -1.92459136739649       -1.42435378685861        0.03169650420617
H           -4.05519797730911       -2.03715153138201       -1.06662302780519
N           -5.71483763669045       -3.90958349253269       -0.28671571874404
H           -4.75151338029840       -5.05462887123745        1.87460926417958
O           -6.07316398588127       -3.29279832036777       -1.31390524368445
N           -0.99032363210683       -2.58908178992451        2.19491948003978
H           -0.16417762169849       -2.42207364697762        2.68791633447455
15
 energy: -29.457480367919 gnorm: 0.035149658186 xtb: 6.7.1 (edcfbbe)
C           -2.06447163024608       -2.89183097038403        1.63259376134218
C           -2.54741339689749       -2.21430968907261        0.42696849975101
C           -3.71032910573289       -2.54498004174170       -0.17831135601930
C           -4.53897743388016       -3.58119553076042        0.32928230608868
C           -4.10831274845992       -4.26466767552575        1.49693793696559
C           -2.94859661414216       -3.94263646405215        2.10906731249476
O           -6.42460704492037       -4.82839812198277        0.18453977466269
H           -2.65543121810507       -4.48951442393500        3.00066801974156
H           -1.92502675706439       -1.42051682548430        0.02911865392054
H           -4.05859640045660       -2.03875869651158       -1.06844511614879
N           -5.71545882739609       -3.91075763372771       -0.28647494481395
H           -4.74641478230866       -5.05310119486131        1.87689707139304
O           -6.07791013827259       -3.29660930376310       -1.31437994332037
N           -0.99005014735137       -2.57902136805342        2.19064764541118
H           -0.16686175476617       -2.44498206014416        2.70187237853114
15
 energy: -29.458586505765 gnorm: 0.050381090909 xtb: 6.7.1 (edcfbbe)
C           -2.06008742661243       -2.88636779163057        1.63267588352407
C           -2.54774150526243       -2.20980363857471        0.42363062850560
C           -3.71003512654174       -2.54318107912089       -0.18083619320995
C           -4.53910364704761       -3.58094342662482        0.32758317996573
C           -4.10407437196198       -4.26191565678174        1.49675642831770
C           -2.94472945473858       -3.93684264503750        2.10653109741015
O           -6.42442402600681       -4.83090458813780        0.18693303477038
H           -2.65875486354763       -4.48817797902572        2.99919163500564
H           -1.92604406793829       -1.41495155128315        0.02600728037849
H           -4.06287031808088       -2.04123159937104       -1.07107229332280
N           -5.71597136373927       -3.91265745787194       -0.28640786027262
H           -4.73968544154474       -5.05097686996792        1.87995276733176
O           -6.08407090424628       -3.30156036715886       -1.31494089706498
N           -0.99057095327371       -2.56361105988530        2.18597840088631
H           -0.17029452945763       -2.47815428952807        2.71899890777450
15
 energy: -29.460559107707 gnorm: 0.068464933563 xtb: 6.7.1 (edcfbbe)
C           -2.05476309124276       -2.88017016945442        1.63213251102666
C           -2.54833677128604       -2.20449789473318        0.41978429440471
C           -3.70957621357751       -2.54144867347163       -0.18390577559514
C           -4.53904885452081       -3.58086524550505        0.32575912772110
C           -4.09868129323080       -4.25898075199158        1.49658473467394
C           -2.93930854846655       -3.93071498104052        2.10314936268235
O           -6.42428771260768       -4.83360519450097        0.18960004613790
H           -2.66159844755906       -4.48626292738944        2.99752499014551
H           -1.92770568668585       -1.40810618703137        0.02272169846395
H           -4.06744511443587       -2.04471082054321       -1.07444416745494
N           -5.71681048274209       -3.91425725596190       -0.28581884707929
H           -4.73193335338277       -5.04804114650020        1.88410739011332
O           -6.09062560294099       -3.30721425641824       -1.31562406016553
N           -0.99191600739395       -2.54213392855650        2.18070280606450
H           -0.17642081992727       -2.52027056690184        2.73870788886092
15
 energy: -29.463625416512 gnorm: 0.084604218180 xtb: 6.7.1 (edcfbbe)
C           -2.04865052782777       -2.87555707104148        1.62955694443082
C           -2.54899079587408       -2.19993610018311        0.41578093919134
C           -3.70903477541382       -2.54046457402644       -0.18700303183009
C           -4.53845953858240       -3.58137836257962        0.32421162315152
C           -4.09276724003949       -4.25659687378445        1.49656125262436
C           -2.93188320846604       -3.92675282428793        2.09858876695966
O           -6.42532416814015       -4.83426423315730        0.19319014300561
H           -2.66154731918043       -4.48487386495949        2.99515064709857
H           -1.92938964376938       -1.40208273763641        0.01947232944515
H           -4.07106107666415       -2.04900263549445       -1.07816795561114
N           -5.71714738870396       -3.91586711899634       -0.28536036815583
H           -4.72477882676037       -5.04419156730020        1.88940995991927
O           -6.09654499559040       -3.31098410222436       -1.31514957029425
N           -0.99253572648820       -2.51718131053545        2.17307204846805
H           -0.19034276849935       -2.56214662379301        2.76166827159690
15
 energy: -29.467737494034 gnorm: 0.094798831664 xtb: 6.7.1 (edcfbbe)
C           -2.04246342986624       -2.87364570118383        1.62466964117732
C           -2.54905235230953       -2.19777094285492        0.41151689545827
C           -3.70828165179940       -2.54083194335915       -0.19001476770523
C           -4.53763454870830       -3.58187937398241        0.32379361639955
C           -4.08680718404588       -4.25530100127461        1.49657345127555
C           -2.92248736225007       -3.92654517230997        2.09278906168155
O           -6.42692131819685       -4.83315078213785        0.19685372786632
H           -2.65709169315069       -4.48534360727743        2.99142445888350
H           -1.92992931363319       -1.39916978739805        0.01588672276582
H           -4.07326406658485       -2.05315438429417       -1.08148167346791
N           -5.71891427853783       -3.91433355394663       -0.28252075239374
H           -4.71929922533826       -5.03953551901416        1.89552318197251
O           -6.10010531313924       -3.31279457704577       -1.31397057179442
N           -0.99095930915365       -2.49244868170220        2.16138018440648
H           -0.21524695328604       -2.59537497221889        2.78855882347440
15
 energy: -29.472511243541 gnorm: 0.099296653479 xtb: 6.7.1 (edcfbbe)
C           -2.03811188849791       -2.87226789864339        1.61958792903262
C           -2.54864944151815       -2.19760952490196        0.40738371621696
C           -3.70746093545005       -2.54213597860190       -0.19280600070354
C           -4.53588125219389       -3.58309891567219        0.32362298871574
C           -4.08128451866795       -4.25453652088440        1.49681773909637
C           -2.91294479002630       -3.92803574919830        2.08750480933683
O           -6.43018031840588       -4.82853917235301        0.20249804896226
H           -2.64910946881657       -4.48729313476003        2.98680065911454
H           -1.92903407462190       -1.39948597261269        0.01196584125014
H           -4.07406005505267       -2.05682081458574       -1.08442302612734
N           -5.71843947064961       -3.91475944427611       -0.28147212574479
H           -4.71439396495587       -5.03570438555243        1.90075363104157
O           -6.10288082536469       -3.31089034156426       -1.31034457596395
N           -0.98844111363970       -2.46837461867897        2.14712023704349
H           -0.24758588213887       -2.62172752771461        2.81597212872909
15
 energy: -29.477396522230 gnorm: 0.096271322141 xtb: 6.7.1 (edcfbbe)
C           -2.03634719694452       -2.87215585429647        1.61414903868974
C           -2.54755870609877       -2.20027917718257        0.40352528548265
C           -3.70664506167455       -2.54457045831155       -0.19504929926938
C           -4.53458494247888       -3.58305322082486        0.32558507718586
C           -4.07675664930528       -4.25491905872032        1.49698122977386
C           -2.90453589870678       -3.93127365132740        2.08369363925819
O           -6.43111349097227       -4.82533562616821        0.20559560392471
H           -2.63800362871418       -4.48931216710107        2.98260263246624
H           -1.92709174019299       -1.40311048885759        0.00853130654893
H           -4.07320936340096       -2.05891663791438       -1.08621043588985
N           -5.72166676872422       -3.90859995700817       -0.27498133088705
H           -4.71086075243199       -5.03339258007135        1.90418899759889
O           -6.10062185658120       -3.30929414051531       -1.30802069198519
N           -0.98512666724825       -2.44747833136794        2.13134028827311
H           -0.28433527652519       -2.63958865033281        2.83905065882927
15
 energy: -29.485148663752 gnorm: 0.107453072696 xtb: 6.7.1 (edcfbbe)
C           -2.04892305244854       -2.86381948668077        1.58867666759274
C           -2.55050248303822       -2.22330965474632        0.40951172341112
C           -3.71379753272456       -2.55610124310229       -0.18688905977126
C           -4.51968947491080       -3.58875042679602        0.34235083905893
C           -4.06835541256316       -4.24760481320069        1.50479332876596
C           -2.87114271605083       -3.94568059939172        2.09454769175560
O           -6.42981648972010       -4.79969220605532        0.22653092890754
H           -2.56328713582136       -4.47664389737835        2.98518751462109
H           -1.92398858221540       -1.43593869084377        0.01672843870191
H           -4.05117742124011       -2.05359969341325       -1.08254262340811
N           -5.69734275971125       -3.92729157036485       -0.27920235791531
H           -4.70534277884986       -5.02563909643515        1.90272494404109
O           -6.06719062766614       -3.28105182825632       -1.27884568279572
N           -0.93352550960951       -2.24794857845050        1.98918051860770
H           -0.53437602343019       -2.82820821488467        2.89822912842674
15
 energy: -29.493163965220 gnorm: 0.075026031064 xtb: 6.7.1 (edcfbbe)
C           -2.07439278778647       -2.88192586249248        1.58502132657925
C           -2.55109899333364       -2.23133750034132        0.41778413647220
C           -3.71484553543595       -2.56137477001908       -0.18411589047132
C           -4.51888240997454       -3.58448804072623        0.34742115671328
C           -4.08478175739858       -4.25992457876966        1.49903845234585
C           -2.89692854110341       -3.95870086142791        2.10265638342274
O           -6.41538830248793       -4.80581672112248        0.21486723253756
H           -2.54951013541776       -4.46831321954877        2.98788436263689
H           -1.92454762458302       -1.44667084206648        0.02317429047725
H           -4.03618764907329       -2.04038071552317       -1.07892362922942
N           -5.71300397433823       -3.89764472633920       -0.25562374213639
H           -4.72740283284713       -5.03526164243177        1.89052372864937
O           -6.03744037132335       -3.27842892058049       -1.28376551486056
N           -0.93967659046707       -2.36039120959189        2.02887973993104
H           -0.49437049442968       -2.69062038901901        2.83615996693228
15
 energy: -29.492854438528 gnorm: 0.091225731106 xtb: 6.7.1 (edcfbbe)
C           -2.04401624770916       -2.85853486257075        1.58849021390871
C           -2.54278082543455       -2.20121858776696        0.37966192669607
C           -3.70774431605830       -2.54205519364448       -0.20812616415281
C           -4.52137915993518       -3.57551676362292        0.33555037677591
C           -4.05493229044760       -4.24578721241202        1.49902375455978
C           -2.88127118302625       -3.91402886629070        2.07941059510777
O           -6.41980138212499       -4.81798709525631        0.23532477757833
H           -2.57604199141280       -4.47806005820675        2.96264027359380
H           -1.91204786551749       -1.41833855235039       -0.01858285908834
H           -4.07315683510864       -2.05129950552886       -1.09649002013600
N           -5.72209600794737       -3.89620652350347       -0.24466926734245
H           -4.67791751865685       -5.03175164449250        1.91051287712171
O           -6.08615901147053       -3.30702699004768       -1.28545435260714
N           -0.95032470009821       -2.41689833083364        2.03268458703837
H           -0.50878866505214       -2.74656981347247        2.96100528094637
15
 energy: -29.497938831002 gnorm: 0.033218848552 xtb: 6.7.1 (edcfbbe)
C           -2.06544235694279       -2.85451024969443        1.59269616241349
C           -2.54672256510640       -2.21335566410981        0.39468865677175
C           -3.71111308553016       -2.54959923098127       -0.19814413778048
C           -4.51786860827062       -3.57957304269884        0.34193345414868
C           -4.06607818843847       -4.25040075097304        1.49941162696434
C           -2.89208456307191       -3.92004700237597        2.10016765916273
O           -6.41347211315530       -4.81335559722631        0.23066849698854
H           -2.56069481856388       -4.45779897625379        2.98203413776474
H           -1.91921778812535       -1.42792211369799        0.00031313152895
H           -4.05752632674242       -2.04256580387027       -1.08772813077139
N           -5.70734946566798       -3.90918980361557       -0.25618960831437
H           -4.69124269254448       -5.04205127823150        1.89213952101984
O           -6.06360753006352       -3.29362414484814       -1.27983892154789
N           -0.94884590671590       -2.35576218245917        2.03150169443721
H           -0.51719199106086       -2.79152415896389        2.88732825721390
15
 energy: -29.498560766729 gnorm: 0.022526966887 xtb: 6.7.1 (edcfbbe)
C           -2.06212193757085       -2.86686583986779        1.57924827962278
C           -2.54512486620998       -2.21549964064233        0.39550810776228
C           -3.71326451342749       -2.54691347311346       -0.19447759123082
C           -4.51678093343156       -3.57582146287387        0.34610769125481
C           -4.06751330433041       -4.25030891095494        1.49928006911852
C           -2.88893829329442       -3.92721479173339        2.09836438804848
O           -6.40963330374995       -4.81062829990744        0.23571760436567
H           -2.54911828738333       -4.45344072638939        2.98228770060149
H           -1.91581964884859       -1.43296202156167       -0.00073648438232
H           -4.05128703093181       -2.04044755303505       -1.08882789671722
N           -5.70681292270593       -3.90649478880532       -0.25181519096424
H           -4.69444083865422       -5.04080926623217        1.88999066358868
O           -6.06018811915275       -3.28913396771961       -1.27435115577871
N           -0.93039057180379       -2.38023083259524        2.01359235911667
H           -0.56702342850498       -2.76450842456829        2.90109345559399
15
 energy: -29.499345978611 gnorm: 0.024744830442 xtb: 6.7.1 (edcfbbe)
C           -2.06916971164069       -2.85053498107697        1.58510586876966
C           -2.54562697675569       -2.20180271506532        0.39414926798635
C           -3.70974255385724       -2.54351624711323       -0.19991251913310
C           -4.51113794691963       -3.57440658265276        0.34283057103854
C           -4.06000717672462       -4.25031703666280        1.49521644289875
C           -2.89309484108019       -3.91022865951428        2.10298685213376
O           -6.39676810678799       -4.82114380318723        0.23944689818114
H           -2.55457750908708       -4.42904899598750        2.99283781843825
H           -1.91875756717988       -1.41638374783355       -0.00053596624784
H           -4.05242311918797       -2.03893647199515       -1.09377183210685
N           -5.70551032207857       -3.90651008539343       -0.24635776128898
H           -4.68189620984200       -5.04596627786381        1.88390576387393
O           -6.06337735844085       -3.29866439968946       -1.27382521646701
N           -0.94585232520833       -2.38567872065457        2.04616831581361
H           -0.57051627520928       -2.82814127530993        2.86273749610979
15
 energy: -29.500672348100 gnorm: 0.010294742774 xtb: 6.7.1 (edcfbbe)
C           -2.05861975043325       -2.83792413517447        1.57522066998809
C           -2.54464941158831       -2.18861993235607        0.38530727153752
C           -3.71105257163096       -2.53731685278549       -0.20409996367029
C           -4.50786503095485       -3.57505942189392        0.33748118713525
C           -4.05452909519931       -4.24033637947297        1.49650996633823
C           -2.88551780142531       -3.89648661280676        2.09409740984891
O           -6.39554720037258       -4.82348495842477        0.25313276210148
H           -2.54710374977890       -4.41906854903606        2.98269374701267
H           -1.92170272433893       -1.40270419203665       -0.01519377701085
H           -4.06090997876091       -2.03986162200202       -1.09798762951802
N           -5.69746696723124       -3.92360294955176       -0.25347521830908
H           -4.67260613005686       -5.03677405565741        1.89079312706625
O           -6.07825874716076       -3.30478399214864       -1.26678901679317
N           -0.93389100793232       -2.40135877089939        2.05606908981731
H           -0.60873783313554       -2.87389757575362        2.89722237445572
15
 energy: -29.501008733840 gnorm: 0.018563098728 xtb: 6.7.1 (edcfbbe)
C           -2.04405765454678       -2.82061016154339        1.55987611236192
C           -2.54051511466959       -2.17398922593095        0.37060222287392
C           -3.71240546867250       -2.52929858996309       -0.20751866688565
C           -4.51067183726675       -3.56453946089524        0.34107797541963
C           -4.04757253522205       -4.22704283797204        1.49976834179593
C           -2.87432238337169       -3.87819648525111        2.08085252209159
O           -6.37627203448415       -4.84613298107333        0.25422442207225
H           -2.53665901218676       -4.40010419122797        2.97130729142420
H           -1.92778959117396       -1.38277740840343       -0.03717075822450
H           -4.07662852981997       -2.03550768171857       -1.09683652310143
N           -5.70644533030743       -3.91485173218270       -0.23614123190928
H           -4.66278522833408       -5.02065514407954        1.90494086765100
O           -6.07968442957072       -3.33384852958974       -1.27447152845609
N           -0.91621599613699       -2.42467419464553        2.06841956765798
H           -0.66643285423662       -2.94905137552333        2.93205138522856
15
 energy: -29.501331954450 gnorm: 0.007193684980 xtb: 6.7.1 (edcfbbe)
C           -2.04880994836010       -2.82130147938190        1.56429028367624
C           -2.54203257551329       -2.17537419636857        0.37539749011985
C           -3.71154467147707       -2.53140506840560       -0.20495744767862
C           -4.50745042635716       -3.56940092458598        0.33880362551858
C           -4.04921110695293       -4.23017852476718        1.50024080378583
C           -2.87841270039214       -3.87881655474022        2.08547062944078
O           -6.38060838816564       -4.83789938620083        0.25633787094925
H           -2.53915352825057       -4.39812057033685        2.97651694868459
H           -1.92931099041544       -1.38458426245600       -0.03353625670170
H           -4.07274478247892       -2.03697607171652       -1.09574907597870
N           -5.69679361521503       -3.92468580277308       -0.24696632266691
H           -4.66410493638343       -5.02459847112245        1.90297776899360
O           -6.07963614674571       -3.32411121107456       -1.27011098396621
N           -0.92116060757537       -2.41935041857849        2.06848049427210
H           -0.65748357571724       -2.94447705749175        2.91378617155133
15
 energy: -29.501378043041 gnorm: 0.003166364065 xtb: 6.7.1 (edcfbbe)
C           -2.04788509068239       -2.82174535696409        1.56274628732880