
                                 *****************
                                 * O   R   C   A *
                                 *****************

                                            #,                                       
                                            ###                                      
                                            ####                                     
                                            #####                                    
                                            ######                                   
                                           ########,                                 
                                     ,,################,,,,,                         
                               ,,#################################,,                 
                          ,,##########################################,,             
                       ,#########################################, ''#####,          
                    ,#############################################,,   '####,        
                  ,##################################################,,,,####,       
                ,###########''''           ''''###############################       
              ,#####''   ,,,,##########,,,,          '''####'''          '####       
            ,##' ,,,,###########################,,,                        '##       
           ' ,,###''''                  '''############,,,                           
         ,,##''                                '''############,,,,        ,,,,,,###''
      ,#''                                            '''#######################'''  
     '                                                          ''''####''''         
             ,#######,   #######,   ,#######,      ##                                
            ,#'     '#,  ##    ##  ,#'     '#,    #''#        ######   ,####,        
            ##       ##  ##   ,#'  ##            #'  '#       #        #'  '#        
            ##       ##  #######   ##           ,######,      #####,   #    #        
            '#,     ,#'  ##    ##  '#,     ,#' ,#      #,         ##   #,  ,#        
             '#######'   ##     ##  '#######'  #'      '#     #####' # '####'        



                  #######################################################
                  #                        -***-                        #
                  #          Department of theory and spectroscopy      #
                  #    Directorship and core code : Frank Neese         #
                  #        Max Planck Institute fuer Kohlenforschung    #
                  #                Kaiser Wilhelm Platz 1               #
                  #                 D-45470 Muelheim/Ruhr               #
                  #                      Germany                        #
                  #                                                     #
                  #                  All rights reserved                #
                  #                        -***-                        #
                  #######################################################


                         Program Version 5.0.4 -  RELEASE  -


 With contributions from (in alphabetic order):
   Daniel Aravena         : Magnetic Suceptibility
   Michael Atanasov       : Ab Initio Ligand Field Theory (pilot matlab implementation)
   Alexander A. Auer      : GIAO ZORA, VPT2 properties, NMR spectrum
   Ute Becker             : Parallelization
   Giovanni Bistoni       : ED, misc. LED, open-shell LED, HFLD
   Martin Brehm           : Molecular dynamics
   Dmytro Bykov           : SCF Hessian
   Vijay G. Chilkuri      : MRCI spin determinant printing, contributions to CSF-ICE
   Dipayan Datta          : RHF DLPNO-CCSD density
   Achintya Kumar Dutta   : EOM-CC, STEOM-CC
   Dmitry Ganyushin       : Spin-Orbit,Spin-Spin,Magnetic field MRCI
   Miquel Garcia          : C-PCM and meta-GGA Hessian, CC/C-PCM, Gaussian charge scheme
   Yang Guo               : DLPNO-NEVPT2, F12-NEVPT2, CIM, IAO-localization
   Andreas Hansen         : Spin unrestricted coupled pair/coupled cluster methods
   Benjamin Helmich-Paris : MC-RPA, TRAH-SCF, COSX integrals
   Lee Huntington         : MR-EOM, pCC
   Robert Izsak           : Overlap fitted RIJCOSX, COSX-SCS-MP3, EOM
   Marcus Kettner         : VPT2
   Christian Kollmar      : KDIIS, OOCD, Brueckner-CCSD(T), CCSD density, CASPT2, CASPT2-K
   Simone Kossmann        : Meta GGA functionals, TD-DFT gradient, OOMP2, MP2 Hessian
   Martin Krupicka        : Initial AUTO-CI
   Lucas Lang             : DCDCAS
   Marvin Lechner         : AUTO-CI (C++ implementation), FIC-MRCC
   Dagmar Lenk            : GEPOL surface, SMD
   Dimitrios Liakos       : Extrapolation schemes; Compound Job, initial MDCI parallelization
   Dimitrios Manganas     : Further ROCIS development; embedding schemes
   Dimitrios Pantazis     : SARC Basis sets
   Anastasios Papadopoulos: AUTO-CI, single reference methods and gradients
   Taras Petrenko         : DFT Hessian,TD-DFT gradient, ASA, ECA, R-Raman, ABS, FL, XAS/XES, NRVS
   Peter Pinski           : DLPNO-MP2, DLPNO-MP2 Gradient
   Christoph Reimann      : Effective Core Potentials
   Marius Retegan         : Local ZFS, SOC
   Christoph Riplinger    : Optimizer, TS searches, QM/MM, DLPNO-CCSD(T), (RO)-DLPNO pert. Triples
   Tobias Risthaus        : Range-separated hybrids, TD-DFT gradient, RPA, STAB
   Michael Roemelt        : Original ROCIS implementation
   Masaaki Saitow         : Open-shell DLPNO-CCSD energy and density
   Barbara Sandhoefer     : DKH picture change effects
   Avijit Sen             : IP-ROCIS
   Kantharuban Sivalingam : CASSCF convergence, NEVPT2, FIC-MRCI
   Bernardo de Souza      : ESD, SOC TD-DFT
   Georgi Stoychev        : AutoAux, RI-MP2 NMR, DLPNO-MP2 response
   Willem Van den Heuvel  : Paramagnetic NMR
   Boris Wezisla          : Elementary symmetry handling
   Frank Wennmohs         : Technical directorship


 We gratefully acknowledge several colleagues who have allowed us to
 interface, adapt or use parts of their codes:
   Stefan Grimme, W. Hujo, H. Kruse, P. Pracht,  : VdW corrections, initial TS optimization,
                  C. Bannwarth, S. Ehlert          DFT functionals, gCP, sTDA/sTD-DF
   Ed Valeev, F. Pavosevic, A. Kumar             : LibInt (2-el integral package), F12 methods
   Garnet Chan, S. Sharma, J. Yang, R. Olivares  : DMRG
   Ulf Ekstrom                                   : XCFun DFT Library
   Mihaly Kallay                                 : mrcc  (arbitrary order and MRCC methods)
   Jiri Pittner, Ondrej Demel                    : Mk-CCSD
   Frank Weinhold                                : gennbo (NPA and NBO analysis)
   Christopher J. Cramer and Donald G. Truhlar   : smd solvation model
   Lars Goerigk                                  : TD-DFT with DH, B97 family of functionals
   V. Asgeirsson, H. Jonsson                     : NEB implementation
   FAccTs GmbH                                   : IRC, NEB, NEB-TS, DLPNO-Multilevel, CI-OPT
                                                   MM, QMMM, 2- and 3-layer-ONIOM, Crystal-QMMM,
                                                   LR-CPCM, SF, NACMEs, symmetry and pop. for TD-DFT,
                                                   nearIR, NL-DFT gradient (VV10), updates on ESD,
                                                   ML-optimized integration grids
   S Lehtola, MJT Oliveira, MAL Marques          : LibXC Library
   Liviu Ungur et al                             : ANISO software


 Your calculation uses the libint2 library for the computation of 2-el integrals
 For citations please refer to: http://libint.valeyev.net

 Your ORCA version has been built with support for libXC version: 5.1.0
 For citations please refer to: https://tddft.org/programs/libxc/

 This ORCA versions uses:
   CBLAS   interface :  Fast vector & matrix operations
   LAPACKE interface :  Fast linear algebra routines
   SCALAPACK package :  Parallel linear algebra routines
   Shared memory     :  Shared parallel matrices
   BLAS/LAPACK       :  OpenBLAS 0.3.15  USE64BITINT DYNAMIC_ARCH NO_AFFINITY Haswell SINGLE_THREADED
        Core in use  :  Haswell
   Copyright (c) 2011-2014, The OpenBLAS Project


Your calculation utilizes the atom-pairwise dispersion correction
with the Becke-Johnson damping scheme (D3BJ)
Cite in your paper:
S.Grimme, S.Ehrlich, L.Goerigk, J Comput Chem, (2011), 32, 1456–1465 
S.Grimme, J.Antony, S.Ehrlich and H.Krieg, J.Chem.Phys., 132, (2010), 154104 
   

================================================================================

----- Orbital basis set information -----
Your calculation utilizes the basis: def2-SVP
   F. Weigend and R. Ahlrichs, Phys. Chem. Chem. Phys. 7, 3297 (2005).

----- AuxJ basis set information -----
Your calculation utilizes the auxiliary basis: def2/J
   F. Weigend, Phys. Chem. Chem. Phys. 8, 1057 (2006).

================================================================================
                                        WARNINGS
                       Please study these warnings very carefully!
================================================================================


WARNING: Geometry Optimization
  ===> : Switching off AutoStart
         For restart on a previous wavefunction, please use MOREAD

INFO   : the flag for use of the SHARK integral package has been found!

================================================================================
                                       INPUT FILE
================================================================================
NAME = inp.inp
|  1> !OPT PBE D3BJ CPCM(water)
|  2> 
|  3> *xyz -1 1
|  4> C     -3.691047   -3.973273   -2.681870
|  5> C     -4.268314   -2.637389   -3.179186
|  6> O     -3.308160   -1.731517   -3.115055
|  7> H     -6.197484   -2.945431   -2.218604
|  8> C     -5.402015   -2.190939   -2.240802
|  9> H     -4.747345   -2.858607   -4.143619
| 10> H     -5.854831   -1.250116   -2.578986
| 11> H     -5.060765   -2.046897   -1.207183
| 12> H     -3.281661   -3.902541   -1.665523
| 13> H     -4.471977   -4.742944   -2.665175
| 14> H     -2.891672   -4.334652   -3.341391
| 15> *
| 16> 
| 17>                          ****END OF INPUT****
================================================================================

                       *****************************
                       * Geometry Optimization Run *
                       *****************************

Geometry optimization settings:
Update method            Update   .... BFGS
Choice of coordinates    CoordSys .... Z-matrix Internals
Initial Hessian          InHess   .... Almoef's Model

Convergence Tolerances:
Energy Change            TolE     ....  5.0000e-06 Eh
Max. Gradient            TolMAXG  ....  3.0000e-04 Eh/bohr
RMS Gradient             TolRMSG  ....  1.0000e-04 Eh/bohr
Max. Displacement        TolMAXD  ....  4.0000e-03 bohr
RMS Displacement         TolRMSD  ....  2.0000e-03 bohr
Strict Convergence                ....  False
------------------------------------------------------------------------------
                        ORCA OPTIMIZATION COORDINATE SETUP
------------------------------------------------------------------------------

The optimization will be done in new redundant internal coordinates
Making redundant internal coordinates   ...  (new redundants) done
Evaluating the initial hessian          ...  (Almloef) done
Evaluating the coordinates              ...  done
Calculating the B-matrix                .... done
Calculating the G-matrix                .... done
Diagonalizing the G-matrix              .... done
The first mode is                       ....   19
The number of degrees of freedom        ....   27

    -----------------------------------------------------------------
                    Redundant Internal Coordinates


    -----------------------------------------------------------------
         Definition                    Initial Value    Approx d2E/dq
    -----------------------------------------------------------------
      1. B(C   1,C   0)                  1.5379         0.362884   
      2. B(O   2,C   1)                  1.3216         0.719468   
      3. B(C   4,C   1)                  1.5379         0.362879   
      4. B(C   4,H   3)                  1.0966         0.351480   
      5. B(H   5,C   1)                  1.0993         0.347959   
      6. B(H   6,C   4)                  1.0975         0.350283   
      7. B(H   7,C   4)                  1.0980         0.349692   
      8. B(H   8,C   0)                  1.0980         0.349696   
      9. B(H   9,C   0)                  1.0966         0.351479   
     10. B(H  10,C   0)                  1.0975         0.350281   
     11. A(H   8,C   0,H  10)          107.8114         0.288254   
     12. A(H   9,C   0,H  10)          107.2611         0.288483   
     13. A(C   1,C   0,H   8)          112.5399         0.321231   
     14. A(C   1,C   0,H   9)          110.3216         0.321499   
     15. A(C   1,C   0,H  10)          111.4128         0.321319   
     16. A(H   8,C   0,H   9)          107.2563         0.288408   
     17. A(C   4,C   1,H   5)          105.8125         0.320969   
     18. A(O   2,C   1,H   5)          119.8067         0.357609   
     19. A(O   2,C   1,C   4)          107.8770         0.402536   
     20. A(C   0,C   1,H   5)          105.8105         0.320970   
     21. A(C   0,C   1,O   2)          107.8788         0.402537   
     22. A(C   0,C   1,C   4)          109.3632         0.359768   
     23. A(H   6,C   4,H   7)          107.8088         0.288254   
     24. A(H   3,C   4,H   7)          107.2569         0.288407   
     25. A(C   1,C   4,H   7)          112.5428         0.321230   
     26. A(H   3,C   4,H   6)          107.2624         0.288484   
     27. A(C   1,C   4,H   6)          111.4062         0.321319   
     28. A(C   1,C   4,H   3)          110.3260         0.321498   
     29. D(H   5,C   1,C   0,H   8)   -173.5551         0.010553   
     30. D(C   4,C   1,C   0,H   8)    -59.9956         0.010553   
     31. D(H   5,C   1,C   0,H  10)     65.2137         0.010553   
     32. D(H   5,C   1,C   0,H   9)    -53.8062         0.010553   
     33. D(O   2,C   1,C   0,H  10)    -64.1455         0.010553   
     34. D(C   4,C   1,C   0,H  10)    178.7731         0.010553   
     35. D(O   2,C   1,C   0,H   9)    176.8347         0.010553   
     36. D(O   2,C   1,C   0,H   8)     57.0858         0.010553   
     37. D(C   4,C   1,C   0,H   9)     59.7533         0.010553   
     38. D(H   6,C   4,C   1,O   2)     64.2522         0.010553   
     39. D(H   6,C   4,C   1,C   0)   -178.6653         0.010553   
     40. D(H   3,C   4,C   1,H   5)     53.9130         0.010553   
     41. D(H   3,C   4,C   1,O   2)   -176.7277         0.010553   
     42. D(H   6,C   4,C   1,H   5)    -65.1071         0.010553   
     43. D(H   3,C   4,C   1,C   0)    -59.6451         0.010553   
     44. D(H   7,C   4,C   1,H   5)    173.6677         0.010553   
     45. D(H   7,C   4,C   1,O   2)    -56.9730         0.010553   
     46. D(H   7,C   4,C   1,C   0)     60.1095         0.010553   
    -----------------------------------------------------------------

Number of atoms                         .... 11
Number of degrees of freedom            .... 46

         *************************************************************
         *                GEOMETRY OPTIMIZATION CYCLE   1            *
         *************************************************************
---------------------------------
CARTESIAN COORDINATES (ANGSTROEM)
---------------------------------
  C     -3.691047   -3.973273   -2.681870
  C     -4.268314   -2.637389   -3.179186
  O     -3.308160   -1.731517   -3.115055
  H     -6.197484   -2.945431   -2.218604
  C     -5.402015   -2.190939   -2.240802
  H     -4.747345   -2.858607   -4.143619
  H     -5.854831   -1.250116   -2.578986
  H     -5.060765   -2.046897   -1.207183
  H     -3.281661   -3.902541   -1.665523
  H     -4.471977   -4.742944   -2.665175
  H     -2.891672   -4.334652   -3.341391

----------------------------
CARTESIAN COORDINATES (A.U.)
----------------------------
  NO LB      ZA    FRAG     MASS         X           Y           Z
   0 C     6.0000    0    12.011   -6.975068   -7.508398   -5.068000
   1 C     6.0000    0    12.011   -8.065945   -4.983943   -6.007791
   2 O     8.0000    0    15.999   -6.251516   -3.272093   -5.886601
   3 H     1.0000    0     1.008  -11.711547   -5.566058   -4.192554
   4 C     6.0000    0    12.011  -10.208329   -4.140275   -4.234502
   5 H     1.0000    0     1.008   -8.971182   -5.401984   -7.830305
   6 H     1.0000    0     1.008  -11.064027   -2.362377   -4.873577
   7 H     1.0000    0     1.008   -9.563460   -3.868075   -2.281245
   8 H     1.0000    0     1.008   -6.201441   -7.374734   -3.147382
   9 H     1.0000    0     1.008   -8.450812   -8.962865   -5.036451
  10 H     1.0000    0     1.008   -5.464468   -8.191305   -6.314314

--------------------------------
INTERNAL COORDINATES (ANGSTROEM)
--------------------------------
 C      0   0   0     0.000000000000     0.00000000     0.00000000
 C      1   0   0     1.537903265684     0.00000000     0.00000000
 O      2   1   0     1.321594706883   107.87878044     0.00000000
 H      2   1   3     2.176994382489    93.84355693   218.80678498
 C      4   2   1     1.096595576878    41.48680186   125.31985969
 H      2   1   3     1.099335760345   105.81051551   129.35918935
 H      5   4   2     1.097523879030   107.26244989   121.51225315
 H      5   4   2     1.097983559724   107.25692511   237.10016994
 H      1   2   3     1.097980481260   112.53990370    57.08575915
 H      1   2   3     1.096596478275   110.32158692   176.83465987
 H      1   2   3     1.097525909356   111.41281558   295.85449443

---------------------------
INTERNAL COORDINATES (A.U.)
---------------------------
 C      0   0   0     0.000000000000     0.00000000     0.00000000
 C      1   0   0     2.906215992606     0.00000000     0.00000000
 O      2   1   0     2.497452056049   107.87878044     0.00000000
 H      2   1   3     4.113923177989    93.84355693   218.80678498
 C      4   2   1     2.072265319969    41.48680186   125.31985969
 H      2   1   3     2.077443516279   105.81051551   129.35918935
 H      5   4   2     2.074019556806   107.26244989   121.51225315
 H      5   4   2     2.074888227427   107.25692511   237.10016994
 H      1   2   3     2.074882409973   112.53990370    57.08575915
 H      1   2   3     2.072267023363   110.32158692   176.83465987
 H      1   2   3     2.074023393565   111.41281558   295.85449443

---------------------
BASIS SET INFORMATION
---------------------
There are 3 groups of distinct atoms

 Group   1 Type C   : 7s4p1d contracted to 3s2p1d pattern {511/31/1}
 Group   2 Type O   : 7s4p1d contracted to 3s2p1d pattern {511/31/1}
 Group   3 Type H   : 4s1p contracted to 2s1p pattern {31/1}

Atom   0C    basis set group =>   1
Atom   1C    basis set group =>   1
Atom   2O    basis set group =>   2
Atom   3H    basis set group =>   3
Atom   4C    basis set group =>   1
Atom   5H    basis set group =>   3
Atom   6H    basis set group =>   3
Atom   7H    basis set group =>   3
Atom   8H    basis set group =>   3
Atom   9H    basis set group =>   3
Atom  10H    basis set group =>   3
---------------------------------
AUXILIARY/J BASIS SET INFORMATION
---------------------------------
There are 3 groups of distinct atoms

 Group   1 Type C   : 12s5p4d2f1g contracted to 6s4p3d1f1g pattern {711111/2111/211/2/1}
 Group   2 Type O   : 12s5p4d2f1g contracted to 6s4p3d1f1g pattern {711111/2111/211/2/1}
 Group   3 Type H   : 5s2p1d contracted to 3s1p1d pattern {311/2/1}

Atom   0C    basis set group =>   1
Atom   1C    basis set group =>   1
Atom   2O    basis set group =>   2
Atom   3H    basis set group =>   3
Atom   4C    basis set group =>   1
Atom   5H    basis set group =>   3
Atom   6H    basis set group =>   3
Atom   7H    basis set group =>   3
Atom   8H    basis set group =>   3
Atom   9H    basis set group =>   3
Atom  10H    basis set group =>   3
------------------------------------------------------------------------------
                           ORCA GTO INTEGRAL CALCULATION
                           -- RI-GTO INTEGRALS CHOSEN --
------------------------------------------------------------------------------
------------------------------------------------------------------------------
                   ___                                                        
                  /   \      - P O W E R E D   B Y -                         
                 /     \                                                     
                 |  |  |   _    _      __       _____    __    __             
                 |  |  |  | |  | |    /  \     |  _  \  |  |  /  |          
                  \  \/   | |  | |   /    \    | | | |  |  | /  /          
                 / \  \   | |__| |  /  /\  \   | |_| |  |  |/  /          
                |  |  |   |  __  | /  /__\  \  |    /   |      \           
                |  |  |   | |  | | |   __   |  |    \   |  |\   \          
                \     /   | |  | | |  |  |  |  | |\  \  |  | \   \       
                 \___/    |_|  |_| |__|  |__|  |_| \__\ |__|  \__/        
                                                                              
                      - O R C A' S   B I G   F R I E N D -                    
                                      &                                       
                       - I N T E G R A L  F E E D E R -                       
                                                                              
 v1 FN, 2020, v2 2021                                                         
------------------------------------------------------------------------------


Reading SHARK input file inp.SHARKINP.tmp ... ok
----------------------
SHARK INTEGRAL PACKAGE
----------------------

Number of atoms                             ...     11
Number of basis functions                   ...     91
Number of shells                            ...     45
Maximum angular momentum                    ...      2
Integral batch strategy                     ... SHARK/LIBINT Hybrid
RI-J (if used) integral strategy            ... SPLIT-RIJ (Revised 2003 algorithm where possible)
Printlevel                                  ...      1
Contraction scheme used                     ... SEGMENTED contraction
Coulomb Range Separation                    ... NOT USED
Exchange Range Separation                   ... NOT USED
Finite Nucleus Model                        ... NOT USED
Auxiliary Coulomb fitting basis             ... AVAILABLE
   # of basis functions in Aux-J            ...    273
   # of shells in Aux-J                     ...     95
   Maximum angular momentum in Aux-J        ...      4
Auxiliary J/K fitting basis                 ... NOT available
Auxiliary Correlation fitting basis         ... NOT available
Auxiliary 'external' fitting basis          ... NOT available
Integral threshold                          ...     2.500000e-11
Primitive cut-off                           ...     2.500000e-12
Primitive pair pre-selection threshold      ...     2.500000e-12

Calculating pre-screening integrals         ... done (  0.0 sec) Dimension = 45
Organizing shell pair data                  ... done (  0.1 sec)
Shell pair information
Total number of shell pairs                 ...      1035
Shell pairs after pre-screening             ...      1030
Total number of primitive shell pairs       ...      3559
Primitive shell pairs kept                  ...      2944
          la=0 lb=0:    348 shell pairs
          la=1 lb=0:    388 shell pairs
          la=1 lb=1:    120 shell pairs
          la=2 lb=0:    104 shell pairs
          la=2 lb=1:     60 shell pairs
          la=2 lb=2:     10 shell pairs

Calculating one electron integrals          ... done (  0.0 sec)
Calculating RI/J V-Matrix + Cholesky decomp.... done (  0.3 sec)
Calculating Nuclear repulsion               ... done (  0.0 sec) ENN=    127.373290440176 Eh

SHARK setup successfully completed in   1.0 seconds

Maximum memory used throughout the entire GTOINT-calculation: 9.8 MB
-------------------------------------------------------------------------------
                                 ORCA SCF
-------------------------------------------------------------------------------

------------
SCF SETTINGS
------------
Hamiltonian:
 Density Functional     Method          .... DFT(GTOs)
 Exchange Functional    Exchange        .... PBE
   PBE kappa parameter   XKappa         ....  0.804000
   PBE mue parameter    XMuePBE         ....  0.219520
 Correlation Functional Correlation     .... PBE
   PBE beta parameter  CBetaPBE         ....  0.066725
 LDA part of GGA corr.  LDAOpt          .... PW91-LDA
 Gradients option       PostSCFGGA      .... off
   Density functional embedding theory  .... OFF
   NL short-range parameter             ....  6.400000
 RI-approximation to the Coulomb term is turned on
   Number of AuxJ basis functions       .... 273


General Settings:
 Integral files         IntName         .... inp
 Hartree-Fock type      HFTyp           .... RHF
 Total Charge           Charge          ....   -1
 Multiplicity           Mult            ....    1
 Number of Electrons    NEL             ....   34
 Basis Dimension        Dim             ....   91
 Nuclear Repulsion      ENuc            ....    127.3732904402 Eh

Convergence Acceleration:
 DIIS                   CNVDIIS         .... on
   Start iteration      DIISMaxIt       ....    12
   Startup error        DIISStart       ....  0.200000
   # of expansion vecs  DIISMaxEq       ....     5
   Bias factor          DIISBfac        ....   1.050
   Max. coefficient     DIISMaxC        ....  10.000
 Trust-Rad. Augm. Hess. CNVTRAH         .... auto
   Auto Start mean grad. ratio tolernc. ....  1.125000
   Auto Start start iteration           ....    20
   Auto Start num. interpolation iter.  ....    10
   Max. Number of Micro iterations      ....    16
   Max. Number of Macro iterations      .... Maxiter - #DIIS iter
   Number of Davidson start vectors     ....     2
   Converg. threshold I  (grad. norm)   ....   1.000e-05
   Converg. threshold II (energy diff.) ....   1.000e-08
   Grad. Scal. Fac. for Micro threshold ....   0.100
   Minimum threshold for Micro iter.    ....   0.010
   NR start threshold (gradient norm)   ....   0.001
   Initial trust radius                 ....   0.400
   Minimum AH scaling param. (alpha)    ....   1.000
   Maximum AH scaling param. (alpha)    .... 1000.000
   Orbital update algorithm             .... Taylor
   White noise on init. David. guess    .... on
   Maximum white noise                  ....   0.010
   Quad. conv. algorithm                .... NR
 SOSCF                  CNVSOSCF        .... on
   Start iteration      SOSCFMaxIt      ....   150
   Startup grad/error   SOSCFStart      ....  0.003300
 Level Shifting         CNVShift        .... on
   Level shift para.    LevelShift      ....    0.2500
   Turn off err/grad.   ShiftErr        ....    0.0010
 Zerner damping         CNVZerner       .... off
 Static damping         CNVDamp         .... on
   Fraction old density DampFac         ....    0.7000
   Max. Damping (<1)    DampMax         ....    0.9800
   Min. Damping (>=0)   DampMin         ....    0.0000
   Turn off err/grad.   DampErr         ....    0.1000
 Fernandez-Rico         CNVRico         .... off

SCF Procedure:
 Maximum # iterations   MaxIter         ....   125
 SCF integral mode      SCFMode         .... Direct
   Integral package                     .... SHARK and LIBINT hybrid scheme
 Reset frequency        DirectResetFreq ....    20
 Integral Threshold     Thresh          ....  2.500e-11 Eh
 Primitive CutOff       TCut            ....  2.500e-12 Eh

Convergence Tolerance:
 Convergence Check Mode ConvCheckMode   .... Total+1el-Energy
 Convergence forced     ConvForced      .... 0
 Energy Change          TolE            ....  1.000e-08 Eh
 1-El. energy change                    ....  1.000e-05 Eh
 Orbital Gradient       TolG            ....  1.000e-05
 Orbital Rotation angle TolX            ....  1.000e-05
 DIIS Error             TolErr          ....  5.000e-07


Diagonalization of the overlap matrix:
Smallest eigenvalue                        ... 2.407e-03
Time for diagonalization                   ...    0.002 sec
Threshold for overlap eigenvalues          ... 1.000e-08
Number of eigenvalues below threshold      ... 0
Time for construction of square roots      ...    0.107 sec
Total time needed                          ...    0.109 sec

Time for model grid setup =    0.213 sec

------------------------------
INITIAL GUESS: MODEL POTENTIAL
------------------------------
Loading Hartree-Fock densities                     ... done
Calculating cut-offs                               ... done
Initializing the effective Hamiltonian             ... done
Setting up the integral package (SHARK)            ... done
Starting the Coulomb interaction                   ... done (   0.1 sec)
Reading the grid                                   ... done
Mapping shells                                     ... done
Starting the XC term evaluation                    ... done (   0.1 sec)
  promolecular density results
     # of electrons  =     32.997114576
     EX              =    -25.510798787
     EC              =     -1.066359375
     EX+EC           =    -26.577158162
Transforming the Hamiltonian                       ... done (   0.0 sec)
Diagonalizing the Hamiltonian                      ... done (   0.0 sec)
Back transforming the eigenvectors                 ... done (   0.0 sec)
Now organizing SCF variables                       ... done
                      ------------------
                      INITIAL GUESS DONE (   0.4 sec)
                      ------------------
-------------------
DFT GRID GENERATION
-------------------

General Integration Accuracy     IntAcc      ... 4.388
Radial Grid Type                 RadialGrid  ... OptM3 with GC (2021)
Angular Grid (max. ang.)         AngularGrid ... 4 (Lebedev-302)
Angular grid pruning method      GridPruning ... 4 (adaptive)
Weight generation scheme         WeightScheme... Becke
Basis function cutoff            BFCut       ... 1.0000e-11
Integration weight cutoff        WCut        ... 1.0000e-14
Angular grids for H and He will be reduced by one unit
Partially contracted basis set               ... off
Rotationally invariant grid construction     ... off

Total number of grid points                  ...    46917
Total number of batches                      ...      739
Average number of points per batch           ...       63
Average number of grid points per atom       ...     4265
Time for grid setup =    0.443 sec


--------------------
CPCM SOLVATION MODEL
--------------------
CPCM parameters:
  Epsilon                                         ...      80.4000
  Refrac                                          ...       1.3300
  Rsolv                                           ...       1.3000
  Surface type                                    ... GAUSSIAN VDW
  Epsilon function type                           ...         CPCM
Radii:
 Radius for C  used is    3.8550 Bohr (=   2.0400 Ang.)
 Radius for O  used is    3.4469 Bohr (=   1.8240 Ang.)
 Radius for H  used is    2.4944 Bohr (=   1.3200 Ang.)
Calculating surface                               ...        done! (  0.0s)
GEPOL surface points                              ...          669
GEPOL Volume                                      ...     598.4134
GEPOL Surface-area                                ...     385.2400
Calculating surface distance matrix               ...        done! (  0.0s)
Performing Cholesky decomposition & store         ...        done! (  0.2s)
Overall time for CPCM initialization              ...                 0.2s
--------------
SCF ITERATIONS
--------------
ITER       Energy         Delta-E        Max-DP      RMS-DP      [F,P]     Damp
               ***  Starting incremental Fock matrix formation  ***
  0   -193.1455152208   0.000000000000 0.28947524  0.00993436  0.3696774 0.7000
  1   -193.2867964307  -0.141281209890 0.24319492  0.00784946  0.1250852 0.7000
                               ***Turning on DIIS***
  2   -193.3302941687  -0.043497738033 0.22633497  0.00979460  0.0246955 0.0000
  3   -193.4002494999  -0.069955331166 0.22010941  0.00631951  0.0688536 0.0000
  4   -193.4206282878  -0.020378787844 0.06108866  0.00190441  0.0160198 0.0000
  5   -193.4225978471  -0.001969559324 0.03317419  0.00101915  0.0050327 0.0000
                      *** Initiating the SOSCF procedure ***
                           *** Shutting down DIIS ***
                      *** Re-Reading the Fockian *** 
                      *** Removing any level shift *** 
ITER      Energy       Delta-E        Grad      Rot      Max-DP    RMS-DP
  6   -193.42280797  -0.0002101238  0.001200  0.001200  0.014129  0.000442
               *** Restarting incremental Fock matrix formation ***
  7   -193.42284548  -0.0000375049  0.000611  0.003971  0.014655  0.000463
  8   -193.42285593  -0.0000104553  0.000216  0.000634  0.002226  0.000078
  9   -193.42285559   0.0000003453  0.000214  0.000783  0.003201  0.000097
 10   -193.42285708  -0.0000014918  0.000079  0.000101  0.000706  0.000024
 11   -193.42285695   0.0000001246  0.000136  0.000058  0.000251  0.000011
 12   -193.42285714  -0.0000001906  0.000004  0.000005  0.000016  0.000001
 13   -193.42285714  -0.0000000007  0.000003  0.000003  0.000013  0.000001
                  ***Gradient check signals convergence***
              ***Rediagonalizing the Fockian in SOSCF/NRSCF***

               *****************************************************
               *                     SUCCESS                       *
               *           SCF CONVERGED AFTER  14 CYCLES          *
               *****************************************************


----------------
TOTAL SCF ENERGY
----------------

Total Energy       :         -193.42285714 Eh           -5263.30352 eV

Components:
Nuclear Repulsion  :          127.37329044 Eh            3466.00344 eV
Electronic Energy  :         -320.79614758 Eh           -8729.30697 eV
One Electron Energy:         -522.52773032 Eh          -14218.70241 eV
Two Electron Energy:          201.73158274 Eh            5489.39544 eV
CPCM Dielectric    :           -0.10691749 Eh              -2.90937 eV

Virial components:
Potential Energy   :         -385.17013256 Eh          -10481.01215 eV
Kinetic Energy     :          191.74727541 Eh            5217.70863 eV
Virial Ratio       :            2.00873849


DFT components:
N(Alpha)           :       17.000011596430 electrons
N(Beta)            :       17.000011596430 electrons
N(Total)           :       34.000023192860 electrons
E(X)               :      -26.389731435091 Eh       
E(C)               :       -1.115410695713 Eh       
E(XC)              :      -27.505142130804 Eh       
DFET-embed. en.    :        0.000000000000 Eh       
CPCM Solvation Model Properties:
Surface-charge          :            0.96950387
Charge-correction       :           -0.00555952 Eh              -0.15128 eV
Free-energy (cav+disp)  :  This term is not implemented in the current solvation scheme

---------------
SCF CONVERGENCE
---------------

  Last Energy change         ...    8.6288e-11  Tolerance :   1.0000e-08
  Last MAX-Density change    ...    7.3786e-06  Tolerance :   1.0000e-07
  Last RMS-Density change    ...    2.6775e-07  Tolerance :   5.0000e-09
  Last Orbital Gradient      ...    9.6710e-07  Tolerance :   1.0000e-05
  Last Orbital Rotation      ...    1.4886e-06  Tolerance :   1.0000e-05

             **** THE GBW FILE WAS UPDATED (inp.gbw) ****
             **** DENSITY inp.scfp WAS UPDATED ****
             **** ENERGY FILE WAS UPDATED (inp.en.tmp) ****
             **** THE GBW FILE WAS UPDATED (inp.gbw) ****
             **** DENSITY inp.scfp WAS UPDATED ****
----------------
ORBITAL ENERGIES
----------------

  NO   OCC          E(Eh)            E(eV) 
   0   2.0000     -18.581822      -505.6371 
   1   2.0000      -9.871690      -268.6223 
   2   2.0000      -9.844356      -267.8786 
   3   2.0000      -9.844327      -267.8778 
   4   2.0000      -0.775619       -21.1057 
   5   2.0000      -0.613052       -16.6820 
   6   2.0000      -0.574187       -15.6244 
   7   2.0000      -0.449598       -12.2342 
   8   2.0000      -0.363226        -9.8839 
   9   2.0000      -0.330000        -8.9798 
  10   2.0000      -0.329490        -8.9659 
  11   2.0000      -0.304571        -8.2878 
  12   2.0000      -0.267493        -7.2789 
  13   2.0000      -0.266999        -7.2654 
  14   2.0000      -0.230956        -6.2846 
  15   2.0000      -0.091090        -2.4787 
  16   2.0000      -0.082623        -2.2483 
  17   0.0000       0.062081         1.6893 
  18   0.0000       0.100410         2.7323 
  19   0.0000       0.104851         2.8531 
  20   0.0000       0.116975         3.1830 
  21   0.0000       0.139535         3.7969 
  22   0.0000       0.152230         4.1424 
  23   0.0000       0.165459         4.5024 
  24   0.0000       0.208941         5.6856 
  25   0.0000       0.253297         6.8926 
  26   0.0000       0.277679         7.5560 
  27   0.0000       0.393957        10.7201 
  28   0.0000       0.424216        11.5435 
  29   0.0000       0.483273        13.1505 
  30   0.0000       0.493676        13.4336 
  31   0.0000       0.566736        15.4217 
  32   0.0000       0.582288        15.8449 
  33   0.0000       0.606624        16.5071 
  34   0.0000       0.608805        16.5664 
  35   0.0000       0.612894        16.6777 
  36   0.0000       0.623745        16.9730 
  37   0.0000       0.652202        17.7473 
  38   0.0000       0.659805        17.9542 
  39   0.0000       0.668071        18.1791 
  40   0.0000       0.678719        18.4689 
  41   0.0000       0.699314        19.0293 
  42   0.0000       0.714496        19.4424 
  43   0.0000       0.732040        19.9198 
  44   0.0000       0.857638        23.3375 
  45   0.0000       0.970093        26.3976 
  46   0.0000       0.973312        26.4852 
  47   0.0000       1.073002        29.1979 
  48   0.0000       1.132923        30.8284 
  49   0.0000       1.200760        32.6743 
  50   0.0000       1.202964        32.7343 
  51   0.0000       1.267089        34.4793 
  52   0.0000       1.388438        37.7813 
  53   0.0000       1.468087        39.9487 
  54   0.0000       1.490999        40.5721 
  55   0.0000       1.501681        40.8628 
  56   0.0000       1.504915        40.9508 
  57   0.0000       1.629751        44.3478 
  58   0.0000       1.683984        45.8235 
  59   0.0000       1.738887        47.3175 
  60   0.0000       1.749111        47.5957 
  61   0.0000       1.769144        48.1408 
  62   0.0000       1.789725        48.7009 
  63   0.0000       1.803292        49.0701 
  64   0.0000       1.826525        49.7023 
  65   0.0000       1.837436        49.9992 
  66   0.0000       1.873973        50.9934 
  67   0.0000       1.917316        52.1728 
  68   0.0000       1.980572        53.8941 
  69   0.0000       2.075355        56.4733 
  70   0.0000       2.139434        58.2170 
  71   0.0000       2.185735        59.4769 
  72   0.0000       2.210304        60.1454 
  73   0.0000       2.350289        63.9546 
  74   0.0000       2.371548        64.5331 
  75   0.0000       2.436474        66.2998 
  76   0.0000       2.469222        67.1910 
  77   0.0000       2.504297        68.1454 
  78   0.0000       2.552863        69.4669 
  79   0.0000       2.657340        72.3099 
  80   0.0000       2.683315        73.0167 
  81   0.0000       2.717301        73.9415 
  82   0.0000       2.790492        75.9331 
  83   0.0000       2.845304        77.4247 
  84   0.0000       2.865927        77.9858 
  85   0.0000       2.908604        79.1471 
  86   0.0000       2.927509        79.6616 
  87   0.0000       2.969175        80.7954 
  88   0.0000       3.206846        87.2627 
  89   0.0000       3.241891        88.2163 
  90   0.0000       3.517290        95.7103 

                    ********************************
                    * MULLIKEN POPULATION ANALYSIS *
                    ********************************

-----------------------
MULLIKEN ATOMIC CHARGES
-----------------------
   0 C :    0.007963
   1 C :    0.069553
   2 O :   -0.673147
   3 H :   -0.062541
   4 C :    0.008293
   5 H :   -0.146710
   6 H :   -0.030988
   7 H :   -0.039430
   8 H :   -0.039691
   9 H :   -0.062530
  10 H :   -0.030773
Sum of atomic charges:   -1.0000000

--------------------------------
MULLIKEN REDUCED ORBITAL CHARGES
--------------------------------
  0 C s       :     2.979559  s :     2.979559
      pz      :     0.989158  p :     2.986537
      px      :     0.990886
      py      :     1.006492
      dz2     :     0.006098  d :     0.025941
      dxz     :     0.005751
      dyz     :     0.003013
      dx2y2   :     0.002776
      dxy     :     0.008304
  1 C s       :     3.047692  s :     3.047692
      pz      :     0.969731  p :     2.795163
      px      :     0.907022
      py      :     0.918409
      dz2     :     0.010430  d :     0.087592
      dxz     :     0.020362
      dyz     :     0.013188
      dx2y2   :     0.025607
      dxy     :     0.018005
  2 O s       :     3.791846  s :     3.791846
      pz      :     1.750500  p :     4.870473
      px      :     1.538226
      py      :     1.581746
      dz2     :     0.001419  d :     0.010829
      dxz     :     0.001497
      dyz     :     0.001232
      dx2y2   :     0.002571
      dxy     :     0.004110
  3 H s       :     1.038878  s :     1.038878
      pz      :     0.005325  p :     0.023663
      px      :     0.009421
      py      :     0.008917
  4 C s       :     2.979343  s :     2.979343
      pz      :     1.008189  p :     2.986423
      px      :     0.993601
      py      :     0.984634
      dz2     :     0.008729  d :     0.025940
      dxz     :     0.003655
      dyz     :     0.002204
      dx2y2   :     0.002623
      dxy     :     0.008730
  5 H s       :     1.126115  s :     1.126115
      pz      :     0.010622  p :     0.020595
      px      :     0.005590
      py      :     0.004382
  6 H s       :     1.007803  s :     1.007803
      pz      :     0.005811  p :     0.023185
      px      :     0.006487
      py      :     0.010888
  7 H s       :     1.016353  s :     1.016353
      pz      :     0.011564  p :     0.023077
      px      :     0.005778
      py      :     0.005735
  8 H s       :     1.016605  s :     1.016605
      pz      :     0.011715  p :     0.023086
      px      :     0.006572
      py      :     0.004798
  9 H s       :     1.038867  s :     1.038867
      pz      :     0.005572  p :     0.023664
      px      :     0.009075
      py      :     0.009016
 10 H s       :     1.007595  s :     1.007595
      pz      :     0.008051  p :     0.023178
      px      :     0.009342
      py      :     0.005785


                     *******************************
                     * LOEWDIN POPULATION ANALYSIS *
                     *******************************

----------------------
LOEWDIN ATOMIC CHARGES
----------------------
   0 C :   -0.113942
   1 C :   -0.040980
   2 O :   -0.625444
   3 H :   -0.013771
   4 C :   -0.113905
   5 H :   -0.068632
   6 H :   -0.001498
   7 H :   -0.003258
   8 H :   -0.003379
   9 H :   -0.013769
  10 H :   -0.001422

-------------------------------
LOEWDIN REDUCED ORBITAL CHARGES
-------------------------------
  0 C s       :     2.879002  s :     2.879002
      pz      :     1.057465  p :     3.164212
      px      :     1.056057
      py      :     1.050689
      dz2     :     0.016882  d :     0.070728
      dxz     :     0.015990
      dyz     :     0.007587
      dx2y2   :     0.007946
      dxy     :     0.022323
  1 C s       :     2.835442  s :     2.835442
      pz      :     1.021165  p :     2.987017
      px      :     0.982711
      py      :     0.983141
      dz2     :     0.025880  d :     0.218521
      dxz     :     0.055415
      dyz     :     0.031103
      dx2y2   :     0.059979
      dxy     :     0.046144
  2 O s       :     3.599756  s :     3.599756
      pz      :     1.779175  p :     5.005380
      px      :     1.598025
      py      :     1.628180
      dz2     :     0.003088  d :     0.020308
      dxz     :     0.002290
      dyz     :     0.001846
      dx2y2   :     0.004144
      dxy     :     0.008940
  3 H s       :     0.943255  s :     0.943255
      pz      :     0.014328  p :     0.070516
      px      :     0.031447
      py      :     0.024742
  4 C s       :     2.878981  s :     2.878981
      pz      :     1.059833  p :     3.164194
      px      :     1.049831
      py      :     1.054530
      dz2     :     0.021517  d :     0.070729
      dxz     :     0.012418
      dyz     :     0.006096
      dx2y2   :     0.007429
      dxy     :     0.023269
  5 H s       :     0.998933  s :     0.998933
      pz      :     0.035185  p :     0.069698
      px      :     0.019762
      py      :     0.014751
  6 H s       :     0.934876  s :     0.934876
      pz      :     0.015768  p :     0.066621
      px      :     0.018188
      py      :     0.032665
  7 H s       :     0.936425  s :     0.936425
      pz      :     0.037001  p :     0.066833
      px      :     0.016054
      py      :     0.013778
  8 H s       :     0.936542  s :     0.936542
      pz      :     0.035482  p :     0.066837
      px      :     0.017476
      py      :     0.013879
  9 H s       :     0.943253  s :     0.943253
      pz      :     0.013573  p :     0.070516
      px      :     0.025544
      py      :     0.031399
 10 H s       :     0.934802  s :     0.934802
      pz      :     0.021869  p :     0.066620
      px      :     0.027616
      py      :     0.017136


                      *****************************
                      * MAYER POPULATION ANALYSIS *
                      *****************************

  NA   - Mulliken gross atomic population
  ZA   - Total nuclear charge
  QA   - Mulliken gross atomic charge
  VA   - Mayer's total valence
  BVA  - Mayer's bonded valence
  FA   - Mayer's free valence

  ATOM       NA         ZA         QA         VA         BVA        FA
  0 C      5.9920     6.0000     0.0080     3.7961     3.7961    -0.0000
  1 C      5.9304     6.0000     0.0696     4.4729     4.4729     0.0000
  2 O      8.6731     8.0000    -0.6731     1.7437     1.7437     0.0000
  3 H      1.0625     1.0000    -0.0625     0.9963     0.9963    -0.0000
  4 C      5.9917     6.0000     0.0083     3.7960     3.7960     0.0000
  5 H      1.1467     1.0000    -0.1467     0.9229     0.9229    -0.0000
  6 H      1.0310     1.0000    -0.0310     1.0104     1.0104    -0.0000
  7 H      1.0394     1.0000    -0.0394     1.0241     1.0241    -0.0000
  8 H      1.0397     1.0000    -0.0397     1.0241     1.0241    -0.0000
  9 H      1.0625     1.0000    -0.0625     0.9964     0.9964    -0.0000
 10 H      1.0308     1.0000    -0.0308     1.0104     1.0104    -0.0000

  Mayer bond orders larger than 0.100000
B(  0-C ,  1-C ) :   1.0097 B(  0-C ,  8-H ) :   0.9515 B(  0-C ,  9-H ) :   0.9234 
B(  0-C , 10-H ) :   0.9574 B(  1-C ,  2-O ) :   1.5282 B(  1-C ,  4-C ) :   1.0098 
B(  1-C ,  5-H ) :   0.8329 B(  3-H ,  4-C ) :   0.9234 B(  4-C ,  6-H ) :   0.9573 
B(  4-C ,  7-H ) :   0.9514 

-------
TIMINGS
-------

Total SCF time: 0 days 0 hours 0 min 15 sec 

Total time                  ....      15.910 sec
Sum of individual times     ....      13.878 sec  ( 87.2%)

Fock matrix formation       ....      12.033 sec  ( 75.6%)
  Split-RI-J                ....       1.010 sec  (  8.4% of F)
  XC integration            ....       6.494 sec  ( 54.0% of F)
    Basis function eval.    ....       2.020 sec  ( 31.1% of XC)
    Density eval.           ....       0.916 sec  ( 14.1% of XC)
    XC-Functional eval.     ....       0.619 sec  (  9.5% of XC)
    XC-Potential eval.      ....       0.897 sec  ( 13.8% of XC)
Diagonalization             ....       0.010 sec  (  0.1%)
Density matrix formation    ....       0.001 sec  (  0.0%)
Population analysis         ....       0.053 sec  (  0.3%)
Initial guess               ....       0.203 sec  (  1.3%)
Orbital Transformation      ....       0.000 sec  (  0.0%)
Orbital Orthonormalization  ....       0.000 sec  (  0.0%)
DIIS solution               ....       0.619 sec  (  3.9%)
SOSCF solution              ....       0.304 sec  (  1.9%)
Grid generation             ....       0.656 sec  (  4.1%)

Maximum memory used throughout the entire SCF-calculation: 24.3 MB


-------------------------------------------------------------------------------
                          DFT DISPERSION CORRECTION                            
                                                                               
                              DFTD3 V3.1  Rev 1                                
                          USING Becke-Johnson damping                          
-------------------------------------------------------------------------------
The PBE functional is recognized
Active option DFTDOPT                   ...         4   

molecular C6(AA) [au] = 818.791271 


            DFT-D V3
 parameters
 s6 scaling factor         :     1.0000 
 a1 scaling factor         :     0.4289 
 s8 scaling factor         :     0.7875 
 a2 scaling factor         :     4.4407 
 ad hoc parameters k1-k3   :    16.0000     1.3333    -4.0000 

 Edisp/kcal,au: -4.201219707990  -0.006695069052 
 E6   /kcal   :  -3.045252058 
 E8   /kcal   :  -1.155967650 
 % E8         :  27.515048727 

-------------------------   ----------------
Dispersion correction           -0.006695069
-------------------------   ----------------


-------------------------   --------------------
FINAL SINGLE POINT ENERGY      -193.429552213259
-------------------------   --------------------

------------------------------------------------------------------------------
                         ORCA SCF GRADIENT CALCULATION
------------------------------------------------------------------------------

Gradient of the Kohn-Sham DFT energy:
Kohn-Sham wavefunction type      ... RKS
Hartree-Fock exchange scaling    ...    0.000
Number of operators              ...    1
Number of atoms                  ...   11
Basis set dimensions             ...   91
Integral neglect threshold       ... 2.5e-11
Integral primitive cutoff        ... 2.5e-12
SHARK Integral package           ... ON

Nuc. rep. gradient       (SHARK) ... done (  0.0 sec)
HCore & Overlap gradient (SHARK) ... done (  0.0 sec)
RI-J gradient            (SHARK) ... done (  0.3 sec)
Exchange-correlation gradient    ... done
Dispersion correction            ... done

------------------
CARTESIAN GRADIENT
------------------

   1   C   :    0.017196357    0.013988457    0.004982417
   2   C   :   -0.026860737   -0.012509202   -0.052359066
   3   O   :   -0.024532463   -0.028226294    0.020509692
   4   H   :    0.015494437    0.007138122   -0.003491041
   5   C   :    0.016351497    0.014940171    0.004899363
   6   H   :    0.012994752    0.005100532    0.029961933
   7   H   :    0.000384343   -0.008329453    0.004024394
   8   H   :   -0.008111742   -0.001120373   -0.005897751
   9   H   :   -0.003026354   -0.006225325   -0.007218234
  10   H   :    0.007179040    0.015802942   -0.001390886
  11   H   :   -0.007069130   -0.000559577    0.005979177

Difference to translation invariance:
           :    0.0000000000   -0.0000000000    0.0000000000

Difference to rotation invariance:
           :   -0.0002172359    0.0001628459    0.0016670501

Norm of the cartesian gradient     ...    0.0924234780
RMS gradient                       ...    0.0160888624
MAX gradient                       ...    0.0523590662

-------
TIMINGS
-------

Total SCF gradient time            ...        2.575 sec

One electron gradient       ....       0.044 sec  (  1.7%)
RI-J Coulomb gradient       ....       0.265 sec  ( 10.3%)
XC gradient                 ....       1.807 sec  ( 70.2%)
CPCM gradient               ....       0.145 sec  (  5.6%)
   A-Matrix (El+Nuc)        ....       0.026 sec  (  1.0%)
   Potential                ....       0.119 sec  (  4.6%)

Maximum memory used throughout the entire SCFGRAD-calculation: 31.6 MB
------------------------------------------------------------------------------
                         ORCA GEOMETRY RELAXATION STEP
------------------------------------------------------------------------------

Reading the OPT-File                    .... done
Getting information on internals        .... done
Copying old internal coords+grads       .... done
Making the new internal coordinates     .... (new redundants).... done
Validating the new internal coordinates .... (new redundants).... done
Calculating the B-matrix                .... done
Calculating the G,G- and P matrices     .... done
Transforming gradient to internals      .... done
Projecting the internal gradient        .... done
Number of atoms                         ....  11
Number of internal coordinates          ....  46
Current Energy                          ....  -193.429552213 Eh
Current gradient norm                   ....     0.092423478 Eh/bohr
Maximum allowed component of the step   ....  0.300
Current trust radius                    ....  0.300
Evaluating the initial hessian          ....  (Almloef) done
Projecting the Hessian                  .... done
Forming the augmented Hessian           .... done
Diagonalizing the augmented Hessian     .... done
Last element of RFO vector              ....  0.961986843
Lowest eigenvalues of augmented Hessian:
 -0.016810249  0.010553065  0.010598599  0.100523971  0.100743827
Length of the computed step             ....  0.283887247
The final length of the internal step   ....  0.283887247
Converting the step to cartesian space:
 Initial RMS(Int)=    0.0418568911
Transforming coordinates:
 Iter   0:  RMS(Cart)=    0.0423501739 RMS(Int)=    1.2981783690
 Iter   1:  RMS(Cart)=    0.0011115101 RMS(Int)=    0.0010370946
 Iter   2:  RMS(Cart)=    0.0000727038 RMS(Int)=    0.0000600857
 Iter   3:  RMS(Cart)=    0.0000034486 RMS(Int)=    0.0000031785
 Iter   4:  RMS(Cart)=    0.0000002269 RMS(Int)=    0.0000002023
 Iter   5:  RMS(Cart)=    0.0000000114 RMS(Int)=    0.0000000085
done
Storing new coordinates                 .... done

                                .--------------------.
          ----------------------|Geometry convergence|-------------------------
          Item                value                   Tolerance       Converged
          ---------------------------------------------------------------------
          RMS gradient        0.0106757059            0.0001000000      NO
          MAX gradient        0.0361619033            0.0003000000      NO
          RMS step            0.0418568911            0.0020000000      NO
          MAX step            0.0904344014            0.0040000000      NO
          ........................................................
          Max(Bonds)      0.0479      Max(Angles)    3.80
          Max(Dihed)        4.60      Max(Improp)    0.00
          ---------------------------------------------------------------------

The optimization has not yet converged - more geometry cycles are needed


    ---------------------------------------------------------------------------
                         Redundant Internal Coordinates
                            (Angstroem and degrees)

        Definition                    Value    dE/dq     Step     New-Value
    ----------------------------------------------------------------------------
     1. B(C   1,C   0)                1.5379 -0.013829  0.0193    1.5572   
     2. B(O   2,C   1)                1.3216 -0.036162  0.0260    1.3476   
     3. B(C   4,C   1)                1.5379 -0.014434  0.0201    1.5580   
     4. B(C   4,H   3)                1.0966 -0.016259  0.0234    1.1200   
     5. B(H   5,C   1)                1.0993 -0.032988  0.0479    1.1472   
     6. B(H   6,C   4)                1.0975 -0.008524  0.0123    1.1098   
     7. B(H   7,C   4)                1.0980 -0.008209  0.0119    1.1098   
     8. B(H   8,C   0)                1.0980 -0.008231  0.0119    1.1099   
     9. B(H   9,C   0)                1.0966 -0.016179  0.0232    1.1198   
    10. B(H  10,C   0)                1.0975 -0.008572  0.0124    1.1099   
    11. A(H   8,C   0,H  10)          107.81 -0.004181   -0.11    107.70   
    12. A(H   9,C   0,H  10)          107.26  0.001733    0.15    107.42   
    13. A(C   1,C   0,H   8)          112.54  0.009213   -1.80    110.74   
    14. A(C   1,C   0,H   9)          110.32 -0.012131    2.49    112.81   
    15. A(C   1,C   0,H  10)          111.41  0.005062   -1.09    110.33   
    16. A(H   8,C   0,H   9)          107.26 -0.000015    0.44    107.69   
    17. A(C   4,C   1,H   5)          105.81  0.000889   -1.94    103.88   
    18. A(O   2,C   1,H   5)          119.81  0.009953   -2.95    116.86   
    19. A(O   2,C   1,C   4)          107.88 -0.011460    3.80    111.68   
    20. A(C   0,C   1,H   5)          105.81  0.000867   -1.95    103.86   
    21. A(C   0,C   1,O   2)          107.88 -0.011095    3.72    111.60   
    22. A(C   0,C   1,C   4)          109.36  0.012569   -0.84    108.52   
    23. A(H   6,C   4,H   7)          107.81 -0.004189   -0.10    107.71   
    24. A(H   3,C   4,H   7)          107.26 -0.000111    0.45    107.70   
    25. A(C   1,C   4,H   7)          112.54  0.009313   -1.81    110.73   
    26. A(H   3,C   4,H   6)          107.26  0.001775    0.14    107.40   
    27. A(C   1,C   4,H   6)          111.41  0.004895   -1.06    110.35   
    28. A(C   1,C   4,H   3)          110.33 -0.012003    2.47    112.79   
    29. D(H   5,C   1,C   0,H   8)   -173.56  0.001568   -0.14   -173.70   
    30. D(C   4,C   1,C   0,H   8)    -60.00  0.008845   -3.76    -63.76   
    31. D(H   5,C   1,C   0,H  10)     65.21 -0.003223    2.06     67.27   
    32. D(H   5,C   1,C   0,H   9)    -53.81 -0.000703    0.93    -52.87   
    33. D(O   2,C   1,C   0,H  10)    -64.15 -0.008985    4.60    -59.55   
    34. D(C   4,C   1,C   0,H  10)    178.77  0.004054   -1.56    177.21   
    35. D(O   2,C   1,C   0,H   9)    176.83 -0.006465    3.47    180.30   
    36. D(O   2,C   1,C   0,H   8)     57.09 -0.004194    2.39     59.48   
    37. D(C   4,C   1,C   0,H   9)     59.75  0.006574   -2.69     57.07   
    38. D(H   6,C   4,C   1,O   2)     64.25  0.008794   -4.52     59.73   
    39. D(H   6,C   4,C   1,C   0)   -178.67 -0.004015    1.58   -177.08   
    40. D(H   3,C   4,C   1,H   5)     53.91  0.000759   -0.93     52.98   
    41. D(H   3,C   4,C   1,O   2)   -176.73  0.006305   -3.41   -180.14   
    42. D(H   6,C   4,C   1,H   5)    -65.11  0.003248   -2.05    -67.15   
    43. D(H   3,C   4,C   1,C   0)    -59.65 -0.006504    2.69    -56.95   
    44. D(H   7,C   4,C   1,H   5)    173.67 -0.001480    0.13    173.80   
    45. D(H   7,C   4,C   1,O   2)    -56.97  0.004066   -2.34    -59.32   
    46. D(H   7,C   4,C   1,C   0)     60.11 -0.008743    3.76     63.87   
    ----------------------------------------------------------------------------

         *************************************************************
         *                GEOMETRY OPTIMIZATION CYCLE   2            *
         *************************************************************
---------------------------------
CARTESIAN COORDINATES (ANGSTROEM)
---------------------------------
  C     -3.696087   -3.991181   -2.676694
  C     -4.236462   -2.612287   -3.157778
  O     -3.265239   -1.678200   -3.171653
  H     -6.239654   -2.958387   -2.208169
  C     -5.418932   -2.196720   -2.232301
  H     -4.742715   -2.850746   -4.159224
  H     -5.863099   -1.240933   -2.579965
  H     -5.067578   -2.045530   -1.190463
  H     -3.277031   -3.912943   -1.651964
  H     -4.484887   -4.785939   -2.662412
  H     -2.883587   -4.341438   -3.346771

----------------------------
CARTESIAN COORDINATES (A.U.)
----------------------------
  NO LB      ZA    FRAG     MASS         X           Y           Z
   0 C     6.0000    0    12.011   -6.984592   -7.542239   -5.058219
   1 C     6.0000    0    12.011   -8.005754   -4.936506   -5.967336
   2 O     8.0000    0    15.999   -6.170407   -3.171339   -5.993556
   3 H     1.0000    0     1.008  -11.791237   -5.590542   -4.172835
   4 C     6.0000    0    12.011  -10.240298   -4.151199   -4.218437
   5 H     1.0000    0     1.008   -8.962433   -5.387130   -7.859794
   6 H     1.0000    0     1.008  -11.079652   -2.345024   -4.875426
   7 H     1.0000    0     1.008   -9.576334   -3.865492   -2.249648
   8 H     1.0000    0     1.008   -6.192691   -7.394391   -3.121760
   9 H     1.0000    0     1.008   -8.475209   -9.044115   -5.031229
  10 H     1.0000    0     1.008   -5.449189   -8.204129   -6.324481

--------------------------------
INTERNAL COORDINATES (ANGSTROEM)
--------------------------------
 C      0   0   0     0.000000000000     0.00000000     0.00000000
 C      1   0   0     1.557176248367     0.00000000     0.00000000
 O      2   1   0     1.347584940813   111.52288019     0.00000000
 H      2   1   3     2.243729024426    92.43429444   214.02447980
 C      4   2   1     1.119957211789    39.80044089   127.26115950
 H      2   1   3     1.147191584433   103.81402310   126.76879470
 H      5   4   2     1.109811650394   107.40739367   121.78496664
 H      5   4   2     1.109835538469   107.72303566   237.51040220
 H      1   2   3     1.109865128770   110.72311738    59.52315310
 H      1   2   3     1.119844037039   112.82718743   180.32958532
 H      1   2   3     1.109882589781   110.30198405   300.46583400

---------------------------
INTERNAL COORDINATES (A.U.)
---------------------------
 C      0   0   0     0.000000000000     0.00000000     0.00000000
 C      1   0   0     2.942636651661     0.00000000     0.00000000
 O      2   1   0     2.546566480333   111.52288019     0.00000000
 H      2   1   3     4.240033374895    92.43429444   214.02447980
 C      4   2   1     2.116412411991    39.80044089   127.26115950
 H      2   1   3     2.167877917717   103.81402310   126.76879470
 H      5   4   2     2.097240079481   107.40739367   121.78496664
 H      5   4   2     2.097285221400   107.72303566   237.51040220
 H      1   2   3     2.097341138964   110.72311738    59.52315310
 H      1   2   3     2.116198542708   112.82718743   180.32958532
 H      1   2   3     2.097374135493   110.30198405   300.46583400

------------------------------------------------------------------------------
                   ___                                                        
                  /   \      - P O W E R E D   B Y -                         
                 /     \                                                     
                 |  |  |   _    _      __       _____    __    __             
                 |  |  |  | |  | |    /  \     |  _  \  |  |  /  |          
                  \  \/   | |  | |   /    \    | | | |  |  | /  /          
                 / \  \   | |__| |  /  /\  \   | |_| |  |  |/  /          
                |  |  |   |  __  | /  /__\  \  |    /   |      \           
                |  |  |   | |  | | |   __   |  |    \   |  |\   \          
                \     /   | |  | | |  |  |  |  | |\  \  |  | \   \       
                 \___/    |_|  |_| |__|  |__|  |_| \__\ |__|  \__/        
                                                                              
                      - O R C A' S   B I G   F R I E N D -                    
                                      &                                       
                       - I N T E G R A L  F E E D E R -                       
                                                                              
 v1 FN, 2020, v2 2021                                                         
------------------------------------------------------------------------------


Reading SHARK input file inp.SHARKINP.tmp ... ok
----------------------
SHARK INTEGRAL PACKAGE
----------------------

Number of atoms                             ...     11
Number of basis functions                   ...     91
Number of shells                            ...     45
Maximum angular momentum                    ...      2
Integral batch strategy                     ... SHARK/LIBINT Hybrid
RI-J (if used) integral strategy            ... SPLIT-RIJ (Revised 2003 algorithm where possible)
Printlevel                                  ...      1
Contraction scheme used                     ... SEGMENTED contraction
Coulomb Range Separation                    ... NOT USED
Exchange Range Separation                   ... NOT USED
Finite Nucleus Model                        ... NOT USED
Auxiliary Coulomb fitting basis             ... AVAILABLE
   # of basis functions in Aux-J            ...    273
   # of shells in Aux-J                     ...     95
   Maximum angular momentum in Aux-J        ...      4
Auxiliary J/K fitting basis                 ... NOT available
Auxiliary Correlation fitting basis         ... NOT available
Auxiliary 'external' fitting basis          ... NOT available
Integral threshold                          ...     2.500000e-11
Primitive cut-off                           ...     2.500000e-12
Primitive pair pre-selection threshold      ...     2.500000e-12

Calculating pre-screening integrals         ... done (  0.0 sec) Dimension = 45
Organizing shell pair data                  ... done (  0.0 sec)
Shell pair information
Total number of shell pairs                 ...      1035
Shell pairs after pre-screening             ...      1028
Total number of primitive shell pairs       ...      3559
Primitive shell pairs kept                  ...      2925
          la=0 lb=0:    348 shell pairs
          la=1 lb=0:    386 shell pairs
          la=1 lb=1:    120 shell pairs
          la=2 lb=0:    104 shell pairs
          la=2 lb=1:     60 shell pairs
          la=2 lb=2:     10 shell pairs

Calculating one electron integrals          ... done (  0.0 sec)
Calculating RI/J V-Matrix + Cholesky decomp.... done (  0.2 sec)
Calculating Nuclear repulsion               ... done (  0.0 sec) ENN=    124.897217502206 Eh

SHARK setup successfully completed in   0.8 seconds

Maximum memory used throughout the entire GTOINT-calculation: 9.8 MB

Diagonalization of the overlap matrix:
Smallest eigenvalue                        ... 2.770e-03
Time for diagonalization                   ...    0.002 sec
Threshold for overlap eigenvalues          ... 1.000e-08
Number of eigenvalues below threshold      ... 0
Time for construction of square roots      ...    0.035 sec
Total time needed                          ...    0.037 sec

-------------------
DFT GRID GENERATION
-------------------

General Integration Accuracy     IntAcc      ... 4.388
Radial Grid Type                 RadialGrid  ... OptM3 with GC (2021)
Angular Grid (max. ang.)         AngularGrid ... 4 (Lebedev-302)
Angular grid pruning method      GridPruning ... 4 (adaptive)
Weight generation scheme         WeightScheme... Becke
Basis function cutoff            BFCut       ... 1.0000e-11
Integration weight cutoff        WCut        ... 1.0000e-14
Angular grids for H and He will be reduced by one unit
Partially contracted basis set               ... off
Rotationally invariant grid construction     ... off

Total number of grid points                  ...    46955
Total number of batches                      ...      741
Average number of points per batch           ...       63
Average number of grid points per atom       ...     4269
Time for grid setup =    0.476 sec


--------------------
CPCM SOLVATION MODEL
--------------------
CPCM parameters:
  Epsilon                                         ...      80.4000
  Refrac                                          ...       1.3300
  Rsolv                                           ...       1.3000
  Surface type                                    ... GAUSSIAN VDW
  Epsilon function type                           ...         CPCM
Radii:
 Radius for C  used is    3.8550 Bohr (=   2.0400 Ang.)
 Radius for O  used is    3.4469 Bohr (=   1.8240 Ang.)
 Radius for H  used is    2.4944 Bohr (=   1.3200 Ang.)
Calculating surface                               ...        done! (  0.0s)
GEPOL surface points                              ...          668
GEPOL Volume                                      ...     606.2385
GEPOL Surface-area                                ...     392.3095
Calculating surface distance matrix               ...        done! (  0.0s)
Performing Cholesky decomposition & store         ...        done! (  0.1s)
Overall time for CPCM initialization              ...                 0.1s
--------------
SCF ITERATIONS
--------------
ITER       Energy         Delta-E        Max-DP      RMS-DP      [F,P]     Damp
               ***  Starting incremental Fock matrix formation  ***
  0   -193.4297161072   0.000000000000 0.00747255  0.00046522  0.0158251 0.7000
                      *** Initiating the SOSCF procedure ***
                      *** Re-Reading the Fockian *** 
                      *** Removing any level shift *** 
ITER      Energy       Delta-E        Grad      Rot      Max-DP    RMS-DP
  1   -193.43063410  -0.0009179960  0.002148  0.002148  0.024894  0.001525
               *** Restarting incremental Fock matrix formation ***
  2   -193.43281562  -0.0021815161  0.001757  0.003061  0.010806  0.000547
  3   -193.43272622   0.0000893983  0.003512  0.002320  0.012019  0.000427
  4   -193.43287945  -0.0001532296  0.000489  0.001197  0.005143  0.000177
  5   -193.43287729   0.0000021631  0.000515  0.000595  0.002862  0.000094
  6   -193.43288308  -0.0000057938  0.000047  0.000085  0.000277  0.000014
  7   -193.43288315  -0.0000000683  0.000041  0.000038  0.000116  0.000006
  8   -193.43288322  -0.0000000721  0.000003  0.000005  0.000013  0.000001
  9   -193.43288322  -0.0000000003  0.000003  0.000003  0.000008  0.000000
                  ***Gradient check signals convergence***
              ***Rediagonalizing the Fockian in SOSCF/NRSCF***

               *****************************************************
               *                     SUCCESS                       *
               *           SCF CONVERGED AFTER  10 CYCLES          *
               *****************************************************

Total Energy       :         -193.43288322 Eh           -5263.57635 eV
  Last Energy change         ...   -4.9832e-10  Tolerance :   1.0000e-08
  Last MAX-Density change    ...    1.5765e-06  Tolerance :   1.0000e-07
             **** THE GBW FILE WAS UPDATED (inp.gbw) ****
             **** DENSITY inp.scfp WAS UPDATED ****
             **** ENERGY FILE WAS UPDATED (inp.en.tmp) ****
             **** THE GBW FILE WAS UPDATED (inp.gbw) ****
             **** DENSITY inp.scfp WAS UPDATED ****
Total SCF time: 0 days 0 hours 0 min 12 sec 

Maximum memory used throughout the entire SCF-calculation: 24.3 MB


-------------------------------------------------------------------------------
                          DFT DISPERSION CORRECTION                            
                                                                               
                              DFTD3 V3.1  Rev 1                                
                          USING Becke-Johnson damping                          
-------------------------------------------------------------------------------
-------------------------   ----------------
Dispersion correction           -0.006618792
-------------------------   ----------------


-------------------------   --------------------
FINAL SINGLE POINT ENERGY      -193.439502014618
-------------------------   --------------------

------------------------------------------------------------------------------
                         ORCA SCF GRADIENT CALCULATION
------------------------------------------------------------------------------

Gradient of the Kohn-Sham DFT energy:
Kohn-Sham wavefunction type      ... RKS
Hartree-Fock exchange scaling    ...    0.000
Number of operators              ...    1
Number of atoms                  ...   11
Basis set dimensions             ...   91
Integral neglect threshold       ... 2.5e-11
Integral primitive cutoff        ... 2.5e-12
SHARK Integral package           ... ON

Nuc. rep. gradient       (SHARK) ... done (  0.0 sec)
HCore & Overlap gradient (SHARK) ... done (  0.0 sec)
RI-J gradient            (SHARK) ... done (  0.3 sec)
Exchange-correlation gradient    ... done
Dispersion correction            ... done

------------------
CARTESIAN GRADIENT
------------------

   1   C   :    0.010235026    0.008607457    0.002925450
   2   C   :   -0.018396350   -0.013093135   -0.017653564
   3   O   :    0.004413355    0.002538863    0.006884562
   4   H   :    0.000290860   -0.001875492   -0.000892194
   5   C   :    0.009887912    0.009061916    0.003038928
   6   H   :    0.002692001    0.000741453    0.007333753
   7   H   :   -0.001497301   -0.001614636    0.000519355
   8   H   :   -0.003074399   -0.000742981   -0.000933737
   9   H   :   -0.001122703   -0.002643608   -0.001421768
  10   H   :   -0.001933083    0.000601087   -0.000357378
  11   H   :   -0.001495319   -0.001580923    0.000556593

Difference to translation invariance:
           :   -0.0000000000    0.0000000000    0.0000000000

Difference to rotation invariance:
           :   -0.0002334078    0.0002980166    0.0007082469

Norm of the cartesian gradient     ...    0.0370522071
RMS gradient                       ...    0.0064499614
MAX gradient                       ...    0.0183963498

-------
TIMINGS
-------

Total SCF gradient time            ...        2.554 sec

One electron gradient       ....       0.043 sec  (  1.7%)
RI-J Coulomb gradient       ....       0.261 sec  ( 10.2%)
XC gradient                 ....       1.772 sec  ( 69.4%)
CPCM gradient               ....       0.145 sec  (  5.7%)
   A-Matrix (El+Nuc)        ....       0.026 sec  (  1.0%)
   Potential                ....       0.119 sec  (  4.7%)

Maximum memory used throughout the entire SCFGRAD-calculation: 31.6 MB
------------------------------------------------------------------------------
                         ORCA GEOMETRY RELAXATION STEP
------------------------------------------------------------------------------

Reading the OPT-File                    .... done
Getting information on internals        .... done
Copying old internal coords+grads       .... done
Making the new internal coordinates     .... (new redundants).... done
Validating the new internal coordinates .... (new redundants).... done
Calculating the B-matrix                .... done
Calculating the G,G- and P matrices     .... done
Transforming gradient to internals      .... done
Projecting the internal gradient        .... done
Number of atoms                         ....  11
Number of internal coordinates          ....  46
Current Energy                          ....  -193.439502015 Eh
Current gradient norm                   ....     0.037052207 Eh/bohr
Maximum allowed component of the step   ....  0.300
Current trust radius                    ....  0.300
Updating the Hessian (BFGS)             .... done
Forming the augmented Hessian           .... done
Diagonalizing the augmented Hessian     .... done
Last element of RFO vector              ....  0.992032989
Lowest eigenvalues of augmented Hessian:
 -0.001743296  0.010553096  0.010588122  0.090300036  0.100743715
Length of the computed step             ....  0.126990098
The final length of the internal step   ....  0.126990098
Converting the step to cartesian space:
 Initial RMS(Int)=    0.0187236684
Transforming coordinates:
 Iter   0:  RMS(Cart)=    0.0143912263 RMS(Int)=    0.0187413707
 Iter   1:  RMS(Cart)=    0.0002936705 RMS(Int)=    0.0002263502
 Iter   2:  RMS(Cart)=    0.0000053620 RMS(Int)=    0.0000043441
 Iter   3:  RMS(Cart)=    0.0000001300 RMS(Int)=    0.0000001196
 Iter   4:  RMS(Cart)=    0.0000000031 RMS(Int)=    0.0000000022
done
Storing new coordinates                 .... done

                                .--------------------.
          ----------------------|Geometry convergence|-------------------------
          Item                value                   Tolerance       Converged
          ---------------------------------------------------------------------
          Energy change      -0.0099498014            0.0000050000      NO
          RMS gradient        0.0025214565            0.0001000000      NO
          MAX gradient        0.0077563102            0.0003000000      NO
          RMS step            0.0187236684            0.0020000000      NO
          MAX step            0.0467303951            0.0040000000      NO
          ........................................................
          Max(Bonds)      0.0162      Max(Angles)    1.55
          Max(Dihed)        2.68      Max(Improp)    0.00
          ---------------------------------------------------------------------

The optimization has not yet converged - more geometry cycles are needed


    ---------------------------------------------------------------------------
                         Redundant Internal Coordinates
                            (Angstroem and degrees)

        Definition                    Value    dE/dq     Step     New-Value
    ----------------------------------------------------------------------------
     1. B(C   1,C   0)                1.5572 -0.001897  0.0040    1.5612   
     2. B(O   2,C   1)                1.3476  0.004880 -0.0036    1.3440   
     3. B(C   4,C   1)                1.5580 -0.001956  0.0042    1.5622   
     4. B(C   4,H   3)                1.1200  0.001031 -0.0013    1.1187   
     5. B(H   5,C   1)                1.1472 -0.007756  0.0162    1.1634   
     6. B(H   6,C   4)                1.1098 -0.000947  0.0021    1.1120   
     7. B(H   7,C   4)                1.1098 -0.001950  0.0040    1.1139   
     8. B(H   8,C   0)                1.1099 -0.001932  0.0040    1.1139   
     9. B(H   9,C   0)                1.1198  0.000950 -0.0011    1.1187   
    10. B(H  10,C   0)                1.1099 -0.000938  0.0021    1.1120   
    11. A(H   8,C   0,H  10)          107.65 -0.001410   -0.25    107.41   
    12. A(H   9,C   0,H  10)          107.42 -0.000063    0.37    107.79   
    13. A(C   1,C   0,H   8)          110.72  0.003910   -1.10    109.63   
    14. A(C   1,C   0,H   9)          112.83 -0.004261    1.31    114.14   
    15. A(C   1,C   0,H  10)          110.30  0.002350   -0.69    109.61   
    16. A(H   8,C   0,H   9)          107.71 -0.000607    0.42    108.13   
    17. A(C   4,C   1,H   5)          103.83  0.000165   -0.73    103.10   
    18. A(O   2,C   1,H   5)          116.95  0.003191   -1.39    115.55   
    19. A(O   2,C   1,C   4)          111.61 -0.003407    1.54    113.15   
    20. A(C   0,C   1,H   5)          103.81  0.000135   -0.72    103.09   
    21. A(C   0,C   1,O   2)          111.52 -0.003421    1.55    113.07   
    22. A(C   0,C   1,C   4)          108.42  0.004038   -0.37    108.05   
    23. A(H   6,C   4,H   7)          107.67 -0.001402   -0.25    107.42   
    24. A(H   3,C   4,H   7)          107.72 -0.000687    0.43    108.16   
[...]
Overall time for CPCM initialization              ...                 0.2s
--------------
SCF ITERATIONS
--------------
ITER       Energy         Delta-E        Max-DP      RMS-DP      [F,P]     Damp
               ***  Starting incremental Fock matrix formation  ***
                      *** Initiating the SOSCF procedure ***
                      *** Re-Reading the Fockian *** 
                      *** Removing any level shift *** 
ITER      Energy       Delta-E        Grad      Rot      Max-DP    RMS-DP
  0   -193.43426901 -193.4342690078  0.000130  0.000130  0.000518  0.000019
               *** Restarting incremental Fock matrix formation ***
  1   -193.43426929  -0.0000002777  0.000045  0.000114  0.000387  0.000015
  2   -193.43426921   0.0000000746  0.000095  0.000075  0.000383  0.000013
  3   -193.43426933  -0.0000001180  0.000005  0.000016  0.000074  0.000002
  4   -193.43426933  -0.0000000004  0.000005  0.000006  0.000032  0.000001
                  ***Gradient check signals convergence***
              ***Rediagonalizing the Fockian in SOSCF/NRSCF***

               *****************************************************
               *                     SUCCESS                       *
               *           SCF CONVERGED AFTER   5 CYCLES          *
               *****************************************************


----------------
TOTAL SCF ENERGY
----------------

Total Energy       :         -193.43426933 Eh           -5263.61407 eV

Components:
Nuclear Repulsion  :          124.71922009 Eh            3393.78252 eV
Electronic Energy  :         -318.15348942 Eh           -8657.39658 eV
One Electron Energy:         -517.16007520 Eh          -14072.64109 eV
Two Electron Energy:          199.00658578 Eh            5415.24450 eV
CPCM Dielectric    :           -0.10623840 Eh              -2.89089 eV

Virial components:
Potential Energy   :         -384.85357850 Eh          -10472.39828 eV
Kinetic Energy     :          191.41930917 Eh            5208.78421 eV
Virial Ratio       :            2.01052642


DFT components:
N(Alpha)           :       17.000011238862 electrons
N(Beta)            :       17.000011238862 electrons
N(Total)           :       34.000022477724 electrons
E(X)               :      -26.304329975341 Eh       
E(C)               :       -1.109733303544 Eh       
E(XC)              :      -27.414063278885 Eh       
DFET-embed. en.    :        0.000000000000 Eh       
CPCM Solvation Model Properties:
Surface-charge          :            0.96958237
Charge-correction       :           -0.00544942 Eh              -0.14829 eV
Free-energy (cav+disp)  :  This term is not implemented in the current solvation scheme

---------------
SCF CONVERGENCE
---------------

  Last Energy change         ...   -7.5360e-10  Tolerance :   1.0000e-08
  Last MAX-Density change    ...    4.1236e-06  Tolerance :   1.0000e-07
  Last RMS-Density change    ...    2.5294e-07  Tolerance :   5.0000e-09
  Last Orbital Gradient      ...    7.6655e-07  Tolerance :   1.0000e-05
  Last Orbital Rotation      ...    1.6754e-06  Tolerance :   1.0000e-05

             **** THE GBW FILE WAS UPDATED (inp.gbw) ****
             **** DENSITY inp.scfp WAS UPDATED ****
             **** ENERGY FILE WAS UPDATED (inp.en.tmp) ****
             **** THE GBW FILE WAS UPDATED (inp.gbw) ****
             **** DENSITY inp.scfp WAS UPDATED ****
----------------
ORBITAL ENERGIES
----------------

  NO   OCC          E(Eh)            E(eV) 
   0   2.0000     -18.597404      -506.0611 
   1   2.0000      -9.886913      -269.0366 
   2   2.0000      -9.853436      -268.1256 
   3   2.0000      -9.853351      -268.1233 
   4   2.0000      -0.774881       -21.0856 
   5   2.0000      -0.615031       -16.7358 
   6   2.0000      -0.570925       -15.5357 
   7   2.0000      -0.439130       -11.9493 
   8   2.0000      -0.361382        -9.8337 
   9   2.0000      -0.333890        -9.0856 
  10   2.0000      -0.329746        -8.9728 
  11   2.0000      -0.304815        -8.2944 
  12   2.0000      -0.261646        -7.1197 
  13   2.0000      -0.257897        -7.0177 
  14   2.0000      -0.242135        -6.5888 
  15   2.0000      -0.100139        -2.7249 
  16   2.0000      -0.098753        -2.6872 
  17   0.0000       0.057789         1.5725 
  18   0.0000       0.094124         2.5612 
  19   0.0000       0.102764         2.7963 
  20   0.0000       0.113757         3.0955 
  21   0.0000       0.130742         3.5577 
  22   0.0000       0.147196         4.0054 
  23   0.0000       0.157308         4.2806 
  24   0.0000       0.209791         5.7087 
  25   0.0000       0.248357         6.7581 
  26   0.0000       0.259672         7.0660 
  27   0.0000       0.390661        10.6304 
  28   0.0000       0.427529        11.6337 
  29   0.0000       0.480575        13.0771 
  30   0.0000       0.483659        13.1610 
  31   0.0000       0.536656        14.6032 
  32   0.0000       0.576333        15.6828 
  33   0.0000       0.593608        16.1529 
  34   0.0000       0.596712        16.2374 
  35   0.0000       0.597839        16.2680 
  36   0.0000       0.612681        16.6719 
  37   0.0000       0.621838        16.9211 
  38   0.0000       0.649583        17.6760 
  39   0.0000       0.654388        17.8068 
  40   0.0000       0.669622        18.2213 
  41   0.0000       0.691652        18.8208 
  42   0.0000       0.697054        18.9678 
  43   0.0000       0.725678        19.7467 
  44   0.0000       0.888907        24.1884 
  45   0.0000       0.966015        26.2866 
  46   0.0000       0.970763        26.4158 
  47   0.0000       1.063891        28.9500 
  48   0.0000       1.101022        29.9603 
  49   0.0000       1.178254        32.0619 
  50   0.0000       1.203485        32.7485 
  51   0.0000       1.277458        34.7614 
  52   0.0000       1.360205        37.0130 
  53   0.0000       1.448884        39.4261 
  54   0.0000       1.479548        40.2605 
  55   0.0000       1.488460        40.5031 
  56   0.0000       1.503360        40.9085 
  57   0.0000       1.605375        43.6845 
  58   0.0000       1.674617        45.5687 
  59   0.0000       1.720485        46.8168 
  60   0.0000       1.725468        46.9524 
  61   0.0000       1.742559        47.4174 
  62   0.0000       1.761661        47.9372 
  63   0.0000       1.766395        48.0661 
  64   0.0000       1.825835        49.6835 
  65   0.0000       1.826373        49.6981 
  66   0.0000       1.861101        50.6431 
  67   0.0000       1.902119        51.7593 
  68   0.0000       1.918016        52.1919 
  69   0.0000       2.021467        55.0069 
  70   0.0000       2.080502        56.6133 
  71   0.0000       2.146259        58.4027 
  72   0.0000       2.177778        59.2604 
  73   0.0000       2.285271        62.1854 
  74   0.0000       2.345989        63.8376 
  75   0.0000       2.383520        64.8589 
  76   0.0000       2.434379        66.2428 
  77   0.0000       2.468604        67.1741 
  78   0.0000       2.526065        68.7377 
  79   0.0000       2.608001        70.9673 
  80   0.0000       2.660832        72.4049 
  81   0.0000       2.689982        73.1981 
  82   0.0000       2.729802        74.2817 
  83   0.0000       2.784192        75.7617 
  84   0.0000       2.849070        77.5271 
  85   0.0000       2.896783        78.8255 
  86   0.0000       2.899289        78.8937 
  87   0.0000       2.915621        79.3381 
  88   0.0000       3.166002        86.1513 
  89   0.0000       3.172762        86.3352 
  90   0.0000       3.493628        95.0665 

                    ********************************
                    * MULLIKEN POPULATION ANALYSIS *
                    ********************************

-----------------------
MULLIKEN ATOMIC CHARGES
-----------------------
   0 C :   -0.026204
   1 C :    0.045806
   2 O :   -0.646339
   3 H :   -0.030578
   4 C :   -0.026940
   5 H :   -0.166549
   6 H :   -0.025655
   7 H :   -0.033409
   8 H :   -0.033760
   9 H :   -0.030846
  10 H :   -0.025525
Sum of atomic charges:   -1.0000000

--------------------------------
MULLIKEN REDUCED ORBITAL CHARGES
--------------------------------
  0 C s       :     3.021552  s :     3.021552
      pz      :     0.996481  p :     2.980603
      px      :     0.985599
      py      :     0.998523
      dz2     :     0.005682  d :     0.024049
      dxz     :     0.005613
      dyz     :     0.002722
      dx2y2   :     0.003131
      dxy     :     0.006901
  1 C s       :     3.081071  s :     3.081071
      pz      :     0.966918  p :     2.788994
      px      :     0.906314
      py      :     0.915763
      dz2     :     0.009343  d :     0.084128
      dxz     :     0.019234
      dyz     :     0.013024
      dx2y2   :     0.025408
      dxy     :     0.017119
  2 O s       :     3.796453  s :     3.796453
      pz      :     1.749301  p :     4.839428
      px      :     1.534517
      py      :     1.555611
      dz2     :     0.001357  d :     0.010457
      dxz     :     0.001390
      dyz     :     0.001258
      dx2y2   :     0.002430
      dxy     :     0.004022
  3 H s       :     1.008478  s :     1.008478
      pz      :     0.004797  p :     0.022100
      px      :     0.008973
      py      :     0.008330
  4 C s       :     3.021949  s :     3.021949
      pz      :     1.013084  p :     2.980965
      px      :     0.986806
      py      :     0.981075
      dz2     :     0.008017  d :     0.024026
      dxz     :     0.003707
      dyz     :     0.001952
      dx2y2   :     0.003052
      dxy     :     0.007299
  5 H s       :     1.149136  s :     1.149136
      pz      :     0.008864  p :     0.017414
      px      :     0.004801
      py      :     0.003749
  6 H s       :     1.003297  s :     1.003297
      pz      :     0.005746  p :     0.022358
      px      :     0.005842
      py      :     0.010770
  7 H s       :     1.010920  s :     1.010920
      pz      :     0.011296  p :     0.022490
      px      :     0.005710
      py      :     0.005483
  8 H s       :     1.011266  s :     1.011266
      pz      :     0.011398  p :     0.022494
      px      :     0.006300
      py      :     0.004796
  9 H s       :     1.008748  s :     1.008748
      pz      :     0.005109  p :     0.022099
      px      :     0.008498
      py      :     0.008491
 10 H s       :     1.003179  s :     1.003179
      pz      :     0.007844  p :     0.022346
      px      :     0.009241
      py      :     0.005262


                     *******************************
                     * LOEWDIN POPULATION ANALYSIS *
                     *******************************

----------------------
LOEWDIN ATOMIC CHARGES
----------------------
   0 C :   -0.128399
   1 C :   -0.034829
   2 O :   -0.612064
   3 H :   -0.000897
   4 C :   -0.128671
   5 H :   -0.089197
   6 H :    0.000049
   7 H :   -0.002533
   8 H :   -0.002639
   9 H :   -0.001023
  10 H :    0.000204

-------------------------------
LOEWDIN REDUCED ORBITAL CHARGES
-------------------------------
  0 C s       :     2.897756  s :     2.897756
      pz      :     1.058966  p :     3.165159
      px      :     1.055863
      py      :     1.050329
      dz2     :     0.015729  d :     0.065485
      dxz     :     0.015382
      dyz     :     0.006609
      dx2y2   :     0.008946
      dxy     :     0.018819
  1 C s       :     2.860659  s :     2.860659
      pz      :     1.008790  p :     2.965990
      px      :     0.976762
      py      :     0.980438
      dz2     :     0.022855  d :     0.208181
      dxz     :     0.052065
      dyz     :     0.030028
      dx2y2   :     0.060640
      dxy     :     0.042592
  2 O s       :     3.609647  s :     3.609647
      pz      :     1.775001  p :     4.982864
      px      :     1.598065
      py      :     1.609798
      dz2     :     0.002977  d :     0.019552
      dxz     :     0.002094
      dyz     :     0.001851
      dx2y2   :     0.003802
      dxy     :     0.008827
  3 H s       :     0.934715  s :     0.934715
      pz      :     0.012969  p :     0.066183
      px      :     0.030045
      py      :     0.023169
  4 C s       :     2.897885  s :     2.897885
      pz      :     1.062518  p :     3.165372
      px      :     1.048527
      py      :     1.054327
      dz2     :     0.019548  d :     0.065414
      dxz     :     0.012213
      dyz     :     0.005345
      dx2y2   :     0.008639
      dxy     :     0.019669
  5 H s       :     1.031455  s :     1.031455
      pz      :     0.029476  p :     0.057742
      px      :     0.016544
      py      :     0.011723
  6 H s       :     0.935244  s :     0.935244
      pz      :     0.015147  p :     0.064707
      px      :     0.016098
      py      :     0.033462
  7 H s       :     0.937554  s :     0.937554
      pz      :     0.036526  p :     0.064979
      px      :     0.015550
      py      :     0.012903
  8 H s       :     0.937674  s :     0.937674
      pz      :     0.034944  p :     0.064965
      px      :     0.016753
      py      :     0.013268
  9 H s       :     0.934851  s :     0.934851
      pz      :     0.012379  p :     0.066173
      px      :     0.024046
      py      :     0.029747
 10 H s       :     0.935114  s :     0.935114
      pz      :     0.021054  p :     0.064683
      px      :     0.028332
      py      :     0.015296


                      *****************************
                      * MAYER POPULATION ANALYSIS *
                      *****************************

  NA   - Mulliken gross atomic population
  ZA   - Total nuclear charge
  QA   - Mulliken gross atomic charge
  VA   - Mayer's total valence
  BVA  - Mayer's bonded valence
  FA   - Mayer's free valence

  ATOM       NA         ZA         QA         VA         BVA        FA
  0 C      6.0262     6.0000    -0.0262     3.7861     3.7861     0.0000
  1 C      5.9542     6.0000     0.0458     4.4209     4.4209    -0.0000
  2 O      8.6463     8.0000    -0.6463     1.7901     1.7901     0.0000
  3 H      1.0306     1.0000    -0.0306     0.9952     0.9952    -0.0000
  4 C      6.0269     6.0000    -0.0269     3.7865     3.7865     0.0000
  5 H      1.1665     1.0000    -0.1665     0.9137     0.9137    -0.0000
  6 H      1.0257     1.0000    -0.0257     1.0109     1.0109     0.0000
  7 H      1.0334     1.0000    -0.0334     1.0185     1.0185    -0.0000
  8 H      1.0338     1.0000    -0.0338     1.0184     1.0184     0.0000
  9 H      1.0308     1.0000    -0.0308     0.9952     0.9952     0.0000
 10 H      1.0255     1.0000    -0.0255     1.0111     1.0111     0.0000

  Mayer bond orders larger than 0.100000
B(  0-C ,  1-C ) :   0.9817 B(  0-C ,  8-H ) :   0.9487 B(  0-C ,  9-H ) :   0.9357 
B(  0-C , 10-H ) :   0.9574 B(  1-C ,  2-O ) :   1.5635 B(  1-C ,  4-C ) :   0.9815 
B(  1-C ,  5-H ) :   0.8122 B(  3-H ,  4-C ) :   0.9359 B(  4-C ,  6-H ) :   0.9574 
B(  4-C ,  7-H ) :   0.9487 

-------
TIMINGS
-------

Total SCF time: 0 days 0 hours 0 min 7 sec 

Total time                  ....       7.334 sec
Sum of individual times     ....       6.204 sec  ( 84.6%)

Fock matrix formation       ....       5.533 sec  ( 75.4%)
  Split-RI-J                ....       0.409 sec  (  7.4% of F)
  XC integration            ....       2.984 sec  ( 53.9% of F)
    Basis function eval.    ....       0.785 sec  ( 26.3% of XC)
    Density eval.           ....       0.351 sec  ( 11.8% of XC)
    XC-Functional eval.     ....       0.243 sec  (  8.2% of XC)
    XC-Potential eval.      ....       0.281 sec  (  9.4% of XC)
Diagonalization             ....       0.001 sec  (  0.0%)
Density matrix formation    ....       0.001 sec  (  0.0%)
Population analysis         ....       0.154 sec  (  2.1%)
Initial guess               ....       0.003 sec  (  0.0%)
Orbital Transformation      ....       0.000 sec  (  0.0%)
Orbital Orthonormalization  ....       0.002 sec  (  0.0%)
DIIS solution               ....       0.000 sec  (  0.0%)
SOSCF solution              ....       0.119 sec  (  1.6%)
Grid generation             ....       0.393 sec  (  5.4%)

Maximum memory used throughout the entire SCF-calculation: 24.2 MB


-------------------------------------------------------------------------------
                          DFT DISPERSION CORRECTION                            
                                                                               
                              DFTD3 V3.1  Rev 1                                
                          USING Becke-Johnson damping                          
-------------------------------------------------------------------------------
The PBE functional is recognized
Active option DFTDOPT                   ...         4   

molecular C6(AA) [au] = 819.925695 


            DFT-D V3
 parameters
 s6 scaling factor         :     1.0000 
 a1 scaling factor         :     0.4289 
 s8 scaling factor         :     0.7875 
 a2 scaling factor         :     4.4407 
 ad hoc parameters k1-k3   :    16.0000     1.3333    -4.0000 

 Edisp/kcal,au: -4.147744696832  -0.006609851207 
 E6   /kcal   :  -3.005300126 
 E8   /kcal   :  -1.142444570 
 % E8         :  27.543753386 

-------------------------   ----------------
Dispersion correction           -0.006609851
-------------------------   ----------------


-------------------------   --------------------
FINAL SINGLE POINT ENERGY      -193.440879181247
-------------------------   --------------------

                                *** OPTIMIZATION RUN DONE ***

                            ***************************************
                            *     ORCA property calculations      *
                            ***************************************

                                    ---------------------
                                    Active property flags
                                    ---------------------
   (+) Dipole Moment


------------------------------------------------------------------------------
                       ORCA ELECTRIC PROPERTIES CALCULATION
------------------------------------------------------------------------------

Dipole Moment Calculation                       ... on
Quadrupole Moment Calculation                   ... off
Polarizability Calculation                      ... off
GBWName                                         ... inp.gbw
Electron density                                ... inp.scfp
The origin for moment calculation is the CENTER OF MASS  = (-7.855949, -4.956759 -5.304428)

-------------
DIPOLE MOMENT
-------------
                                X             Y             Z
Electronic contribution:      2.23937       2.42158      -1.10916
Nuclear contribution   :     -3.21531      -3.51608       1.74320
                        -----------------------------------------
Total Dipole Moment    :     -0.97593      -1.09450       0.63405
                        -----------------------------------------
Magnitude (a.u.)       :      1.59762
Magnitude (Debye)      :      4.06082



--------------------
Rotational spectrum 
--------------------
 
Rotational constants in cm-1:     0.298450     0.271377     0.161979 
Rotational constants in MHz :  8947.308433  8135.691568  4856.010975 

 Dipole components along the rotational axes: 
x,y,z [a.u.] :    -0.006851    -1.597173     0.037084 
x,y,z [Debye]:    -0.017414    -4.059690     0.094261 

 

Timings for individual modules:

Sum of individual times         ...      100.872 sec (=   1.681 min)
GTO integral calculation        ...        5.447 sec (=   0.091 min)   5.4 %
SCF iterations                  ...       78.115 sec (=   1.302 min)  77.4 %
SCF Gradient evaluation         ...       16.160 sec (=   0.269 min)  16.0 %
Geometry relaxation             ...        1.150 sec (=   0.019 min)   1.1 %
                             ****ORCA TERMINATED NORMALLY****
TOTAL RUN TIME: 0 days 0 hours 1 minutes 46 seconds 84 msec
