 Entering Gaussian System
 *********************************************
 Gaussian 98:
 frequency output generated by the xtb code
 *********************************************
                         Standard orientation:
 --------------------------------------------------------------------
  Center     Atomic     Atomic              Coordinates (Angstroms)
  Number     Number      Type              X           Y           Z
 --------------------------------------------------------------------
    1          6             0       -3.137687    2.374495   -0.000003
    2          8             0       -3.331284    3.587436    0.000007
    3          8             0       -2.090411    1.732678   -0.000002
    4          1             0       -4.113215    1.721662   -0.000014
 --------------------------------------------------------------------
     1 basis functions        1 primitive gaussians
     1 alpha electrons        1 beta electrons
 
 Harmonic frequencies (cm**-1), IR intensities (km*mol⁻¹),
 Raman scattering activities (A**4/amu), Raman depolarization ratios,
 reduced masses (AMU), force constants (mDyne/A) and normal coordinates:
                      1                      2                      3
                        a                      a                      a 
 Frequencies --   686.9215               937.4751              1213.8578
 Red. masses --    14.3238                 7.0138                14.1404
 Frc consts  --     0.0000                 0.0000                 0.0000
 IR Inten    --   172.1383                94.5290               761.0492
 Raman Activ --     0.0000                 0.0000                 0.0000
 Depolar     --     0.0000                 0.0000                 0.0000
 Atom AN      X      Y      Z        X      Y      Z        X      Y      Z
   1   6    -0.52  -0.35  -0.00     0.00   0.00  -0.66     0.48   0.32   0.00
   2   8     0.50  -0.23   0.00    -0.00  -0.00   0.20     0.09  -0.55  -0.00
   3   8    -0.03   0.55   0.00    -0.00  -0.00   0.20    -0.47   0.30  -0.00
   4   1    -0.07  -0.05  -0.00    -0.00  -0.00   0.69    -0.15  -0.10  -0.00
                      4                      5                      6
                        a                      a                      a 
 Frequencies --  1458.7830              1775.3187              2001.2781
 Red. masses --     2.1438                13.1751                 1.9537
 Frc consts  --     0.0000                 0.0000                 0.0000
 IR Inten    --    51.5443              1119.5768              1022.3908
 Raman Activ --     0.0000                 0.0000                 0.0000
 Depolar     --     0.0000                 0.0000                 0.0000
 Atom AN      X      Y      Z        X      Y      Z        X      Y      Z
   1   6     0.04  -0.06  -0.00    -0.46   0.69   0.00    -0.02  -0.01  -0.00
   2   8    -0.09  -0.17  -0.00     0.07  -0.38  -0.00    -0.02  -0.18  -0.00
   3   8     0.19   0.02   0.00     0.33  -0.21   0.00    -0.17   0.05  -0.00
   4   1    -0.53   0.80   0.00     0.03  -0.05  -0.00     0.80   0.54   0.00
