      -----------------------------------------------------------      
     |                   =====================                   |     
     |                           x T B                           |     
     |                   =====================                   |     
     |                         S. Grimme                         |     
     |          Mulliken Center for Theoretical Chemistry        |     
     |                    University of Bonn                     |     
      -----------------------------------------------------------      

   * xtb version 6.7.1 (edcfbbe) compiled by 'albert@albert-system' on 2024-07-22

   xtb is free software: you can redistribute it and/or modify it under
   the terms of the GNU Lesser General Public License as published by
   the Free Software Foundation, either version 3 of the License, or
   (at your option) any later version.
   
   xtb is distributed in the hope that it will be useful,
   but WITHOUT ANY WARRANTY; without even the implied warranty of
   MERCHANTABILITY or FITNESS FOR A PARTICULAR PURPOSE.  See the
   GNU Lesser General Public License for more details.
   
   Cite this work as:
   * C. Bannwarth, E. Caldeweyher, S. Ehlert, A. Hansen, P. Pracht,
     J. Seibert, S. Spicher, S. Grimme, WIREs Comput. Mol. Sci., 2020, 11,
     e01493. DOI: 10.1002/wcms.1493
   
   for GFN2-xTB:
   * C. Bannwarth, S. Ehlert and S. Grimme., J. Chem. Theory Comput., 2019,
     15, 1652-1671. DOI: 10.1021/acs.jctc.8b01176
   for GFN1-xTB:
   * S. Grimme, C. Bannwarth, P. Shushkov, J. Chem. Theory Comput., 2017,
     13, 1989-2009. DOI: 10.1021/acs.jctc.7b00118
   for GFN0-xTB:
   * P. Pracht, E. Caldeweyher, S. Ehlert, S. Grimme, ChemRxiv, 2019, preprint.
     DOI: 10.26434/chemrxiv.8326202.v1
   for GFN-FF:
   * S. Spicher and S. Grimme, Angew. Chem. Int. Ed., 2020, 59, 15665-15673.
     DOI: 10.1002/anie.202004239
   
   for ALPB and GBSA implicit solvation:
   * S. Ehlert, M. Stahn, S. Spicher, S. Grimme, J. Chem. Theory Comput.,
     2021, 17, 4250-4261. DOI: 10.1021/acs.jctc.1c00471
   
   for ddCOSMO and CPCM-X implicit solvation:
   * M. Stahn, S. Ehlert, S. Grimme, J. Phys. Chem. A,
     2023, XX, XXXX-XXXX. DOI: 10.1021/acs.jpca.3c04382
   
   for DFT-D4:
   * E. Caldeweyher, C. Bannwarth and S. Grimme, J. Chem. Phys., 2017,
     147, 034112. DOI: 10.1063/1.4993215
   * E. Caldeweyher, S. Ehlert, A. Hansen, H. Neugebauer, S. Spicher,
     C. Bannwarth and S. Grimme, J. Chem. Phys., 2019, 150, 154122.
     DOI: 10.1063/1.5090222
   * E. Caldeweyher, J.-M. Mewes, S. Ehlert and S. Grimme, Phys. Chem. Chem. Phys.
     2020, 22, 8499-8512. DOI: 10.1039/D0CP00502A
   
   for sTDA-xTB:
   * S. Grimme and C. Bannwarth, J. Chem. Phys., 2016, 145, 054103.
     DOI: 10.1063/1.4959605
   
   in the mass-spec context:
   * V. Asgeirsson, C. Bauer and S. Grimme, Chem. Sci., 2017, 8, 4879.
     DOI: 10.1039/c7sc00601b
   * J. Koopman and S. Grimme, ACS Omega 2019, 4, 12, 15120-15133.
     DOI: 10.1021/acsomega.9b02011
   
   for metadynamics refer to:
   * S. Grimme, J. Chem. Theory Comput., 2019, 155, 2847-2862
     DOI: 10.1021/acs.jctc.9b00143
   
   for SPH calculations refer to:
   * S. Spicher and S. Grimme, J. Chem. Theory Comput., 2021, 17, 1701-1714
     DOI: 10.1021/acs.jctc.0c01306
   
   for ONIOM refer to:
   * C. Plett, A. Katbashev, S. Ehlert, S. Grimme, M. Bursch,
     Phys. Chem. Chem. Phys., 2023, 25, 17860-17868. DOI: 10.1039/D3CP02178E
   
   for DIPRO refer to:
   * J. Kohn, N. Gildemeister, S. Grimme, D. Fazzi, A. Hansen,
     J. Chem. Phys., 2023, just accepted.
   
   for PTB refer to:
   * S. Grimme, M. Mueller, A. Hansen, J. Chem. Phys., 2023, 158, 124111.
     DOI: 10.1063/5.0137838
   
   with help from (in alphabetical order)
   P. Atkinson, C. Bannwarth, F. Bohle, G. Brandenburg, E. Caldeweyher
   M. Checinski, S. Dohm, S. Ehlert, S. Ehrlich, I. Gerasimov, C. Hölzer
   A. Katbashev, J. Kohn, J. Koopman, C. Lavigne, S. Lehtola, F. März, M. Müller,
   F. Musil, H. Neugebauer, J. Pisarek, C. Plett, P. Pracht, F. Pultar,
   J. Seibert, P. Shushkov, S. Spicher, M. Stahn, M. Steiner, T. Strunk,
   J. Stückrath, T. Rose, and J. Unsleber
   
 * started run on 2025/10/19 at 03:21:53.450     
   ID    Z sym.   atoms
    1    6 C      1
    2    8 O      2, 3
    3    1 H      4

           -------------------------------------------------
          |                Calculation Setup                |
           -------------------------------------------------

          program call               : xtb xyz.xyz --alpb water --charge -1 --ohess
          hostname                   : m003
          coordinate file            : xyz.xyz
          omp threads                :                     2


           -------------------------------------------------
          |                 G F N 2 - x T B                 |
           -------------------------------------------------

        Reference                      10.1021/acs.jctc.8b01176
      * Hamiltonian:
        H0-scaling (s, p, d)           1.850000    2.230000    2.230000
        zeta-weighting                 0.500000
      * Dispersion:
        s8                             2.700000
        a1                             0.520000
        a2                             5.000000
        s9                             5.000000
      * Repulsion:
        kExp                           1.500000    1.000000
        rExp                           1.000000
      * Coulomb:
        alpha                          2.000000
        third order                    shell-resolved
        anisotropic                    true
        a3                             3.000000
        a5                             4.000000
        cn-shift                       1.200000
        cn-exp                         4.000000
        max-rad                        5.000000

      * Solvation model:               ALPB
        Solvent                        water
        Parameter file                 internal GFN2-xTB/ALPB
        Dielectric constant                8.0200E+01
        Reference state                gsolv [1 M gas/solution]
        Free energy shift                  1.0808E-03 Eh       6.7819E-01 kcal/mol
        Temperature                        2.9815E+02 K
        Density                            1.0000E+00 kg/L
        Solvent mass                       1.8000E+01 g/mol
        Interaction kernel             P16
        Born radius scaling (c1)           1.4744E+00
        Born radii integrator          GBOBC
        Born offset                        0.0000E+00 a0       0.0000E+00 AA
        H-bond correction              true
        Ion screening                  false
        Surface tension                    1.0000E-05 Eh       1.5569E+01 dyn/cm
        Grid points                               230 per atom

          ...................................................
          :                      SETUP                      :
          :.................................................:
          :  # basis functions                  13          :
          :  # atomic orbitals                  13          :
          :  # shells                            7          :
          :  # electrons                        18          :
          :  max. iterations                   250          :
          :  Hamiltonian                  GFN2-xTB          :
          :  restarted?                      false          :
          :  GBSA solvation                   true          :
          :  PC potential                    false          :
          :  electronic temp.          300.0000000     K    :
          :  accuracy                    1.0000000          :
          :  -> integral cutoff          0.2500000E+02      :
          :  -> integral neglect         0.1000000E-07      :
          :  -> SCF convergence          0.1000000E-05 Eh   :
          :  -> wf. convergence          0.1000000E-03 e    :
          :  Broyden damping             0.4000000          :
          :  net charge                         -1          :
          :  unpaired electrons                  0          :
          ...................................................

 iter      E             dE          RMSdq      gap      omega  full diag
   1    -11.0898063 -0.110898E+02  0.823E+00    6.10       0.0  T
   2    -11.1618615 -0.720552E-01  0.323E+00    4.72       1.0  T
   3    -11.1646312 -0.276970E-02  0.203E+00    5.06       1.0  T
   4    -11.1656085 -0.977330E-03  0.271E-01    4.92       1.0  T
   5    -11.1654848  0.123678E-03  0.270E-01    5.01       1.0  T
   6    -11.1656977 -0.212879E-03  0.150E-02    4.96       3.3  T
   7    -11.1656982 -0.438418E-06  0.314E-03    4.96      15.9  T
   8    -11.1656982 -0.685909E-08  0.252E-04    4.96     198.4  T
   9    -11.1656982  0.419931E-11  0.574E-05    4.96     870.5  T

   *** convergence criteria satisfied after 9 iterations ***

         #    Occupation            Energy/Eh            Energy/eV
      -------------------------------------------------------------
         1        2.0000           -0.6763415             -18.4042
       ...           ...                  ...                  ...
         3        2.0000           -0.5812893             -15.8177
         4        2.0000           -0.5344349             -14.5427
         5        2.0000           -0.5137964             -13.9811
         6        2.0000           -0.5036325             -13.7045
         7        2.0000           -0.4110214             -11.1845
         8        2.0000           -0.3997500             -10.8778
         9        2.0000           -0.3785334             -10.3004 (HOMO)
        10                         -0.1963759              -5.3437 (LUMO)
        11                          0.1236330               3.3642
        12                          0.3350729               9.1178
        13                          0.5761373              15.6775
      -------------------------------------------------------------
                  HL-Gap            0.1821574 Eh            4.9568 eV
             Fermi-level           -0.2874547 Eh           -7.8220 eV

 SCC (total)                   0 d,  0 h,  0 min,  0.025 sec
 SCC setup                      ...        0 min,  0.000 sec (  1.359%)
 Dispersion                     ...        0 min,  0.000 sec (  0.180%)
 classical contributions        ...        0 min,  0.000 sec (  0.151%)
 integral evaluation            ...        0 min,  0.000 sec (  1.008%)
 iterations                     ...        0 min,  0.024 sec ( 95.340%)
 molecular gradient             ...        0 min,  0.000 sec (  1.502%)
 printout                       ...        0 min,  0.000 sec (  0.307%)

         :::::::::::::::::::::::::::::::::::::::::::::::::::::
         ::                     SUMMARY                     ::
         :::::::::::::::::::::::::::::::::::::::::::::::::::::
         :: total energy             -11.105478565198 Eh    ::
         :: total w/o Gsasa/hb       -11.107330738570 Eh    ::
         :: gradient norm              0.057809827358 Eh/a0 ::
         :: HOMO-LUMO gap              4.956756135195 eV    ::
         ::.................................................::
         :: SCC energy               -11.165698164979 Eh    ::
         :: -> isotropic ES            0.213216182838 Eh    ::
         :: -> anisotropic ES          0.000176838112 Eh    ::
         :: -> anisotropic XC         -0.002207655554 Eh    ::
         :: -> dispersion             -0.001421727860 Eh    ::
         :: -> Gsolv                  -0.109709906792 Eh    ::
         ::    -> Gelec               -0.111562080164 Eh    ::
         ::    -> Gsasa                0.005049494967 Eh    ::
         ::    -> Ghb                 -0.004278081293 Eh    ::
         ::    -> Gshift               0.001080759698 Eh    ::
         :: repulsion energy           0.060219599781 Eh    ::
         :: add. restraining           0.000000000000 Eh    ::
         :: total charge              -1.000000000000 e     ::
         :::::::::::::::::::::::::::::::::::::::::::::::::::::

      ----------------------------------------------------------- 
     |                   =====================                   |
     |                        A N C O P T                        |
     |                   =====================                   |
     |               Approximate Normal Coordinate               |
     |                Rational Function Optimizer                |
      ----------------------------------------------------------- 
      ----------------------------------------------------------- 
     |                   =====================                   |
     |                        A N C O P T                        |
     |                   =====================                   |
     |               Approximate Normal Coordinate               |
     |                Rational Function Optimizer                |
      ----------------------------------------------------------- 

          ...................................................
          :                      SETUP                      :
          :.................................................:
          :   optimization level            normal          :
          :   max. optcycles                   200          :
          :   ANC micro-cycles                  20          :
          :   degrees of freedom                 6          :
          :.................................................:
          :   RF solver                   davidson          :
          :   write xtbopt.log                true          :
          :   linear?                        false          :
          :   energy convergence         0.5000000E-05 Eh   :
          :   grad. convergence          0.1000000E-02 Eh/α :
          :   maxmium RF displ.          1.0000000          :
          :   Hlow (freq-cutoff)         0.1000000E-01      :
          :   Hmax (freq-cutoff)         5.0000000          :
          :   S6 in model hess.         20.0000000          :
          ...................................................

generating ANC from exact Hessian ...
Using Lindh-Hessian (1995)
 Shifting diagonal of input Hessian by   9.122209524555632E-003
 Lowest  eigenvalues of input Hessian
    0.000000    0.000000    0.000000    0.000000    0.000000    0.000000
    0.010000    0.228779    0.319997    0.669166    1.562804    2.330210
 Highest eigenvalues
    0.010000    0.228779    0.319997    0.669166    1.562804    2.330210
 

........................................................................
.............................. CYCLE    1 ..............................
........................................................................

 iter      E             dE          RMSdq      gap      omega  full diag
   1    -11.1656982 -0.111657E+02  0.298E-06    4.96       0.0  T
   2    -11.1656982 -0.177636E-13  0.114E-06    4.96   43992.1  T
   3    -11.1656982 -0.177636E-14  0.643E-07    4.96   77763.7  T
     SCC iter.                  ...        0 min,  0.000 sec
     gradient                   ...        0 min,  0.000 sec
 * total energy  :   -11.1054786 Eh     change       -0.6227907E-11 Eh
   gradient norm :     0.0578096 Eh/α   predicted     0.0000000E+00 (-100.00%)
   displ. norm   :     0.0640869 α      lambda       -0.3292131E-02
   maximum displ.:     0.0505937 α      in ANC's #4, #5, #3, ...

........................................................................
.............................. CYCLE    2 ..............................
........................................................................

 iter      E             dE          RMSdq      gap      omega  full diag
   1    -11.1769497 -0.111769E+02  0.289E-01    5.31       0.0  T
   2    -11.1770322 -0.824464E-04  0.160E-01    5.27       1.0  T
   3    -11.1770399 -0.767444E-05  0.890E-02    5.28       1.0  T
   4    -11.1770421 -0.220366E-05  0.158E-02    5.27       3.2  T
   5    -11.1770421 -0.630720E-07  0.216E-03    5.28      23.2  T
   6    -11.1770421 -0.868248E-10  0.845E-04    5.28      59.1  T
   7    -11.1770421 -0.443574E-10  0.537E-05    5.28     931.7  T
     SCC iter.                  ...        0 min,  0.001 sec
     gradient                   ...        0 min,  0.000 sec
 * total energy  :   -11.1075539 Eh     change       -0.2075371E-02 Eh
   gradient norm :     0.0171702 Eh/α   predicted    -0.1652827E-02 ( -20.36%)
   displ. norm   :     0.0279710 α      lambda       -0.3802301E-03
   maximum displ.:     0.0219508 α      in ANC's #3, #5, #4, ...

........................................................................
.............................. CYCLE    3 ..............................
........................................................................

 iter      E             dE          RMSdq      gap      omega  full diag
   1    -11.1800696 -0.111801E+02  0.111E-01    5.41       0.0  T
   2    -11.1800779 -0.829953E-05  0.595E-02    5.40       1.0  T
   3    -11.1800788 -0.838020E-06  0.332E-02    5.40       1.5  T
   4    -11.1800792 -0.460283E-06  0.771E-03    5.40       6.5  T
   5    -11.1800793 -0.130184E-07  0.925E-04    5.40      54.0  T
   6    -11.1800793 -0.251834E-10  0.264E-04    5.40     189.1  T
     SCC iter.                  ...        0 min,  0.001 sec
     gradient                   ...        0 min,  0.000 sec
 * total energy  :   -11.1077658 Eh     change       -0.2118565E-03 Eh
   gradient norm :     0.0060372 Eh/α   predicted    -0.1902629E-03 ( -10.19%)
   displ. norm   :     0.0106888 α      lambda       -0.5384938E-04
   maximum displ.:     0.0078160 α      in ANC's #3, #4, #5, ...

........................................................................
.............................. CYCLE    4 ..............................
........................................................................

 iter      E             dE          RMSdq      gap      omega  full diag
   1    -11.1799200 -0.111799E+02  0.368E-02    5.41       0.0  T
   2    -11.1799201 -0.785138E-07  0.229E-02    5.41       2.2  T
   3    -11.1799202 -0.508307E-07  0.291E-03    5.41      17.2  T
   4    -11.1799202 -0.197542E-08  0.165E-03    5.41      30.3  T
   5    -11.1799202 -0.101563E-08  0.314E-04    5.41     159.2  T
   6    -11.1799202 -0.851763E-11  0.295E-05    5.41    1692.7  T
     SCC iter.                  ...        0 min,  0.001 sec
     gradient                   ...        0 min,  0.000 sec
 * total energy  :   -11.1078066 Eh     change       -0.4085361E-04 Eh
   gradient norm :     0.0038124 Eh/α   predicted    -0.2692863E-04 ( -34.09%)
   displ. norm   :     0.0117327 α      lambda       -0.4120891E-04
   maximum displ.:     0.0089159 α      in ANC's #4, #5, #3, ...

........................................................................
.............................. CYCLE    5 ..............................
........................................................................

 iter      E             dE          RMSdq      gap      omega  full diag
   1    -11.1795244 -0.111795E+02  0.468E-02    5.41       0.0  T
   2    -11.1795245 -0.173211E-06  0.295E-02    5.41       1.7  T
   3    -11.1795246 -0.269877E-07  0.434E-03    5.41      11.5  T
   4    -11.1795246 -0.340543E-07  0.200E-03    5.41      25.0  T
   5    -11.1795246 -0.815591E-09  0.354E-04    5.41     141.1  T
   6    -11.1795246 -0.167919E-10  0.498E-05    5.41    1004.3  T
     SCC iter.                  ...        0 min,  0.001 sec
     gradient                   ...        0 min,  0.000 sec
 * total energy  :   -11.1078304 Eh     change       -0.2378301E-04 Eh
   gradient norm :     0.0012264 Eh/α   predicted    -0.2060551E-04 ( -13.36%)
   displ. norm   :     0.0043155 α      lambda       -0.3243139E-05
   maximum displ.:     0.0029897 α      in ANC's #4, #5, #3, ...

........................................................................
.............................. CYCLE    6 ..............................
........................................................................

 iter      E             dE          RMSdq      gap      omega  full diag
   1    -11.1795534 -0.111796E+02  0.185E-02    5.41       0.0  T
   2    -11.1795534 -0.114051E-07  0.111E-02    5.41       4.5  T
   3    -11.1795534 -0.610852E-08  0.977E-04    5.41      51.2  T
   4    -11.1795534 -0.136614E-09  0.157E-04    5.41     317.8  T
     SCC iter.                  ...        0 min,  0.000 sec
     gradient                   ...        0 min,  0.000 sec
 * total energy  :   -11.1078327 Eh     change       -0.2270846E-05 Eh
   gradient norm :     0.0003158 Eh/α   predicted    -0.1619838E-05 ( -28.67%)
   displ. norm   :     0.0015049 α      lambda       -0.2817902E-06
   maximum displ.:     0.0012722 α      in ANC's #3, #4, #5, ...

   *** GEOMETRY OPTIMIZATION CONVERGED AFTER 6 ITERATIONS ***

------------------------------------------------------------------------
 total energy gain   :        -0.0023541 Eh       -1.4772 kcal/mol
 total RMSD          :         0.0464186 a0        0.0246 Å
 total power (kW/mol):        -1.0301302 (step) -776.1002 (real)
------------------------------------------------------------------------

 ANCopt (total)                0 d,  0 h,  0 min,  0.008 sec
 optimizer setup                ...        0 min,  0.000 sec (  3.170%)
 model hessian                  ...        0 min,  0.000 sec (  1.028%)
 ANC generation                 ...        0 min,  0.000 sec (  0.729%)
 coordinate transformation      ...        0 min,  0.000 sec (  0.523%)
 single point calculation       ...        0 min,  0.007 sec ( 85.260%)
 optimization log               ...        0 min,  0.000 sec (  2.382%)
 hessian update                 ...        0 min,  0.000 sec (  0.651%)
 rational function              ...        0 min,  0.000 sec (  2.919%)

================
 final structure:
================
4
 xtb: 6.7.1 (edcfbbe)
C           -3.13769933324394        2.37447832410609       -0.00000982003605
O           -3.33130220714631        3.58741853594627        0.00000120658958
O           -2.09041974997033        1.73266701330960       -0.00000658124040
H           -4.11322370963943        1.72164012663804       -0.00002580531312
 
 Bond Distances (Angstroems)
 ---------------------------
C1-O2=1.2283         C1-O3=1.2283         C1-H4=1.1738         O2-C1=1.2283         O3-C1=1.2283         H4-C1=1.1738         
 C  H  Rav=1.1738 sigma=0.0000  Rmin=1.1738  Rmax=1.1738     1
 O  C  Rav=1.2283 sigma=0.0000  Rmin=1.2283  Rmax=1.2283     2
 
 selected bond angles (degree)
 --------------------
O3-C1-O2=130.57                H4-C1-O2=114.72                H4-C1-O3=114.71                
 
 selected dihedral angles (degree)
 ---------------------------------

           -------------------------------------------------
          |                Final Singlepoint                |
           -------------------------------------------------

          ...................................................
          :                      SETUP                      :
          :.................................................:
          :  # basis functions                  13          :
          :  # atomic orbitals                  13          :
          :  # shells                            7          :
          :  # electrons                        18          :
          :  max. iterations                   250          :
          :  Hamiltonian                  GFN2-xTB          :
          :  restarted?                      false          :
          :  GBSA solvation                   true          :
          :  PC potential                    false          :
          :  electronic temp.          300.0000000     K    :
          :  accuracy                    1.0000000          :
          :  -> integral cutoff          0.2500000E+02      :
          :  -> integral neglect         0.1000000E-07      :
          :  -> SCF convergence          0.1000000E-05 Eh   :
          :  -> wf. convergence          0.1000000E-03 e    :
          :  Broyden damping             0.4000000          :
          :  net charge                         -1          :
          :  unpaired electrons                  0          :
          ...................................................

 iter      E             dE          RMSdq      gap      omega  full diag
   1    -11.1795534 -0.111796E+02  0.977E-05    5.41       0.0  T
   2    -11.1795534 -0.166978E-11  0.654E-05    5.41     764.7  T
   3    -11.1795534 -0.651923E-12  0.166E-05    5.41    3017.7  T

   *** convergence criteria satisfied after 3 iterations ***

         #    Occupation            Energy/Eh            Energy/eV
      -------------------------------------------------------------
         1        2.0000           -0.6850317             -18.6407
       ...           ...                  ...                  ...
         3        2.0000           -0.5851475             -15.9227
         4        2.0000           -0.5407772             -14.7153
         5        2.0000           -0.5251205             -14.2893
         6        2.0000           -0.5069621             -13.7951
         7        2.0000           -0.4159189             -11.3177
         8        2.0000           -0.4020508             -10.9404
         9        2.0000           -0.3811739             -10.3723 (HOMO)
        10                         -0.1823137              -4.9610 (LUMO)
        11                          0.0948849               2.5819
        12                          0.4218571              11.4793
        13                          0.6724432              18.2981
      -------------------------------------------------------------
                  HL-Gap            0.1988602 Eh            5.4113 eV
             Fermi-level           -0.2817438 Eh           -7.6666 eV

 SCC (total)                   0 d,  0 h,  0 min,  0.001 sec
 SCC setup                      ...        0 min,  0.000 sec ( 11.010%)
 Dispersion                     ...        0 min,  0.000 sec (  2.180%)
 classical contributions        ...        0 min,  0.000 sec (  0.938%)
 integral evaluation            ...        0 min,  0.000 sec ( 16.308%)
 iterations                     ...        0 min,  0.000 sec ( 34.023%)
 molecular gradient             ...        0 min,  0.000 sec ( 26.269%)
 printout                       ...        0 min,  0.000 sec (  6.126%)

         :::::::::::::::::::::::::::::::::::::::::::::::::::::
         ::                     SUMMARY                     ::
         :::::::::::::::::::::::::::::::::::::::::::::::::::::
         :: total energy             -11.107832700333 Eh    ::
         :: total w/o Gsasa/hb       -11.108978181971 Eh    ::
         :: gradient norm              0.000316054392 Eh/a0 ::
         :: HOMO-LUMO gap              5.411261953829 eV    ::
         ::.................................................::
         :: SCC energy               -11.179553408419 Eh    ::
         :: -> isotropic ES            0.208997386041 Eh    ::
         :: -> anisotropic ES         -0.001321439063 Eh    ::
         :: -> anisotropic XC         -0.003091035166 Eh    ::
         :: -> dispersion             -0.001512349901 Eh    ::
         :: -> Gsolv                  -0.109799934789 Eh    ::
         ::    -> Gelec               -0.110945416427 Eh    ::
         ::    -> Gsasa                0.004986117680 Eh    ::
         ::    -> Ghb                 -0.004921395740 Eh    ::
         ::    -> Gshift               0.001080759698 Eh    ::
         :: repulsion energy           0.071720708086 Eh    ::
         :: add. restraining           0.000000000000 Eh    ::
         :: total charge              -1.000000000000 e     ::
         :::::::::::::::::::::::::::::::::::::::::::::::::::::

           ------------------------------------------------- 
          |                Numerical Hessian                |
           ------------------------------------------------- 
step length          :   0.00500
SCC accuracy         :   0.30000
Hessian scale factor :   1.00000
frozen atoms in %    :   0.00000    0
RMS gradient         :   0.00032
estimated CPU  time      0.00 min
estimated wall time      0.00 min

writing file <hessian>.

 projected vibrational frequencies (cm⁻¹)
eigval :       -0.00    -0.00    -0.00     0.00     0.00     0.00
eigval :      686.92   937.48  1213.86  1458.78  1775.32  2001.28
           -------------------------------------------------
          |                Property Printout                |
           -------------------------------------------------

    * Orbital Energies and Occupations

         #    Occupation            Energy/Eh            Energy/eV
      -------------------------------------------------------------
         1        2.0000           -0.6850319             -18.6407
         2        2.0000           -0.6755773             -18.3834
         3        2.0000           -0.5851477             -15.9227
         4        2.0000           -0.5407774             -14.7153
         5        2.0000           -0.5251207             -14.2893
         6        2.0000           -0.5069623             -13.7951
         7        2.0000           -0.4159191             -11.3177
         8        2.0000           -0.4020509             -10.9404
         9        2.0000           -0.3811741             -10.3723 (HOMO)
        10                         -0.1823139              -4.9610 (LUMO)
        11                          0.0948847               2.5819
        12                          0.4218568              11.4793
        13                          0.6724430              18.2981
      -------------------------------------------------------------
                  HL-Gap            0.1988601 Eh            5.4113 eV
             Fermi-level           -0.2817440 Eh           -7.6666 eV

     #   Z          covCN         q      C6AA      α(0)
     1   6 C        2.613     0.411    20.095     7.331
     2   8 O        0.856    -0.612    26.414     6.891
     3   8 O        0.856    -0.612    26.416     6.891
     4   1 H        0.902    -0.187     9.875     4.916

 Mol. C6AA /au·bohr⁶  :        317.920838
 Mol. C8AA /au·bohr⁸  :       6541.852327
 Mol. α(0) /au        :         26.029201


Wiberg/Mayer (AO) data.
largest (>0.10) Wiberg bond orders for each atom

 ---------------------------------------------------------------------------
     #   Z sym  total        # sym  WBO       # sym  WBO       # sym  WBO
 ---------------------------------------------------------------------------
     1   6 C    3.940 --     2 O    1.544     3 O    1.544     4 H    0.852
     2   8 O    1.833 --     1 C    1.544     3 O    0.233
     3   8 O    1.833 --     1 C    1.544     2 O    0.233
     4   1 H    0.965 --     1 C    0.852
 ---------------------------------------------------------------------------

Topologies differ in total number of bonds
Writing topology from bond orders to xtbtopo.mol

molecular dipole:
                 x           y           z       tot (Debye)
 q only:        5.286      -4.917      -0.000
   full:        5.089      -5.050      -0.000      18.221
molecular quadrupole (traceless):
                xx          xy          yy          xz          yz          zz
 q only:      -16.448      41.741     -13.071       0.000      -0.000      29.519
  q+dip:      -13.415      42.767     -16.311       0.000      -0.000      29.726
   full:      -13.801      42.603     -16.562       0.000      -0.000      30.363

           -------------------------------------------------
          |                Geometry Summary                 |
           -------------------------------------------------

      molecular mass/u    :       45.0174865
   center of mass at/Å    :       -2.8561278       2.5628581       0.0000004
  moments of inertia/u·Å² :        0.4662050E+01   0.3983767E+02   0.4449972E+02
rotational constants/cm⁻¹ :        0.3615927E+01   0.4231581E+00   0.3788256E+00

 * 2 selected distances

     #   Z          #   Z                                           value/Å
     1   6 C        2   8 O                                       1.2282941 (min)
     1   6 C        3   8 O                                       1.2282982 (max)

 * 1 distinct bonds (by element types)

   Z      Z             #   av. dist./Å        max./Å        min./Å
   6 C    8 O           2     1.2282962     1.2282982     1.2282941

           -------------------------------------------------
          |               Frequency Printout                |
           -------------------------------------------------
 projected vibrational frequencies (cm⁻¹)
eigval :       -0.00    -0.00    -0.00     0.00     0.00     0.00
eigval :      686.92   937.48  1213.86  1458.78  1775.32  2001.28
 reduced masses (amu)
   1: 15.43   2: 14.24   3: 14.99   4: 15.06   5: 15.78   6:  6.79   7: 14.32   8:  7.01
   9: 14.14  10:  2.14  11: 13.18  12:  1.95
 IR intensities (km·mol⁻¹)
   1: 18.97   2: 17.77   3: 20.87   4:  6.81   5:  5.07   6:  4.40   7:172.14   8: 94.53
   9:761.05  10: 51.54  11:******  12:******
 Raman intensities (Ä⁴*amu⁻¹)
   1:  0.00   2:  0.00   3:  0.00   4:  0.00   5:  0.00   6:  0.00   7:  0.00   8:  0.00
   9:  0.00  10:  0.00  11:  0.00  12:  0.00
 output can be read by thermo (or use thermo option).
 writing <g98.out> molden fake output.
 recommended (thermochemical) frequency scaling factor: 1.0
           -------------------------------------------------
          |             Thermodynamic Functions             |
           -------------------------------------------------

Molecule has the following symmetry elements: (C2) 2*(sigma) 
It seems to be the C2v point group
c2v symmetry found (for desy threshold:  0.10E+00) used in thermo

          ...................................................
          :                      SETUP                      :
          :.................................................:
          :  # frequencies                           6      :
          :  # imaginary freq.                       0      :
          :  linear?                             false      :
          :  only rotor calc.                    false      :
          :  symmetry                              c2v      :
          :  rotational number                       2      :
          :  scaling factor                  1.0000000      :
          :  rotor cutoff                   50.0000000 cm⁻¹ :
          :  imag. cutoff                  -20.0000000 cm⁻¹ :
          :.................................................:

    mode    ω/cm⁻¹     T·S(HO)/kcal·mol⁻¹    T·S(FR)/kcal·mol⁻¹   T·S(vib)
   ------------------------------------------------------------------------
   ------------------------------------------------------------------------

   temp. (K)  partition function   enthalpy   heat capacity  entropy
                                   cal/mol     cal/K/mol   cal/K/mol   J/K/mol
 298.15  VIB   1.05                  118.392      1.627      0.500
         ROT  0.347E+04              888.752      2.981     19.182
         INT  0.366E+04             1007.144      4.608     19.682
         TR   0.292E+27             1481.254      4.968     37.322
         TOT                        2488.3982     9.5765    57.0045   238.5069

       T/K    H(0)-H(T)+PV         H(T)/Eh          T*S/Eh         G(T)/Eh
   ------------------------------------------------------------------------
    298.15    0.396551E-02    0.223586E-01    0.270847E-01   -0.472608E-02
   ------------------------------------------------------------------------

         :::::::::::::::::::::::::::::::::::::::::::::::::::::
         ::                  THERMODYNAMIC                  ::
         :::::::::::::::::::::::::::::::::::::::::::::::::::::
         :: total free energy         -11.112558783567 Eh   ::
         ::.................................................::
         :: total energy              -11.107832700111 Eh   ::
         :: zero point energy           0.018393091892 Eh   ::
         :: G(RRHO) w/o ZPVE           -0.023119175348 Eh   ::
         :: G(RRHO) contrib.           -0.004726083456 Eh   ::
         :::::::::::::::::::::::::::::::::::::::::::::::::::::

optimized geometry written to: xtbopt.xyz


           -------------------------------------------------
          | TOTAL ENERGY              -11.107832700111 Eh   |
          | TOTAL ENTHALPY            -11.085474093227 Eh   |
          | TOTAL FREE ENERGY         -11.112558783567 Eh   |
          | GRADIENT NORM               0.000316057664 Eh/α |
          | HOMO-LUMO GAP               5.411260088480 eV   |
           -------------------------------------------------

------------------------------------------------------------------------
 * finished run on 2025/10/19 at 03:21:53.712     
------------------------------------------------------------------------
 total:
 * wall-time:     0 d,  0 h,  0 min,  0.262 sec
 *  cpu-time:     0 d,  0 h,  0 min,  0.299 sec
 * ratio c/w:     1.144 speedup
 SCF:
 * wall-time:     0 d,  0 h,  0 min,  0.025 sec
 *  cpu-time:     0 d,  0 h,  0 min,  0.031 sec
 * ratio c/w:     1.223 speedup
 ANC optimizer:
 * wall-time:     0 d,  0 h,  0 min,  0.059 sec
 *  cpu-time:     0 d,  0 h,  0 min,  0.069 sec
 * ratio c/w:     1.170 speedup
 analytical hessian:
 * wall-time:     0 d,  0 h,  0 min,  0.062 sec
 *  cpu-time:     0 d,  0 h,  0 min,  0.077 sec
 * ratio c/w:     1.227 speedup

