4
 energy: -11.105478565204 gnorm: 0.057809605765 xtb: 6.7.1 (edcfbbe)
C           -3.14782300000000        2.36764800000000       -0.00001000000000
O           -3.35124800000000        3.61085200000000        0.00000200000000
O           -2.07628800000000        1.70531500000000       -0.00000600000000
H           -4.09728600000000        1.73238900000000       -0.00002700000000
4
 energy: -11.107553936393 gnorm: 0.017170218984 xtb: 6.7.1 (edcfbbe)
C           -3.14673238599936        2.36839104145557       -0.00000997827608
O           -3.33784815440633        3.59101308219434        0.00000185929034
O           -2.08951449833414        1.72526412017191       -0.00000597371927
H           -4.09854996126016        1.73153575617818       -0.00002690729499
4
 energy: -11.107765792857 gnorm: 0.006037208712 xtb: 6.7.1 (edcfbbe)
C           -3.14434464418376        2.37001155787386       -0.00000993636214
O           -3.33117634110285        3.58548899314783        0.00000176184404
O           -2.09212450905452        1.73352877273880       -0.00000601386681
H           -4.10499950565887        1.72717467623951       -0.00002681161509
4
 energy: -11.107806646468 gnorm: 0.003812397039 xtb: 6.7.1 (edcfbbe)
C           -3.14229566002922        2.37139576491404       -0.00000990080065
O           -3.33009799959078        3.58599576632023        0.00000162520893
O           -2.09126896630724        1.73432629419374       -0.00000614958115
H           -4.10898237407277        1.72448617457199       -0.00002657482712
4
 energy: -11.107830429476 gnorm: 0.001226468169 xtb: 6.7.1 (edcfbbe)
C           -3.13917258166153        2.37349582892771       -0.00000984601967
O           -3.33036759943239        3.58718792384275        0.00000139836165
O           -2.09028300452918        1.73361749535598       -0.00000638458551
H           -4.11282181437690        1.72190275187356       -0.00002616775647
4
 energy: -11.107832700322 gnorm: 0.000316026134 xtb: 6.7.1 (edcfbbe)
C           -3.13769933324394        2.37447832410609       -0.00000982003605
O           -3.33130220714631        3.58741853594627        0.00000120658958
O           -2.09041974997033        1.73266701330960       -0.00000658124040
H           -4.11322370963943        1.72164012663804       -0.00002580531312
