 Entering Gaussian System
 *********************************************
 Gaussian 98:
 frequency output generated by the xtb code
 *********************************************
                         Standard orientation:
 --------------------------------------------------------------------
  Center     Atomic     Atomic              Coordinates (Angstroms)
  Number     Number      Type              X           Y           Z
 --------------------------------------------------------------------
    1          6             0       -3.752172    2.012849    0.472330
    2          6             0       -0.142902    1.211994   -0.448514
    3          1             0       -1.138404    0.763918   -0.486775
    4          1             0       -3.401093    2.224820    1.468765
    5          1             0       -3.830039    2.866627   -0.180423
    6         16             0       -0.272332    2.911674    0.152765
    7          1             0        0.492129    0.632867    0.225875
    8          1             0        0.296774    1.210044   -1.448782
    9          6             0       -4.010678    0.788355    0.062433
   10          1             0       -3.902453   -0.064043    0.713244
   11          1             0       -4.332224    0.581874   -0.945353
 --------------------------------------------------------------------
     1 basis functions        1 primitive gaussians
     1 alpha electrons        1 beta electrons
 
 Harmonic frequencies (cm**-1), IR intensities (km*mol⁻¹),
 Raman scattering activities (A**4/amu), Raman depolarization ratios,
 reduced masses (AMU), force constants (mDyne/A) and normal coordinates:
                      1                      2                      3
                        a                      a                      a 
 Frequencies --   -36.8119               -18.6213                28.7169
 Red. masses --     8.6071                12.4130                 6.5514
 Frc consts  --     0.0000                 0.0000                 0.0000
 IR Inten    --     7.9073                 8.3123                 5.8426
 Raman Activ --     0.0000                 0.0000                 0.0000
 Depolar     --     0.0000                 0.0000                 0.0000
 Atom AN      X      Y      Z        X      Y      Z        X      Y      Z
   1   6     0.13  -0.08   0.40    -0.10  -0.25   0.13     0.13   0.10   0.09
   2   6     0.03  -0.11   0.23     0.15   0.03   0.17     0.02  -0.09   0.09
   3   1     0.02  -0.06   0.09     0.02   0.06  -0.04    -0.00   0.02  -0.20
   4   1    -0.21  -0.17   0.23     0.17  -0.18  -0.01     0.35  -0.04  -0.07
   5   1     0.29   0.06   0.19    -0.11  -0.00   0.14    -0.31   0.09   0.15
   6  16    -0.20   0.03  -0.26     0.36   0.21  -0.16    -0.33  -0.10  -0.07
   7   1     0.02   0.03   0.11    -0.06   0.00   0.14    -0.18  -0.05   0.18
   8   1     0.01  -0.09   0.07     0.15  -0.05   0.10     0.24  -0.05   0.13
   9   6     0.12   0.16  -0.30    -0.56  -0.07  -0.11     0.29   0.13  -0.10
  10   1    -0.21  -0.04  -0.16    -0.09  -0.09  -0.13     0.43  -0.02  -0.17
  11   1     0.28   0.19  -0.20    -0.36   0.09   0.01    -0.23   0.11   0.05
                      4                      5                      6
                        a                      a                      a 
 Frequencies --    41.4503                66.4531                73.3884
 Red. masses --    12.3048                 9.2029                 2.3513
 Frc consts  --     0.0000                 0.0000                 0.0000
 IR Inten    --    12.3986                 3.2365                 0.4110
 Raman Activ --     0.0000                 0.0000                 0.0000
 Depolar     --     0.0000                 0.0000                 0.0000
 Atom AN      X      Y      Z        X      Y      Z        X      Y      Z
   1   6     0.53  -0.00  -0.14    -0.47   0.14   0.13    -0.12   0.03   0.02
   2   6     0.31   0.03  -0.06     0.60  -0.02  -0.08     0.18   0.05  -0.19
   3   1     0.14  -0.10   0.00     0.24  -0.16   0.09     0.01   0.14  -0.52
   4   1     0.24  -0.01  -0.07    -0.15   0.05   0.04    -0.23   0.06   0.06
   5   1     0.28  -0.02  -0.08    -0.23   0.05   0.06     0.15  -0.03  -0.07
   6  16    -0.41  -0.08   0.07    -0.11  -0.16  -0.03    -0.03  -0.05   0.02
   7   1     0.17   0.06  -0.04     0.34   0.09  -0.09    -0.32  -0.11   0.19
   8   1     0.06   0.07  -0.03     0.06   0.06  -0.07     0.50   0.03   0.14
   9   6    -0.31   0.09   0.11    -0.04   0.10   0.00    -0.04  -0.02   0.15
  10   1    -0.21   0.04   0.07     0.08   0.02  -0.03    -0.19   0.04   0.13
  11   1    -0.17   0.04   0.06     0.00   0.03  -0.00     0.18  -0.06  -0.01
                      7                      8                      9
                        a                      a                      a 
 Frequencies --   726.9498               838.4250               862.0787
 Red. masses --    17.5523                 1.4345                 5.1101
 Frc consts  --     0.0000                 0.0000                 0.0000
 IR Inten    --     1.4843                 2.8692                 2.3519
 Raman Activ --     0.0000                 0.0000                 0.0000
 Depolar     --     0.0000                 0.0000                 0.0000
 Atom AN      X      Y      Z        X      Y      Z        X      Y      Z
   1   6    -0.00  -0.00   0.00     0.03  -0.05   0.13    -0.40   0.05   0.12
   2   6    -0.06   0.74   0.26     0.00  -0.00  -0.00     0.00  -0.00  -0.00
   3   1    -0.00   0.14   0.05     0.00  -0.00   0.00    -0.00  -0.00   0.00
   4   1     0.00   0.00  -0.00     0.04   0.48  -0.09     0.35  -0.05  -0.11
   5   1     0.00  -0.00  -0.00    -0.14  -0.32  -0.35     0.36  -0.04  -0.10
   6  16     0.04  -0.53  -0.19    -0.00   0.00   0.00     0.00   0.00   0.00
   7   1    -0.01   0.15   0.05    -0.00   0.00   0.00     0.00   0.00   0.00
   8   1    -0.01   0.14   0.06     0.00  -0.00  -0.00     0.00  -0.00  -0.00
   9   6    -0.00  -0.00  -0.00     0.04  -0.05   0.12     0.42  -0.04  -0.13
  10   1    -0.00  -0.00  -0.00    -0.16  -0.31  -0.34    -0.39   0.04   0.12
  11   1    -0.00  -0.00   0.00     0.04   0.48  -0.08    -0.40   0.03   0.12
                     10                     11                     12
                        a                      a                      a 
 Frequencies --   941.0291               943.9802              1013.4437
 Red. masses --     3.0132                 2.9962                 2.6093
 Frc consts  --     0.0000                 0.0000                 0.0000
 IR Inten    --     0.3160                 0.0058                47.3596
 Raman Activ --     0.0000                 0.0000                 0.0000
 Depolar     --     0.0000                 0.0000                 0.0000
 Atom AN      X      Y      Z        X      Y      Z        X      Y      Z
   1   6    -0.00   0.00   0.00     0.00  -0.00  -0.00    -0.27   0.04   0.09
   2   6     0.09  -0.11   0.34    -0.36  -0.06   0.07    -0.00  -0.00  -0.00
   3   1    -0.05   0.16  -0.18     0.19  -0.63  -0.27     0.00  -0.01  -0.00
   4   1     0.00   0.00  -0.00    -0.01  -0.00   0.00     0.47  -0.06  -0.15
   5   1     0.00  -0.00  -0.00    -0.01  -0.00   0.00     0.44  -0.06  -0.13
   6  16    -0.03   0.04  -0.12     0.12   0.02  -0.02     0.00   0.00  -0.00
   7   1     0.03  -0.56  -0.37     0.19   0.29   0.02     0.00   0.01   0.00
   8   1    -0.12   0.57   0.03     0.17   0.42   0.13     0.00   0.00   0.00
   9   6     0.00  -0.00   0.00     0.00   0.00   0.00    -0.24   0.02   0.07
  10   1    -0.00  -0.00  -0.00    -0.00   0.00   0.00     0.41  -0.04  -0.12
  11   1     0.00   0.00  -0.00    -0.00   0.00   0.00     0.44  -0.05  -0.13
                     13                     14                     15
                        a                      a                      a 
 Frequencies --  1029.9384              1177.8409              1316.5489
 Red. masses --     1.0191                 5.2529                 2.4115
 Frc consts  --     0.0000                 0.0000                 0.0000
 IR Inten    --     0.0310                 0.0312                77.3342
 Raman Activ --     0.0000                 0.0000                 0.0000
 Depolar     --     0.0000                 0.0000                 0.0000
 Atom AN      X      Y      Z        X      Y      Z        X      Y      Z
   1   6    -0.01   0.01  -0.02    -0.10   0.15  -0.40    -0.00  -0.00  -0.00
   2   6    -0.00  -0.00   0.00     0.00  -0.00  -0.00    -0.02   0.32   0.11
   3   1     0.00  -0.00  -0.00    -0.00   0.00   0.00     0.21  -0.47  -0.19
   4   1    -0.46   0.05   0.15    -0.02  -0.38  -0.00    -0.00  -0.02   0.00
   5   1     0.49  -0.06  -0.14     0.08   0.29   0.24    -0.00  -0.01  -0.02
   6  16     0.00  -0.00   0.00     0.00  -0.00   0.00    -0.00   0.06   0.02
   7   1     0.00   0.00   0.00     0.00   0.00   0.00    -0.07  -0.44  -0.30
   8   1    -0.00  -0.00  -0.00    -0.00   0.00  -0.00    -0.03  -0.54  -0.03
   9   6    -0.01  -0.01   0.02     0.10  -0.16   0.40     0.00   0.01   0.00
  10   1     0.49  -0.07  -0.17    -0.12  -0.30  -0.23     0.00   0.00  -0.00
  11   1    -0.46   0.08   0.14     0.06   0.39  -0.01     0.00   0.00   0.00
                     16                     17                     18
                        a                      a                      a 
 Frequencies --  1392.3973              1413.7236              1486.5000
 Red. masses --     1.8425                 2.1488                 1.6865
 Frc consts  --     0.0000                 0.0000                 0.0000
 IR Inten    --     1.4747                 8.8612                 2.7556
 Raman Activ --     0.0000                 0.0000                 0.0000
 Depolar     --     0.0000                 0.0000                 0.0000
 Atom AN      X      Y      Z        X      Y      Z        X      Y      Z
   1   6     0.04   0.22   0.07    -0.04  -0.17  -0.05     0.00   0.00   0.00
   2   6    -0.00   0.01   0.00    -0.00   0.01   0.00    -0.24  -0.00  -0.04
   3   1     0.00  -0.01  -0.00     0.01  -0.01  -0.01    -0.10   0.19   0.28
   4   1     0.03   0.39  -0.04     0.03   0.53  -0.13    -0.00  -0.01   0.00
   5   1     0.11   0.27   0.26     0.17   0.32   0.41    -0.00  -0.00  -0.00
   6  16     0.00   0.00   0.00     0.00   0.00   0.00    -0.01   0.00  -0.00
   7   1     0.00  -0.01  -0.01     0.00  -0.01  -0.01     0.38  -0.06  -0.41
   8   1     0.00  -0.01   0.00     0.00  -0.01   0.00     0.63  -0.14   0.28
   9   6    -0.03  -0.14  -0.05    -0.05  -0.25  -0.08    -0.00  -0.00  -0.00
  10   1    -0.15  -0.37  -0.38     0.11   0.21   0.30     0.00   0.00   0.00
  11   1    -0.04  -0.55   0.07     0.01   0.37  -0.10    -0.00   0.00  -0.00
                     19                     20                     21
                        a                      a                      a 
 Frequencies --  1487.1063              1700.5043              2907.7247
 Red. masses --     1.6924                10.5858                 1.9542
 Frc consts  --     0.0000                 0.0000                 0.0000
 IR Inten    --     2.3341                 1.4878               108.7180
 Raman Activ --     0.0000                 0.0000                 0.0000
 Depolar     --     0.0000                 0.0000                 0.0000
 Atom AN      X      Y      Z        X      Y      Z        X      Y      Z
   1   6    -0.00  -0.00  -0.00     0.13   0.61   0.20    -0.00   0.00  -0.00
   2   6     0.04   0.08  -0.23     0.00   0.00   0.00     0.02  -0.09   0.28
   3   1     0.11  -0.30   0.63     0.00  -0.00  -0.00     0.03  -0.01   0.06
   4   1     0.00  -0.00   0.00     0.02  -0.13   0.13    -0.00  -0.00   0.00
   5   1     0.00   0.00   0.00    -0.06  -0.00  -0.18     0.00  -0.00   0.00
   6  16     0.00   0.00  -0.01     0.00   0.00   0.00     0.00   0.00   0.00
   7   1    -0.44  -0.31   0.15    -0.00  -0.00   0.00    -0.40   0.32  -0.38
   8   1     0.19   0.29   0.08    -0.00   0.00  -0.00     0.31   0.01  -0.64
   9   6    -0.00   0.00  -0.00    -0.13  -0.61  -0.21    -0.00  -0.00   0.00
  10   1     0.00   0.00   0.00     0.05   0.00   0.17     0.00   0.00  -0.00
  11   1    -0.00   0.00   0.00    -0.03   0.12  -0.13    -0.00   0.00   0.00
                     22                     23                     24
                        a                      a                      a 
 Frequencies --  2917.5853              2940.9536              3089.5001
 Red. masses --     1.9461                 1.1711                 1.4810
 Frc consts  --     0.0000                 0.0000                 0.0000
 IR Inten    --    81.4866                69.5215                64.0802
 Raman Activ --     0.0000                 0.0000                 0.0000
 Depolar     --     0.0000                 0.0000                 0.0000
 Atom AN      X      Y      Z        X      Y      Z        X      Y      Z
   1   6     0.00  -0.00  -0.00    -0.00   0.00   0.00    -0.01  -0.02  -0.01
   2   6     0.29   0.01  -0.01    -0.03  -0.11  -0.03     0.00   0.00   0.00
   3   1    -0.64  -0.28  -0.02     0.62   0.24   0.01    -0.01  -0.00  -0.00
   4   1    -0.00   0.00   0.00     0.00  -0.00   0.00     0.04   0.02   0.13
   5   1    -0.00   0.00   0.00    -0.00   0.00  -0.00    -0.01   0.10  -0.08
   6  16     0.00  -0.00  -0.00     0.00  -0.01  -0.00    -0.00  -0.00  -0.00
   7   1    -0.25   0.26  -0.34    -0.32   0.25  -0.34     0.00  -0.00   0.00
   8   1    -0.12  -0.02   0.41    -0.21  -0.03   0.46     0.00   0.00  -0.00
   9   6     0.00   0.00   0.00    -0.00  -0.00  -0.00    -0.04  -0.19  -0.06
  10   1     0.00  -0.00   0.00    -0.00   0.00  -0.00    -0.08   0.54  -0.44
  11   1    -0.00  -0.00  -0.00     0.00   0.00   0.00     0.20   0.10   0.62
                     25                     26                     27
                        a                      a                      a 
 Frequencies --  3099.3910              3101.9079              3119.8796
 Red. masses --     2.0150                 1.5632                 2.1556
 Frc consts  --     0.0000                 0.0000                 0.0000
 IR Inten    --     9.6521                36.2935               146.9095
 Raman Activ --     0.0000                 0.0000                 0.0000
 Depolar     --     0.0000                 0.0000                 0.0000
 Atom AN      X      Y      Z        X      Y      Z        X      Y      Z
   1   6    -0.03   0.07  -0.14    -0.05  -0.20  -0.07    -0.06   0.09  -0.24
   2   6    -0.00   0.00  -0.00    -0.00   0.00   0.00     0.00  -0.00   0.00
   3   1     0.00  -0.00   0.00     0.00  -0.00  -0.00    -0.00   0.00  -0.00
   4   1     0.10   0.08   0.28     0.22   0.11   0.65     0.19   0.12   0.53
   5   1     0.03  -0.35   0.25    -0.06   0.50  -0.41     0.04  -0.44   0.32
   6  16     0.00   0.00  -0.00    -0.00  -0.00  -0.00    -0.00   0.00   0.00
   7   1     0.00  -0.00   0.00     0.00  -0.00   0.00     0.00   0.00  -0.00
   8   1     0.00  -0.00   0.00    -0.00  -0.00  -0.00    -0.00  -0.00   0.00
   9   6     0.06  -0.09   0.23     0.02   0.05   0.04    -0.04   0.06  -0.17
  10   1    -0.05   0.45  -0.32     0.01  -0.06   0.05     0.03  -0.29   0.21
  11   1    -0.17  -0.13  -0.53    -0.05  -0.03  -0.17     0.11   0.08   0.35
