      -----------------------------------------------------------      
     |                   =====================                   |     
     |                           x T B                           |     
     |                   =====================                   |     
     |                         S. Grimme                         |     
     |          Mulliken Center for Theoretical Chemistry        |     
     |                    University of Bonn                     |     
      -----------------------------------------------------------      

   * xtb version 6.7.1 (edcfbbe) compiled by 'albert@albert-system' on 2024-07-22

   xtb is free software: you can redistribute it and/or modify it under
   the terms of the GNU Lesser General Public License as published by
   the Free Software Foundation, either version 3 of the License, or
   (at your option) any later version.
   
   xtb is distributed in the hope that it will be useful,
   but WITHOUT ANY WARRANTY; without even the implied warranty of
   MERCHANTABILITY or FITNESS FOR A PARTICULAR PURPOSE.  See the
   GNU Lesser General Public License for more details.
   
   Cite this work as:
   * C. Bannwarth, E. Caldeweyher, S. Ehlert, A. Hansen, P. Pracht,
     J. Seibert, S. Spicher, S. Grimme, WIREs Comput. Mol. Sci., 2020, 11,
     e01493. DOI: 10.1002/wcms.1493
   
   for GFN2-xTB:
   * C. Bannwarth, S. Ehlert and S. Grimme., J. Chem. Theory Comput., 2019,
     15, 1652-1671. DOI: 10.1021/acs.jctc.8b01176
   for GFN1-xTB:
   * S. Grimme, C. Bannwarth, P. Shushkov, J. Chem. Theory Comput., 2017,
     13, 1989-2009. DOI: 10.1021/acs.jctc.7b00118
   for GFN0-xTB:
   * P. Pracht, E. Caldeweyher, S. Ehlert, S. Grimme, ChemRxiv, 2019, preprint.
     DOI: 10.26434/chemrxiv.8326202.v1
   for GFN-FF:
   * S. Spicher and S. Grimme, Angew. Chem. Int. Ed., 2020, 59, 15665-15673.
     DOI: 10.1002/anie.202004239
   
   for ALPB and GBSA implicit solvation:
   * S. Ehlert, M. Stahn, S. Spicher, S. Grimme, J. Chem. Theory Comput.,
     2021, 17, 4250-4261. DOI: 10.1021/acs.jctc.1c00471
   
   for ddCOSMO and CPCM-X implicit solvation:
   * M. Stahn, S. Ehlert, S. Grimme, J. Phys. Chem. A,
     2023, XX, XXXX-XXXX. DOI: 10.1021/acs.jpca.3c04382
   
   for DFT-D4:
   * E. Caldeweyher, C. Bannwarth and S. Grimme, J. Chem. Phys., 2017,
     147, 034112. DOI: 10.1063/1.4993215
   * E. Caldeweyher, S. Ehlert, A. Hansen, H. Neugebauer, S. Spicher,
     C. Bannwarth and S. Grimme, J. Chem. Phys., 2019, 150, 154122.
     DOI: 10.1063/1.5090222
   * E. Caldeweyher, J.-M. Mewes, S. Ehlert and S. Grimme, Phys. Chem. Chem. Phys.
     2020, 22, 8499-8512. DOI: 10.1039/D0CP00502A
   
   for sTDA-xTB:
   * S. Grimme and C. Bannwarth, J. Chem. Phys., 2016, 145, 054103.
     DOI: 10.1063/1.4959605
   
   in the mass-spec context:
   * V. Asgeirsson, C. Bauer and S. Grimme, Chem. Sci., 2017, 8, 4879.
     DOI: 10.1039/c7sc00601b
   * J. Koopman and S. Grimme, ACS Omega 2019, 4, 12, 15120-15133.
     DOI: 10.1021/acsomega.9b02011
   
   for metadynamics refer to:
   * S. Grimme, J. Chem. Theory Comput., 2019, 155, 2847-2862
     DOI: 10.1021/acs.jctc.9b00143
   
   for SPH calculations refer to:
   * S. Spicher and S. Grimme, J. Chem. Theory Comput., 2021, 17, 1701-1714
     DOI: 10.1021/acs.jctc.0c01306
   
   for ONIOM refer to:
   * C. Plett, A. Katbashev, S. Ehlert, S. Grimme, M. Bursch,
     Phys. Chem. Chem. Phys., 2023, 25, 17860-17868. DOI: 10.1039/D3CP02178E
   
   for DIPRO refer to:
   * J. Kohn, N. Gildemeister, S. Grimme, D. Fazzi, A. Hansen,
     J. Chem. Phys., 2023, just accepted.
   
   for PTB refer to:
   * S. Grimme, M. Mueller, A. Hansen, J. Chem. Phys., 2023, 158, 124111.
     DOI: 10.1063/5.0137838
   
   with help from (in alphabetical order)
   P. Atkinson, C. Bannwarth, F. Bohle, G. Brandenburg, E. Caldeweyher
   M. Checinski, S. Dohm, S. Ehlert, S. Ehrlich, I. Gerasimov, C. Hölzer
   A. Katbashev, J. Kohn, J. Koopman, C. Lavigne, S. Lehtola, F. März, M. Müller,
   F. Musil, H. Neugebauer, J. Pisarek, C. Plett, P. Pracht, F. Pultar,
   J. Seibert, P. Shushkov, S. Spicher, M. Stahn, M. Steiner, T. Strunk,
   J. Stückrath, T. Rose, and J. Unsleber
   
 * started run on 2025/10/18 at 18:38:03.869     
   ID    Z sym.   atoms
    1    6 C      1, 2, 9
    2    1 H      3-5, 7, 8, 10, 11
    3   16 S      6

           -------------------------------------------------
          |                Calculation Setup                |
           -------------------------------------------------

          program call               : xtb xyz.xyz --alpb water --charge -1 --ohess
          hostname                   : m003
          coordinate file            : xyz.xyz
          omp threads                :                     2


molecular fragmentation (1/2 indicates fragments):
12211222111
# atoms in fragment 1/2:     6     5
 fragment masses (1/2) :       28.05       47.10
CMA distance (Bohr)    :   7.119
constraining FC (au)   :  0.0500

           -------------------------------------------------
          |                 G F N 2 - x T B                 |
           -------------------------------------------------

        Reference                      10.1021/acs.jctc.8b01176
      * Hamiltonian:
        H0-scaling (s, p, d)           1.850000    2.230000    2.230000
        zeta-weighting                 0.500000
      * Dispersion:
        s8                             2.700000
        a1                             0.520000
        a2                             5.000000
        s9                             5.000000
      * Repulsion:
        kExp                           1.500000    1.000000
        rExp                           1.000000
      * Coulomb:
        alpha                          2.000000
        third order                    shell-resolved
        anisotropic                    true
        a3                             3.000000
        a5                             4.000000
        cn-shift                       1.200000
        cn-exp                         4.000000
        max-rad                        5.000000

      * Solvation model:               ALPB
        Solvent                        water
        Parameter file                 internal GFN2-xTB/ALPB
        Dielectric constant                8.0200E+01
        Reference state                gsolv [1 M gas/solution]
        Free energy shift                  1.0808E-03 Eh       6.7819E-01 kcal/mol
        Temperature                        2.9815E+02 K
        Density                            1.0000E+00 kg/L
        Solvent mass                       1.8000E+01 g/mol
        Interaction kernel             P16
        Born radius scaling (c1)           1.4744E+00
        Born radii integrator          GBOBC
        Born offset                        0.0000E+00 a0       0.0000E+00 AA
        H-bond correction              true
        Ion screening                  false
        Surface tension                    1.0000E-05 Eh       1.5569E+01 dyn/cm
        Grid points                               230 per atom
q/qsh data taken from xtbrestart
CAMM data taken from xtbrestart

          ...................................................
          :                      SETUP                      :
          :.................................................:
          :  # basis functions                  29          :
          :  # atomic orbitals                  28          :
          :  # shells                           16          :
          :  # electrons                        26          :
          :  max. iterations                   250          :
          :  Hamiltonian                  GFN2-xTB          :
          :  restarted?                       true          :
          :  GBSA solvation                   true          :
          :  PC potential                    false          :
          :  electronic temp.          300.0000000     K    :
          :  accuracy                    1.0000000          :
          :  -> integral cutoff          0.2500000E+02      :
          :  -> integral neglect         0.1000000E-07      :
          :  -> SCF convergence          0.1000000E-05 Eh   :
          :  -> wf. convergence          0.1000000E-03 e    :
          :  Broyden damping             0.4000000          :
          :  net charge                         -1          :
          :  unpaired electrons                  0          :
          ...................................................

 iter      E             dE          RMSdq      gap      omega  full diag
   1    -13.6615576 -0.136616E+02  0.915E-01    2.27       0.0  T
   2    -13.6617356 -0.177937E-03  0.403E-01    2.24       1.0  T
   3    -13.6617688 -0.332651E-04  0.552E-02    2.22       1.0  T
   4    -13.6617678  0.102379E-05  0.357E-02    2.22       1.0  T
   5    -13.6617731 -0.526820E-05  0.366E-03    2.22       8.2  T
   6    -13.6617731 -0.215411E-07  0.146E-03    2.22      20.7  T
   7    -13.6617731 -0.662835E-09  0.370E-04    2.22      81.5  T
   8    -13.6617731 -0.107793E-09  0.160E-04    2.22     189.0  T

   *** convergence criteria satisfied after 8 iterations ***

         #    Occupation            Energy/Eh            Energy/eV
      -------------------------------------------------------------
         1        2.0000           -0.6308359             -17.1659
       ...           ...                  ...                  ...
         7        2.0000           -0.4770187             -12.9803
         8        2.0000           -0.4687003             -12.7540
         9        2.0000           -0.4292903             -11.6816
        10        2.0000           -0.4153817             -11.3031
        11        2.0000           -0.4091472             -11.1335
        12        2.0000           -0.2845081              -7.7419
        13        2.0000           -0.2844668              -7.7407 (HOMO)
        14                         -0.2030560              -5.5254 (LUMO)
        15                         -0.1185744              -3.2266
        16                          0.0463421               1.2610
        17                          0.0469891               1.2786
        18                          0.0633809               1.7247
       ...                                ...                  ...
        28                          0.6063773              16.5004
      -------------------------------------------------------------
                  HL-Gap            0.0814108 Eh            2.2153 eV
             Fermi-level           -0.2437614 Eh           -6.6331 eV

 SCC (total)                   0 d,  0 h,  0 min,  0.029 sec
 SCC setup                      ...        0 min,  0.000 sec (  1.334%)
 Dispersion                     ...        0 min,  0.000 sec (  0.227%)
 classical contributions        ...        0 min,  0.000 sec (  0.094%)
 integral evaluation            ...        0 min,  0.024 sec ( 85.094%)
 iterations                     ...        0 min,  0.003 sec (  8.726%)
 molecular gradient             ...        0 min,  0.001 sec (  4.126%)
 printout                       ...        0 min,  0.000 sec (  0.292%)

         :::::::::::::::::::::::::::::::::::::::::::::::::::::
         ::                     SUMMARY                     ::
         :::::::::::::::::::::::::::::::::::::::::::::::::::::
         :: total energy             -13.474353830325 Eh    ::
         :: total w/o Gsasa/hb       -13.476602049996 Eh    ::
         :: gradient norm              0.011958092079 Eh/a0 ::
         :: HOMO-LUMO gap              2.215300458307 eV    ::
         ::.................................................::
         :: SCC energy               -13.661761204315 Eh    ::
         :: -> isotropic ES            0.156185114272 Eh    ::
         :: -> anisotropic ES          0.002673700222 Eh    ::
         :: -> anisotropic XC          0.014572501715 Eh    ::
         :: -> dispersion             -0.005678702411 Eh    ::
         :: -> Gsolv                  -0.100351330125 Eh    ::
         ::    -> Gelec               -0.102599549796 Eh    ::
         ::    -> Gsasa                0.001506384827 Eh    ::
         ::    -> Ghb                 -0.000338924854 Eh    ::
         ::    -> Gshift               0.001080759698 Eh    ::
         :: repulsion energy           0.187407373990 Eh    ::
         :: add. restraining           0.000000000000 Eh    ::
         :: total charge              -1.000000000000 e     ::
         :::::::::::::::::::::::::::::::::::::::::::::::::::::

      ----------------------------------------------------------- 
     |                   =====================                   |
     |                        A N C O P T                        |
     |                   =====================                   |
     |               Approximate Normal Coordinate               |
     |                Rational Function Optimizer                |
      ----------------------------------------------------------- 
      ----------------------------------------------------------- 
     |                   =====================                   |
     |                        A N C O P T                        |
     |                   =====================                   |
     |               Approximate Normal Coordinate               |
     |                Rational Function Optimizer                |
      ----------------------------------------------------------- 

          ...................................................
          :                      SETUP                      :
          :.................................................:
          :   optimization level            normal          :
          :   max. optcycles                   200          :
          :   ANC micro-cycles                  20          :
          :   degrees of freedom                27          :
          :.................................................:
          :   RF solver                   davidson          :
          :   write xtbopt.log                true          :
          :   linear?                        false          :
          :   energy convergence         0.5000000E-05 Eh   :
          :   grad. convergence          0.1000000E-02 Eh/α :
          :   maxmium RF displ.          1.0000000          :
          :   Hlow (freq-cutoff)         0.1000000E-01      :
          :   Hmax (freq-cutoff)         5.0000000          :
          :   S6 in model hess.         20.0000000          :
          ...................................................

generating ANC from exact Hessian ...
Using Lindh-Hessian (1995)
 Shifting diagonal of input Hessian by   9.201464857219052E-003
 Lowest  eigenvalues of input Hessian
    0.000000    0.000000    0.000000    0.000000    0.000000    0.000000
    0.010000    0.010209    0.010256    0.010351    0.010566    0.010901
    0.031951    0.043830    0.079195    0.079275    0.089157    0.097837
 Highest eigenvalues
    1.091176    1.110170    1.110794    1.118393    1.517366    1.969506
 

........................................................................
.............................. CYCLE    1 ..............................
........................................................................

 iter      E             dE          RMSdq      gap      omega  full diag
   1    -13.6617731 -0.136618E+02  0.764E-05    2.22       0.0  T
   2    -13.6617731 -0.257927E-11  0.519E-05    2.22     580.5  T
   3    -13.6617731 -0.162359E-11  0.159E-05    2.22    1895.6  T
     SCC iter.                  ...        0 min,  0.001 sec
     gradient                   ...        0 min,  0.001 sec
 * total energy  :   -13.4743538 Eh     change       -0.1794653E-10 Eh
   gradient norm :     0.0119571 Eh/α   predicted     0.0000000E+00 (-100.00%)
   displ. norm   :     0.1056946 α      lambda       -0.7557170E-03
   maximum displ.:     0.0749954 α      in ANC's #8, #16, #4, ...

........................................................................
.............................. CYCLE    2 ..............................
........................................................................

 iter      E             dE          RMSdq      gap      omega  full diag
   1    -13.6599460 -0.136599E+02  0.195E-01    2.21       0.0  T
   2    -13.6599529 -0.689186E-05  0.114E-01    2.22       1.0  T
   3    -13.6599454  0.746815E-05  0.415E-02    2.22       1.0  T
   4    -13.6599549 -0.942928E-05  0.114E-02    2.22       2.7  T
   5    -13.6599551 -0.252119E-06  0.524E-03    2.22       5.8  T
   6    -13.6599551 -0.292113E-07  0.924E-04    2.22      32.6  T
   7    -13.6599551 -0.115030E-09  0.147E-04    2.22     205.0  T
     SCC iter.                  ...        0 min,  0.001 sec
     gradient                   ...        0 min,  0.001 sec
 * total energy  :   -13.4746124 Eh     change       -0.2585527E-03 Eh
   gradient norm :     0.0054353 Eh/α   predicted    -0.3820803E-03 (  47.78%)
   displ. norm   :     0.0823903 α      lambda       -0.2959369E-03
   maximum displ.:     0.0510911 α      in ANC's #8, #4, #6, ...

........................................................................
.............................. CYCLE    3 ..............................
........................................................................

 iter      E             dE          RMSdq      gap      omega  full diag
   1    -13.6595533 -0.136596E+02  0.119E-01    2.24       0.0  T
   2    -13.6595561 -0.279061E-05  0.659E-02    2.25       1.0  T
   3    -13.6595547  0.140104E-05  0.225E-02    2.25       1.3  T
   4    -13.6595567 -0.205382E-05  0.853E-03    2.25       3.5  T
   5    -13.6595569 -0.155632E-06  0.354E-03    2.25       8.5  T
   6    -13.6595569 -0.239963E-07  0.530E-04    2.25      56.9  T
   7    -13.6595569 -0.759677E-10  0.834E-05    2.25     361.4  T
     SCC iter.                  ...        0 min,  0.001 sec
     gradient                   ...        0 min,  0.001 sec
 * total energy  :   -13.4747336 Eh     change       -0.1212241E-03 Eh
   gradient norm :     0.0026956 Eh/α   predicted    -0.1489723E-03 (  22.89%)
   displ. norm   :     0.0454479 α      lambda       -0.5254426E-04
   maximum displ.:     0.0307029 α      in ANC's #4, #6, #16, ...

........................................................................
.............................. CYCLE    4 ..............................
........................................................................

 iter      E             dE          RMSdq      gap      omega  full diag
   1    -13.6596862 -0.136597E+02  0.551E-02    2.24       0.0  T
   2    -13.6596868 -0.647709E-06  0.268E-02    2.25       1.1  T
   3    -13.6596869 -0.576686E-07  0.594E-03    2.25       5.1  T
   4    -13.6596869 -0.516517E-07  0.346E-03    2.25       8.7  T
   5    -13.6596869 -0.217242E-07  0.134E-03    2.25      22.5  T
   6    -13.6596869 -0.660217E-08  0.488E-04    2.25      61.8  T
   7    -13.6596869 -0.106844E-09  0.580E-05    2.25     519.8  T
     SCC iter.                  ...        0 min,  0.001 sec
     gradient                   ...        0 min,  0.001 sec
 * total energy  :   -13.4747732 Eh     change       -0.3961336E-04 Eh
   gradient norm :     0.0012184 Eh/α   predicted    -0.2632801E-04 ( -33.54%)
   displ. norm   :     0.1362563 α      lambda       -0.4905066E-04
   maximum displ.:     0.0924526 α      in ANC's #6, #4, #1, ...

........................................................................
.............................. CYCLE    5 ..............................
........................................................................

 iter      E             dE          RMSdq      gap      omega  full diag
   1    -13.6597420 -0.136597E+02  0.150E-01    2.25       0.0  T
   2    -13.6597471 -0.508055E-05  0.646E-02    2.25       1.0  T
   3    -13.6597481 -0.992822E-06  0.855E-03    2.25       3.5  T
   4    -13.6597480  0.857019E-07  0.521E-03    2.25       5.8  T
   5    -13.6597482 -0.137928E-06  0.122E-03    2.25      24.7  T
   6    -13.6597482 -0.721224E-09  0.629E-04    2.25      47.9  T
   7    -13.6597482 -0.203645E-09  0.125E-04    2.25     240.3  T
     SCC iter.                  ...        0 min,  0.001 sec
     gradient                   ...        0 min,  0.001 sec
 * total energy  :   -13.4748225 Eh     change       -0.4930906E-04 Eh
   gradient norm :     0.0015576 Eh/α   predicted    -0.2472952E-04 ( -49.85%)
   displ. norm   :     0.1146339 α      lambda       -0.2812678E-04
   maximum displ.:     0.0802915 α      in ANC's #6, #4, #1, ...

........................................................................
.............................. CYCLE    6 ..............................
........................................................................

 iter      E             dE          RMSdq      gap      omega  full diag
   1    -13.6598145 -0.136598E+02  0.129E-01    2.26       0.0  T
   2    -13.6598184 -0.389745E-05  0.554E-02    2.26       1.0  T
   3    -13.6598188 -0.408748E-06  0.101E-02    2.26       3.0  T
   4    -13.6598192 -0.421782E-06  0.481E-03    2.26       6.3  T
   5    -13.6598193 -0.255150E-07  0.109E-03    2.26      27.8  T
   6    -13.6598193 -0.218307E-08  0.260E-04    2.26     115.9  T
   7    -13.6598193 -0.162039E-10  0.709E-05    2.26     425.4  T
     SCC iter.                  ...        0 min,  0.001 sec
     gradient                   ...        0 min,  0.001 sec
 * total energy  :   -13.4748552 Eh     change       -0.3270408E-04 Eh
   gradient norm :     0.0020067 Eh/α   predicted    -0.1414538E-04 ( -56.75%)
   displ. norm   :     0.0902062 α      lambda       -0.2712753E-04
   maximum displ.:     0.0618937 α      in ANC's #6, #4, #1, ...

........................................................................
.............................. CYCLE    7 ..............................
........................................................................

 iter      E             dE          RMSdq      gap      omega  full diag
   1    -13.6599777 -0.136600E+02  0.990E-02    2.26       0.0  T
   2    -13.6599799 -0.222327E-05  0.422E-02    2.27       1.0  T
   3    -13.6599803 -0.420279E-06  0.513E-03    2.27       5.9  T
   4    -13.6599803  0.118659E-07  0.319E-03    2.27       9.4  T
   5    -13.6599803 -0.405120E-07  0.514E-04    2.27      58.7  T
   6    -13.6599803 -0.653031E-09  0.218E-04    2.27     138.5  T
     SCC iter.                  ...        0 min,  0.001 sec
     gradient                   ...        0 min,  0.001 sec
 * total energy  :   -13.4748763 Eh     change       -0.2105312E-04 Eh
   gradient norm :     0.0017346 Eh/α   predicted    -0.1367232E-04 ( -35.06%)
   displ. norm   :     0.1790543 α      lambda       -0.2425105E-04
   maximum displ.:     0.1238721 α      in ANC's #6, #4, #1, ...

........................................................................
.............................. CYCLE    8 ..............................
........................................................................

 iter      E             dE          RMSdq      gap      omega  full diag
   1    -13.6599344 -0.136599E+02  0.200E-01    2.27       0.0  T
   2    -13.6599433 -0.896223E-05  0.854E-02    2.28       1.0  T
   3    -13.6599445 -0.114943E-05  0.145E-02    2.29       2.1  T
   4    -13.6599452 -0.706854E-06  0.772E-03    2.29       3.9  T
   5    -13.6599453 -0.846191E-07  0.147E-03    2.29      20.6  T
   6    -13.6599453 -0.339119E-08  0.633E-04    2.29      47.6  T
   7    -13.6599453 -0.172390E-09  0.176E-04    2.29     170.9  T
     SCC iter.                  ...        0 min,  0.001 sec
     gradient                   ...        0 min,  0.001 sec
 * total energy  :   -13.4748977 Eh     change       -0.2137769E-04 Eh
   gradient norm :     0.0012679 Eh/α   predicted    -0.1229812E-04 ( -42.47%)
   displ. norm   :     0.0610709 α      lambda       -0.5734379E-05
   maximum displ.:     0.0439875 α      in ANC's #6, #4, #1, ...

........................................................................
.............................. CYCLE    9 ..............................
........................................................................

 iter      E             dE          RMSdq      gap      omega  full diag
   1    -13.6600754 -0.136601E+02  0.729E-02    2.29       0.0  T
   2    -13.6600766 -0.123124E-05  0.321E-02    2.29       1.0  T
   3    -13.6600767 -0.703503E-07  0.705E-03    2.29       4.3  T
   4    -13.6600768 -0.174871E-06  0.363E-03    2.29       8.3  T
   5    -13.6600769 -0.232249E-07  0.122E-03    2.29      24.8  T
   6    -13.6600769 -0.258386E-08  0.187E-04    2.29     161.5  T
   7    -13.6600769 -0.195683E-10  0.573E-05    2.29     526.3  T
     SCC iter.                  ...        0 min,  0.001 sec
     gradient                   ...        0 min,  0.001 sec
 * total energy  :   -13.4749037 Eh     change       -0.6005916E-05 Eh
   gradient norm :     0.0004469 Eh/α   predicted    -0.2870452E-05 ( -52.21%)
   displ. norm   :     0.0718499 α      lambda       -0.3784416E-05
   maximum displ.:     0.0579227 α      in ANC's #6, #1, #4, ...

........................................................................
.............................. CYCLE   10 ..............................
........................................................................

 iter      E             dE          RMSdq      gap      omega  full diag
   1    -13.6599101 -0.136599E+02  0.920E-02    2.29       0.0  T
   2    -13.6599119 -0.179603E-05  0.406E-02    2.30       1.0  T
   3    -13.6599119 -0.410807E-07  0.933E-03    2.30       3.2  T
   4    -13.6599123 -0.371845E-06  0.442E-03    2.30       6.8  T
   5    -13.6599123 -0.211085E-07  0.663E-04    2.30      45.5  T
   6    -13.6599123 -0.863206E-09  0.200E-04    2.30     150.8  T
     SCC iter.                  ...        0 min,  0.001 sec
     gradient                   ...        0 min,  0.001 sec
 * total energy  :   -13.4749074 Eh     change       -0.3719033E-05 Eh
   gradient norm :     0.0004701 Eh/α   predicted    -0.1896686E-05 ( -49.00%)
   displ. norm   :     0.0546941 α      lambda       -0.3085836E-05
   maximum displ.:     0.0453981 α      in ANC's #6, #1, #2, ...

   *** GEOMETRY OPTIMIZATION CONVERGED AFTER 10 ITERATIONS ***

------------------------------------------------------------------------
 total energy gain   :        -0.0005536 Eh       -0.3474 kcal/mol
 total RMSD          :         0.2394208 a0        0.1267 Å
 total power (kW/mol):        -0.1453369 (step)  -22.6205 (real)
------------------------------------------------------------------------

 ANCopt (total)                0 d,  0 h,  0 min,  0.064 sec
 optimizer setup                ...        0 min,  0.000 sec (  0.301%)
 model hessian                  ...        0 min,  0.001 sec (  2.010%)
 ANC generation                 ...        0 min,  0.000 sec (  0.283%)
 coordinate transformation      ...        0 min,  0.000 sec (  0.105%)
 single point calculation       ...        0 min,  0.028 sec ( 43.895%)
 optimization log               ...        0 min,  0.033 sec ( 51.879%)
 hessian update                 ...        0 min,  0.000 sec (  0.116%)
 rational function              ...        0 min,  0.001 sec (  0.802%)

================
 final structure:
================
11
 xtb: 6.7.1 (edcfbbe)
C           -3.75218359399064        2.01282842919559        0.47232081789116
C           -0.14290636255030        1.21199380208900       -0.44851255277752
H           -1.13840630758296        0.76391274787203       -0.48677735939353
H           -3.40110917811583        2.22479944896482        1.46875675658501
H           -3.83005304271895        2.86660694580042       -0.18043176559372
S           -0.27234822034203        2.91167153766222        0.15276866553066
H            0.49212503363657        0.63286890446852        0.22587750114137
H            0.29677292954781        1.21004766753610       -1.44877895438565
C           -4.01068226281870        0.78833333641161        0.06242026697319
H           -3.90245502050612       -0.06406430512370        0.71322970338793
H           -4.33222297455891        0.58185248512296       -0.94536707935909
 
 Bond Distances (Angstroems)
 ---------------------------
C1-H4=1.0775         C1-H5=1.0775         C1-C9=1.3169         C2-H3=1.0924         C2-S6=1.8075         C2-H7=1.0925         
C2-H8=1.0926         H3-C2=1.0924         H4-C1=1.0775         H5-C1=1.0775         S6-C2=1.8075         H7-C2=1.0925         
H8-C2=1.0926         C9-C1=1.3169         C9-H10=1.0779        C9-H11=1.0778        H10-C9=1.0779        H11-C9=1.0778        
 C  H  Rav=1.0840 sigma=0.0073  Rmin=1.0775  Rmax=1.0926     7
 C  C  Rav=1.3169 sigma=0.0000  Rmin=1.3169  Rmax=1.3169     1
 S  C  Rav=1.8075 sigma=0.0000  Rmin=1.8075  Rmax=1.8075     1
 
 selected bond angles (degree)
 --------------------
H5-C1-H4=115.33                C9-C1-H4=122.32                C9-C1-H5=122.28                S6-C2-H3=109.40                
H7-C2-H3=109.51                H7-C2-S6=109.56                H8-C2-H3=109.51                H8-C2-S6=109.57                
H8-C2-H7=109.29                H10-C9-C1=121.85               H11-C9-C1=121.85               H11-C9-H10=116.30              
 
 selected dihedral angles (degree)
 ---------------------------------
H10-C9-C1-H4=  1.28           H10-C9-C1-H5=178.16           H11-C9-C1-H4=181.94           H11-C9-C1-H5=358.81           
 
 CMA Distance (Angstroems)
 ---------------------------
R(CMA):  3.7837
           -------------------------------------------------
          |                Final Singlepoint                |
           -------------------------------------------------

          ...................................................
          :                      SETUP                      :
          :.................................................:
          :  # basis functions                  29          :
          :  # atomic orbitals                  28          :
          :  # shells                           16          :
          :  # electrons                        26          :
          :  max. iterations                   250          :
          :  Hamiltonian                  GFN2-xTB          :
          :  restarted?                      false          :
          :  GBSA solvation                   true          :
          :  PC potential                    false          :
          :  electronic temp.          300.0000000     K    :
          :  accuracy                    1.0000000          :
          :  -> integral cutoff          0.2500000E+02      :
          :  -> integral neglect         0.1000000E-07      :
          :  -> SCF convergence          0.1000000E-05 Eh   :
          :  -> wf. convergence          0.1000000E-03 e    :
          :  Broyden damping             0.4000000          :
          :  net charge                         -1          :
          :  unpaired electrons                  0          :
          ...................................................

 iter      E             dE          RMSdq      gap      omega  full diag
   1    -13.6599123 -0.136599E+02  0.508E-05    2.30       0.0  T
   2    -13.6599123 -0.904166E-12  0.356E-05    2.30     846.3  T
   3    -13.6599123 -0.458300E-12  0.898E-06    2.30    3356.0  T

   *** convergence criteria satisfied after 3 iterations ***

         #    Occupation            Energy/Eh            Energy/eV
      -------------------------------------------------------------
         1        2.0000           -0.6302026             -17.1487
       ...           ...                  ...                  ...
         7        2.0000           -0.4757656             -12.9462
         8        2.0000           -0.4665462             -12.6954
         9        2.0000           -0.4272276             -11.6255
        10        2.0000           -0.4152177             -11.2986
        11        2.0000           -0.4082523             -11.1091
        12        2.0000           -0.2854538              -7.7676
        13        2.0000           -0.2853508              -7.7648 (HOMO)
        14                         -0.2008542              -5.4655 (LUMO)
        15                         -0.1234396              -3.3590
        16                          0.0454142               1.2358
        17                          0.0457286               1.2443
        18                          0.0631628               1.7187
       ...                                ...                  ...
        28                          0.6102052              16.6045
      -------------------------------------------------------------
                  HL-Gap            0.0844966 Eh            2.2993 eV
             Fermi-level           -0.2431025 Eh           -6.6152 eV

 SCC (total)                   0 d,  0 h,  0 min,  0.002 sec
 SCC setup                      ...        0 min,  0.000 sec (  6.449%)
 Dispersion                     ...        0 min,  0.000 sec (  1.651%)
 classical contributions        ...        0 min,  0.000 sec (  0.395%)
 integral evaluation            ...        0 min,  0.000 sec ( 20.166%)
 iterations                     ...        0 min,  0.001 sec ( 25.659%)
 molecular gradient             ...        0 min,  0.001 sec ( 41.641%)
 printout                       ...        0 min,  0.000 sec (  2.960%)

         :::::::::::::::::::::::::::::::::::::::::::::::::::::
         ::                     SUMMARY                     ::
         :::::::::::::::::::::::::::::::::::::::::::::::::::::
         :: total energy             -13.474907389434 Eh    ::
         :: total w/o Gsasa/hb       -13.477076286284 Eh    ::
         :: gradient norm              0.000469796338 Eh/a0 ::
         :: HOMO-LUMO gap              2.299270214919 eV    ::
         ::.................................................::
         :: SCC energy               -13.659899193697 Eh    ::
         :: -> isotropic ES            0.154946155499 Eh    ::
         :: -> anisotropic ES          0.003607384746 Eh    ::
         :: -> anisotropic XC          0.014458932369 Eh    ::
         :: -> dispersion             -0.005581794332 Eh    ::
         :: -> Gsolv                  -0.099812550498 Eh    ::
         ::    -> Gelec               -0.101981447347 Eh    ::
         ::    -> Gsasa                0.001412811887 Eh    ::
         ::    -> Ghb                 -0.000324674736 Eh    ::
         ::    -> Gshift               0.001080759698 Eh    ::
         :: repulsion energy           0.184991804263 Eh    ::
         :: add. restraining           0.000000000000 Eh    ::
         :: total charge              -1.000000000000 e     ::
         :::::::::::::::::::::::::::::::::::::::::::::::::::::

           ------------------------------------------------- 
          |                Numerical Hessian                |
           ------------------------------------------------- 
step length          :   0.00500
SCC accuracy         :   0.30000
Hessian scale factor :   1.00000
frozen atoms in %    :   0.00000    0
RMS gradient         :   0.00047
estimated CPU  time      0.01 min
estimated wall time      0.00 min

writing file <hessian>.

 projected vibrational frequencies (cm⁻¹)
eigval :       -0.00    -0.00    -0.00    -0.00     0.00     0.00
eigval :      -36.81   -18.62    28.72    41.45    66.45    73.39
eigval :      726.95   838.43   862.08   941.03   943.98  1013.44
eigval :     1029.94  1177.84  1316.55  1392.40  1413.72  1486.50
eigval :     1487.11  1700.50  2907.72  2917.59  2940.95  3089.50
eigval :     3099.39  3101.91  3119.88
           -------------------------------------------------
          |                Property Printout                |
           -------------------------------------------------

    * Orbital Energies and Occupations

         #    Occupation            Energy/Eh            Energy/eV
      -------------------------------------------------------------
         1        2.0000           -0.6302027             -17.1487
         2        2.0000           -0.6050833             -16.4652
         3        2.0000           -0.5759898             -15.6735
         4        2.0000           -0.5452894             -14.8381
         5        2.0000           -0.5021621             -13.6645
         6        2.0000           -0.4761426             -12.9565
         7        2.0000           -0.4757656             -12.9462
         8        2.0000           -0.4665461             -12.6954
         9        2.0000           -0.4272276             -11.6255
        10        2.0000           -0.4152178             -11.2987
        11        2.0000           -0.4082522             -11.1091
        12        2.0000           -0.2854538              -7.7676
        13        2.0000           -0.2853509              -7.7648 (HOMO)
        14                         -0.2008541              -5.4655 (LUMO)
        15                         -0.1234397              -3.3590
        16                          0.0454141               1.2358
        17                          0.0457286               1.2443
        18                          0.0631628               1.7187
        19                          0.0637415               1.7345
        20                          0.1452939               3.9536
        21                          0.1523680               4.1461
        22                          0.1620411               4.4094
        23                          0.2088657               5.6835
        24                          0.2339001               6.3647
       ...                                ...                  ...
        28                          0.6102053              16.6045
      -------------------------------------------------------------
                  HL-Gap            0.0844968 Eh            2.2993 eV
             Fermi-level           -0.2431025 Eh           -6.6152 eV

     #   Z          covCN         q      C6AA      α(0)
     1   6 C        2.832    -0.063    29.546     8.907
     2   6 C        3.743     0.043    19.924     6.368
     3   1 H        0.924    -0.020     3.431     2.896
     4   1 H        0.926     0.033     2.539     2.492
     5   1 H        0.926     0.035     2.521     2.483
     6  16 S        0.970    -0.972   186.735    23.113
     7   1 H        0.924    -0.024     3.520     2.934
     8   1 H        0.924    -0.025     3.525     2.936
     9   6 C        2.832    -0.086    30.133     8.995
    10   1 H        0.926     0.038     2.472     2.459
    11   1 H        0.926     0.040     2.444     2.445

 Mol. C6AA /au·bohr⁶  :       1674.415550
 Mol. C8AA /au·bohr⁸  :      48195.098772
 Mol. α(0) /au        :         66.028091


Wiberg/Mayer (AO) data.
largest (>0.10) Wiberg bond orders for each atom

 ---------------------------------------------------------------------------
     #   Z sym  total        # sym  WBO       # sym  WBO       # sym  WBO
 ---------------------------------------------------------------------------
     1   6 C    3.991 --     9 C    2.031     4 H    0.977     5 H    0.977
     2   6 C    3.994 --     6 S    1.027     7 H    0.989     8 H    0.989
                             3 H    0.987
     3   1 H    1.000 --     2 C    0.987
     4   1 H    0.999 --     1 C    0.977
     5   1 H    0.999 --     1 C    0.977
     6  16 S    1.065 --     2 C    1.027
     7   1 H    0.999 --     2 C    0.989
     8   1 H    0.999 --     2 C    0.989
     9   6 C    3.992 --     1 C    2.031    10 H    0.977    11 H    0.977
    10   1 H    0.999 --     9 C    0.977
    11   1 H    0.998 --     9 C    0.977
 ---------------------------------------------------------------------------

Topologies differ in total number of bonds
Writing topology from bond orders to xtbtopo.mol

molecular dipole:
                 x           y           z       tot (Debye)
 q only:        0.509      -5.363      -0.247
   full:        0.604      -5.887      -0.443      15.084
molecular quadrupole (traceless):
                xx          xy          yy          xz          yz          zz
 q only:       13.893       4.189     -28.697       0.474      -2.169      14.804
  q+dip:       14.681       5.124     -33.504       1.391      -4.207      18.823
   full:       14.993       4.806     -33.124       0.936      -3.682      18.131

           -------------------------------------------------
          |                Geometry Summary                 |
           -------------------------------------------------

      molecular mass/u    :       75.1525804
   center of mass at/Å    :       -1.5917893       1.9938769       0.0701990
  moments of inertia/u·Å² :        0.5414210E+02   0.2621244E+03   0.3063720E+03
rotational constants/cm⁻¹ :        0.3113590E+00   0.6431156E-01   0.5502341E-01

 * 8 selected distances

     #   Z          #   Z                                           value/Å
     2   6 C        3   1 H                                       1.0923650
     1   6 C        4   1 H                                       1.0775295 (min)
     1   6 C        5   1 H                                       1.0775377
     2   6 C        7   1 H                                       1.0924526
     2   6 C        8   1 H                                       1.0926366
     1   6 C        9   6 C                                       1.3169011 (max)
     9   6 C       10   1 H                                       1.0778905
     9   6 C       11   1 H                                       1.0778025

 * 2 distinct bonds (by element types)

   Z      Z             #   av. dist./Å        max./Å        min./Å
   1 H    6 C           7     1.0840306     1.0926366     1.0775295
   6 C    6 C           1     1.3169011     1.3169011     1.3169011

           -------------------------------------------------
          |               Frequency Printout                |
           -------------------------------------------------
 projected vibrational frequencies (cm⁻¹)
eigval :       -0.00    -0.00    -0.00    -0.00     0.00     0.00
eigval :      -36.81   -18.62    28.72    41.45    66.45    73.39
eigval :      726.95   838.43   862.08   941.03   943.98  1013.44
eigval :     1029.94  1177.84  1316.55  1392.40  1413.72  1486.50
eigval :     1487.11  1700.50  2907.72  2917.59  2940.95  3089.50
eigval :     3099.39  3101.91  3119.88
 reduced masses (amu)
   1: 17.85   2: 19.53   3: 17.69   4: 19.60   5: 17.13   6: 10.58   7:  8.61   8: 12.41
   9:  6.55  10: 12.30  11:  9.20  12:  2.35  13: 17.55  14:  1.43  15:  5.11  16:  3.01
  17:  3.00  18:  2.61  19:  1.02  20:  5.25  21:  2.41  22:  1.84  23:  2.15  24:  1.69
  25:  1.69  26: 10.59  27:  1.95  28:  1.95  29:  1.17  30:  1.48  31:  2.01  32:  1.56
  33:  2.16
 IR intensities (km·mol⁻¹)
   1:  9.32   2: 18.18   3: 11.29   4: 16.86   5: 10.18   6:  0.95   7:  7.91   8:  8.31
   9:  5.84  10: 12.40  11:  3.24  12:  0.41  13:  1.48  14:  2.87  15:  2.35  16:  0.32
  17:  0.01  18: 47.36  19:  0.03  20:  0.03  21: 77.33  22:  1.47  23:  8.86  24:  2.76
  25:  2.33  26:  1.49  27:108.72  28: 81.49  29: 69.52  30: 64.08  31:  9.65  32: 36.29
  33:146.91
 Raman intensities (Ä⁴*amu⁻¹)
   1:  0.00   2:  0.00   3:  0.00   4:  0.00   5:  0.00   6:  0.00   7:  0.00   8:  0.00
   9:  0.00  10:  0.00  11:  0.00  12:  0.00  13:  0.00  14:  0.00  15:  0.00  16:  0.00
  17:  0.00  18:  0.00  19:  0.00  20:  0.00  21:  0.00  22:  0.00  23:  0.00  24:  0.00
  25:  0.00  26:  0.00  27:  0.00  28:  0.00  29:  0.00  30:  0.00  31:  0.00  32:  0.00
  33:  0.00
 output can be read by thermo (or use thermo option).
 writing <g98.out> molden fake output.
 recommended (thermochemical) frequency scaling factor: 1.0
           -------------------------------------------------
          |             Thermodynamic Functions             |
           -------------------------------------------------

Refinement of some symmetry elements was terminated before convergence was reached.
Some symmetry elements may remain unidentified.
Molecule has no symmetry elements
It seems to be the C1 point group
c1  symmetry found (for desy threshold:  0.10E+00) used in thermo
 inverting freq            2   18.6213092288195     

          ...................................................
          :                      SETUP                      :
          :.................................................:
          :  # frequencies                          26      :
          :  # imaginary freq.                       1      :
          :  linear?                             false      :
          :  only rotor calc.                    false      :
          :  symmetry                               c1      :
          :  rotational number                       1      :
          :  scaling factor                  1.0000000      :
          :  rotor cutoff                   50.0000000 cm⁻¹ :
          :  imag. cutoff                  -20.0000000 cm⁻¹ :
          :.................................................:

    mode    ω/cm⁻¹     T·S(HO)/kcal·mol⁻¹    T·S(FR)/kcal·mol⁻¹   T·S(vib)
   ------------------------------------------------------------------------
       1     18.62    -2.02027 (  1.89%)    -1.34786 ( 98.11%)    -1.36056
       2     28.72    -1.76389 (  9.81%)    -1.21999 ( 90.19%)    -1.27337
       3     41.45    -1.54696 ( 32.08%)    -1.11152 ( 67.92%)    -1.25121
       4     66.45    -1.26885 ( 75.73%)    -0.97192 ( 24.27%)    -1.19678
       5     73.39    -1.21059 ( 82.27%)    -0.94254 ( 17.73%)    -1.16307
   ------------------------------------------------------------------------

   temp. (K)  partition function   enthalpy   heat capacity  entropy
                                   cal/mol     cal/K/mol   cal/K/mol   J/K/mol
 298.15  VIB  0.676E+04             2931.516     11.225     22.106
         ROT  0.159E+06              888.752      2.981     26.785
         INT  0.108E+10             3820.268     14.205     48.891
         TR   0.630E+27             1481.254      4.968     38.849
         TOT                        5301.5218    19.1736    87.7404   367.1057

       T/K    H(0)-H(T)+PV         H(T)/Eh          T*S/Eh         G(T)/Eh
   ------------------------------------------------------------------------
    298.15    0.844851E-02    0.944175E-01    0.416883E-01    0.527293E-01
   ------------------------------------------------------------------------

         :::::::::::::::::::::::::::::::::::::::::::::::::::::
         ::                  THERMODYNAMIC                  ::
         :::::::::::::::::::::::::::::::::::::::::::::::::::::
         :: total free energy         -13.422178130406 Eh   ::
         ::.................................................::
         :: total energy              -13.474907389462 Eh   ::
         :: zero point energy           0.085969021330 Eh   ::
         :: G(RRHO) w/o ZPVE           -0.033239762274 Eh   ::
         :: G(RRHO) contrib.            0.052729259056 Eh   ::
         :::::::::::::::::::::::::::::::::::::::::::::::::::::
imag cut-off (cm-1) :    5.00
 found            2  significant imaginary frequencies
 writing imag mode distorted coords to xtbhess.xyz
 for further optimization.

optimized geometry written to: xtbopt.xyz


           -------------------------------------------------
          | TOTAL ENERGY              -13.474907389462 Eh   |
          | TOTAL ENTHALPY            -13.380489855331 Eh   |
          | TOTAL FREE ENERGY         -13.422178130406 Eh   |
          | GRADIENT NORM               0.000469764607 Eh/α |
          | HOMO-LUMO GAP               2.299274229304 eV   |
           -------------------------------------------------

------------------------------------------------------------------------
 * finished run on 2025/10/18 at 18:38:04.505     
------------------------------------------------------------------------
 total:
 * wall-time:     0 d,  0 h,  0 min,  0.635 sec
 *  cpu-time:     0 d,  0 h,  0 min,  0.786 sec
 * ratio c/w:     1.239 speedup
 SCF:
 * wall-time:     0 d,  0 h,  0 min,  0.029 sec
 *  cpu-time:     0 d,  0 h,  0 min,  0.036 sec
 * ratio c/w:     1.247 speedup
 ANC optimizer:
 * wall-time:     0 d,  0 h,  0 min,  0.176 sec
 *  cpu-time:     0 d,  0 h,  0 min,  0.211 sec
 * ratio c/w:     1.198 speedup
 analytical hessian:
 * wall-time:     0 d,  0 h,  0 min,  0.195 sec
 *  cpu-time:     0 d,  0 h,  0 min,  0.320 sec
 * ratio c/w:     1.639 speedup

