11
 energy: -13.474353830343 gnorm: 0.011957883218 xtb: 6.7.1 (edcfbbe)
C           -3.68327700576514        2.00986525418710        0.45721519507753
C           -0.24743497358793        1.21254586487420       -0.42753239943340
H           -1.28970709174318        0.90282263147006       -0.37303690147675
H           -3.34918690951905        2.22139614022043        1.45978935290035
H           -3.80326302677785        2.86379414802095       -0.18916858586200
S           -0.13177489209839        2.91551689704864        0.11393554884395
H            0.36356866997531        0.59311725193134        0.22473315521610
H            0.11234271201037        1.14336194851371       -1.45110350741774
C           -3.91838660228449        0.78162162037098        0.04298083002702
H           -3.79678437359097       -0.07354043165277        0.68894287107075
H           -4.24956550661857        0.57034967501497       -0.96124955894595
11
 energy: -13.474612383027 gnorm: 0.005436696325 xtb: 6.7.1 (edcfbbe)
C           -3.71517417904667        2.01171237995679        0.46623330619609
C           -0.23918019251948        1.21850587127459       -0.42717921223225
H           -1.27714346882131        0.88470290257306       -0.38298829110628
H           -3.34442118519939        2.22196249680986        1.45657791503674
H           -3.79625158454109        2.86315613511329       -0.19004842027750
S           -0.13804484965515        2.93236121223181        0.12143106408927
H            0.37226720440735        0.58882512278499        0.22114405059024
H            0.12342535197217        1.13945401268067       -1.45321178742590
C           -3.94150527480602        0.78290429496937        0.04925570643156
H           -3.79331425766336       -0.07334903036684        0.68816571180513
H           -4.24412656412694        0.57061560197202       -0.96387404310725
11
 energy: -13.474733607164 gnorm: 0.002697920294 xtb: 6.7.1 (edcfbbe)
C           -3.70552571932961        2.01010960529763        0.46247548850708
C           -0.23059451189991        1.21963220350909       -0.42851544831405
H           -1.26574240862518        0.87135186816739       -0.39136016497231
H           -3.35917568750822        2.22385206675592        1.45980690564180
H           -3.80861497581203        2.86422782047719       -0.18542818372310
S           -0.14641854268343        2.93877446712078        0.12588413395006
H            0.38343300747752        0.58927978773115        0.22004036406138
H            0.13689859922611        1.14133129375688       -1.45508023234727
C           -3.93327698754753        0.78152629488254        0.04584099359238
H           -3.80778281965818       -0.07159310387807        0.69253409265554
H           -4.25666895363946        0.57235869617910       -0.96069194905164
11
 energy: -13.474773220524 gnorm: 0.001222693832 xtb: 6.7.1 (edcfbbe)
C           -3.70977943779118        2.01026304460645        0.46336601897004
C           -0.22478884246888        1.21663105031606       -0.43066310171678
H           -1.25891673859012        0.86635057609647       -0.39575424458926
H           -3.36346502842978        2.22430322591236        1.46088560548895
H           -3.81123506394171        2.86469570737511       -0.18481797644648
S           -0.15336380037297        2.93476288718593        0.12635462928846
H            0.39239030687949        0.59329866534498        0.22108145371194
H            0.14765192973497        1.14692687025049       -1.45574340607045
C           -3.94078846371235        0.78202079272302        0.04766847756019
H           -3.81166396635319       -0.07123592759694        0.69357041268909
H           -4.25950989495420        0.57283410778567       -0.96044186888585
11
 energy: -13.474822529583 gnorm: 0.001559514154 xtb: 6.7.1 (edcfbbe)
C           -3.72390751514647        2.01087020552090        0.46644938357138
C           -0.20689735428696        1.21175741126383       -0.43581266190054
H           -1.23535664139364        0.84615856653136       -0.41267000260766
H           -3.37393853827879        2.22547692258958        1.46312181942702
H           -3.81869976488030        2.86595804464039       -0.18282332216363
S           -0.17659921584139        2.92937610834454        0.13115357840529
H            0.41680001647535        0.60283058162147        0.22216331244947
H            0.18027271341695        1.16060926229097       -1.45606148204963
C           -3.95614775055642        0.78292359777596        0.05084507969975
H           -3.82674458339365       -0.06979054216341        0.69742639394296
H           -4.27225036611464        0.57468084158401       -0.95828609877457
11
 energy: -13.474855233659 gnorm: 0.002007638016 xtb: 6.7.1 (edcfbbe)
C           -3.73074360539910        2.01130988052922        0.46766692054777
C           -0.19173460705807        1.21087366157680       -0.43910877486410
H           -1.21362582825899        0.82652850003791       -0.42883653053829
H           -3.38314183835465        2.22623284424322        1.46501583755806
H           -3.82590109132457        2.86677707044158       -0.18085248244761
S           -0.19675230052464        2.92793880546604        0.13670484080052
H            0.43510243382728        0.60919311049927        0.22183445158361
H            0.20670034951757        1.17033947236135       -1.45512548777994
C           -3.96836038470433        0.78398724418443        0.05343203860259
H           -3.84067886814350       -0.06851387365884        0.70056586332552
H           -4.28433325957696        0.57618428431861       -0.95579067678829
11
 energy: -13.474876286779 gnorm: 0.001735343365 xtb: 6.7.1 (edcfbbe)
C           -3.73778133050290        2.01201734698546        0.46929566413555
C           -0.17975993682139        1.21098814163301       -0.44144411115746
H           -1.19593367238254        0.81177330948868       -0.44182229223946
H           -3.38911918201829        2.22625047587365        1.46627624327977
H           -3.82998772924525        2.86705901317207       -0.18005106225137
S           -0.21183229001013        2.92541634594272        0.14042051625222
H            0.44880559412850        0.61420750990789        0.22197235070800
H            0.22728821006245        1.17845774376490       -1.45401017108169
C           -3.97589423297754        0.78487686285696        0.05488130191162
H           -3.85382548971168       -0.06750904068766        0.70319577741871
H           -4.29542894052123        0.57731329106190       -0.95320821697608
11
 energy: -13.474897664469 gnorm: 0.001268315300 xtb: 6.7.1 (edcfbbe)
C           -3.74857765149769        2.01318291889704        0.47167544562190
C           -0.15645821202668        1.21184770000218       -0.44582835483447
H           -1.16118006353009        0.78314402072378       -0.46783739207778
H           -3.40029645723851        2.22594524778783        1.46875362238341
H           -3.83635440393815        2.86733570464942       -0.17899167316599
S           -0.24244222454345        2.91927573587622        0.14751797002869
H            0.47550544750174        0.62413379771209        0.22296006091978
H            0.26847736971185        1.19506351590208       -1.45173976549866
C           -3.99559614082292        0.78711745930372        0.05923324920747
H           -3.88002141896185       -0.06567303762191        0.70825804946661
H           -4.31652524465427        0.57947793676711       -0.94849521205117
11
 energy: -13.474903670385 gnorm: 0.000447457055 xtb: 6.7.1 (edcfbbe)
C           -3.75081509814320        2.01312542416468        0.47208903993570
C           -0.14928560515253        1.21190307634697       -0.44722124621751
H           -1.14959438525317        0.77509311775069       -0.47626242764191
H           -3.40191840525306        2.22544238896436        1.46910493371143
H           -3.83503056126385        2.86707220481641       -0.17941271384342
S           -0.25475948995437        2.91546306384039        0.14938664444109
H            0.48380339219142        0.62784016742662        0.22408416904494
H            0.28181091679232        1.20163382146513       -1.45064961793052
C           -4.00298084149043        0.78775959999044        0.06082067697593
H           -3.89049073875545       -0.06497975280892        0.71048480211156
H           -4.32420818371773        0.58049788804280       -0.94691826058748
11
 energy: -13.474907389418 gnorm: 0.000470447862 xtb: 6.7.1 (edcfbbe)
C           -3.75218359399064        2.01282842919559        0.47232081789116
C           -0.14290636255030        1.21199380208900       -0.44851255277752
H           -1.13840630758296        0.76391274787203       -0.48677735939353
H           -3.40110917811583        2.22479944896482        1.46875675658501
H           -3.83005304271895        2.86660694580042       -0.18043176559372
S           -0.27234822034203        2.91167153766222        0.15276866553066
H            0.49212503363657        0.63286890446852        0.22587750114137
H            0.29677292954781        1.21004766753610       -1.44877895438565
C           -4.01068226281870        0.78833333641161        0.06242026697319
H           -3.90245502050612       -0.06406430512370        0.71322970338793
H           -4.33222297455891        0.58185248512296       -0.94536707935909
