
                                 *****************
                                 * O   R   C   A *
                                 *****************

                                            #,                                       
                                            ###                                      
                                            ####                                     
                                            #####                                    
                                            ######                                   
                                           ########,                                 
                                     ,,################,,,,,                         
                               ,,#################################,,                 
                          ,,##########################################,,             
                       ,#########################################, ''#####,          
                    ,#############################################,,   '####,        
                  ,##################################################,,,,####,       
                ,###########''''           ''''###############################       
              ,#####''   ,,,,##########,,,,          '''####'''          '####       
            ,##' ,,,,###########################,,,                        '##       
           ' ,,###''''                  '''############,,,                           
         ,,##''                                '''############,,,,        ,,,,,,###''
      ,#''                                            '''#######################'''  
     '                                                          ''''####''''         
             ,#######,   #######,   ,#######,      ##                                
            ,#'     '#,  ##    ##  ,#'     '#,    #''#        ######   ,####,        
            ##       ##  ##   ,#'  ##            #'  '#       #        #'  '#        
            ##       ##  #######   ##           ,######,      #####,   #    #        
            '#,     ,#'  ##    ##  '#,     ,#' ,#      #,         ##   #,  ,#        
             '#######'   ##     ##  '#######'  #'      '#     #####' # '####'        



                  #######################################################
                  #                        -***-                        #
                  #          Department of theory and spectroscopy      #
                  #    Directorship and core code : Frank Neese         #
                  #        Max Planck Institute fuer Kohlenforschung    #
                  #                Kaiser Wilhelm Platz 1               #
                  #                 D-45470 Muelheim/Ruhr               #
                  #                      Germany                        #
                  #                                                     #
                  #                  All rights reserved                #
                  #                        -***-                        #
                  #######################################################


                         Program Version 5.0.4 -  RELEASE  -


 With contributions from (in alphabetic order):
   Daniel Aravena         : Magnetic Suceptibility
   Michael Atanasov       : Ab Initio Ligand Field Theory (pilot matlab implementation)
   Alexander A. Auer      : GIAO ZORA, VPT2 properties, NMR spectrum
   Ute Becker             : Parallelization
   Giovanni Bistoni       : ED, misc. LED, open-shell LED, HFLD
   Martin Brehm           : Molecular dynamics
   Dmytro Bykov           : SCF Hessian
   Vijay G. Chilkuri      : MRCI spin determinant printing, contributions to CSF-ICE
   Dipayan Datta          : RHF DLPNO-CCSD density
   Achintya Kumar Dutta   : EOM-CC, STEOM-CC
   Dmitry Ganyushin       : Spin-Orbit,Spin-Spin,Magnetic field MRCI
   Miquel Garcia          : C-PCM and meta-GGA Hessian, CC/C-PCM, Gaussian charge scheme
   Yang Guo               : DLPNO-NEVPT2, F12-NEVPT2, CIM, IAO-localization
   Andreas Hansen         : Spin unrestricted coupled pair/coupled cluster methods
   Benjamin Helmich-Paris : MC-RPA, TRAH-SCF, COSX integrals
   Lee Huntington         : MR-EOM, pCC
   Robert Izsak           : Overlap fitted RIJCOSX, COSX-SCS-MP3, EOM
   Marcus Kettner         : VPT2
   Christian Kollmar      : KDIIS, OOCD, Brueckner-CCSD(T), CCSD density, CASPT2, CASPT2-K
   Simone Kossmann        : Meta GGA functionals, TD-DFT gradient, OOMP2, MP2 Hessian
   Martin Krupicka        : Initial AUTO-CI
   Lucas Lang             : DCDCAS
   Marvin Lechner         : AUTO-CI (C++ implementation), FIC-MRCC
   Dagmar Lenk            : GEPOL surface, SMD
   Dimitrios Liakos       : Extrapolation schemes; Compound Job, initial MDCI parallelization
   Dimitrios Manganas     : Further ROCIS development; embedding schemes
   Dimitrios Pantazis     : SARC Basis sets
   Anastasios Papadopoulos: AUTO-CI, single reference methods and gradients
   Taras Petrenko         : DFT Hessian,TD-DFT gradient, ASA, ECA, R-Raman, ABS, FL, XAS/XES, NRVS
   Peter Pinski           : DLPNO-MP2, DLPNO-MP2 Gradient
   Christoph Reimann      : Effective Core Potentials
   Marius Retegan         : Local ZFS, SOC
   Christoph Riplinger    : Optimizer, TS searches, QM/MM, DLPNO-CCSD(T), (RO)-DLPNO pert. Triples
   Tobias Risthaus        : Range-separated hybrids, TD-DFT gradient, RPA, STAB
   Michael Roemelt        : Original ROCIS implementation
   Masaaki Saitow         : Open-shell DLPNO-CCSD energy and density
   Barbara Sandhoefer     : DKH picture change effects
   Avijit Sen             : IP-ROCIS
   Kantharuban Sivalingam : CASSCF convergence, NEVPT2, FIC-MRCI
   Bernardo de Souza      : ESD, SOC TD-DFT
   Georgi Stoychev        : AutoAux, RI-MP2 NMR, DLPNO-MP2 response
   Willem Van den Heuvel  : Paramagnetic NMR
   Boris Wezisla          : Elementary symmetry handling
   Frank Wennmohs         : Technical directorship


 We gratefully acknowledge several colleagues who have allowed us to
 interface, adapt or use parts of their codes:
   Stefan Grimme, W. Hujo, H. Kruse, P. Pracht,  : VdW corrections, initial TS optimization,
                  C. Bannwarth, S. Ehlert          DFT functionals, gCP, sTDA/sTD-DF
   Ed Valeev, F. Pavosevic, A. Kumar             : LibInt (2-el integral package), F12 methods
   Garnet Chan, S. Sharma, J. Yang, R. Olivares  : DMRG
   Ulf Ekstrom                                   : XCFun DFT Library
   Mihaly Kallay                                 : mrcc  (arbitrary order and MRCC methods)
   Jiri Pittner, Ondrej Demel                    : Mk-CCSD
   Frank Weinhold                                : gennbo (NPA and NBO analysis)
   Christopher J. Cramer and Donald G. Truhlar   : smd solvation model
   Lars Goerigk                                  : TD-DFT with DH, B97 family of functionals
   V. Asgeirsson, H. Jonsson                     : NEB implementation
   FAccTs GmbH                                   : IRC, NEB, NEB-TS, DLPNO-Multilevel, CI-OPT
                                                   MM, QMMM, 2- and 3-layer-ONIOM, Crystal-QMMM,
                                                   LR-CPCM, SF, NACMEs, symmetry and pop. for TD-DFT,
                                                   nearIR, NL-DFT gradient (VV10), updates on ESD,
                                                   ML-optimized integration grids
   S Lehtola, MJT Oliveira, MAL Marques          : LibXC Library
   Liviu Ungur et al                             : ANISO software


 Your calculation uses the libint2 library for the computation of 2-el integrals
 For citations please refer to: http://libint.valeyev.net

 Your ORCA version has been built with support for libXC version: 5.1.0
 For citations please refer to: https://tddft.org/programs/libxc/

 This ORCA versions uses:
   CBLAS   interface :  Fast vector & matrix operations
   LAPACKE interface :  Fast linear algebra routines
   SCALAPACK package :  Parallel linear algebra routines
   Shared memory     :  Shared parallel matrices
   BLAS/LAPACK       :  OpenBLAS 0.3.15  USE64BITINT DYNAMIC_ARCH NO_AFFINITY Haswell SINGLE_THREADED
        Core in use  :  Haswell
   Copyright (c) 2011-2014, The OpenBLAS Project


Your calculation utilizes the atom-pairwise dispersion correction
with the Becke-Johnson damping scheme (D3BJ)
Cite in your paper:
S.Grimme, S.Ehrlich, L.Goerigk, J Comput Chem, (2011), 32, 1456–1465 
S.Grimme, J.Antony, S.Ehrlich and H.Krieg, J.Chem.Phys., 132, (2010), 154104 
   

================================================================================

----- Orbital basis set information -----
Your calculation utilizes the basis: def2-TZVP
   F. Weigend and R. Ahlrichs, Phys. Chem. Chem. Phys. 7, 3297 (2005).

----- AuxJ basis set information -----
Your calculation utilizes the auxiliary basis: def2/J
   F. Weigend, Phys. Chem. Chem. Phys. 8, 1057 (2006).

================================================================================
                                        WARNINGS
                       Please study these warnings very carefully!
================================================================================


WARNING: Geometry Optimization
  ===> : Switching off AutoStart
         For restart on a previous wavefunction, please use MOREAD

INFO   : the flag for use of the SHARK integral package has been found!

================================================================================
                                       INPUT FILE
================================================================================
NAME = inp.inp
|  1> !OPT PBE D3BJ def2-TZVP CPCM(water)
|  2> 
|  3> * xyz -1 1
|  4> C     -3.038570    1.741585   -0.000011
|  5> C     -3.034831    0.338745    0.000001
|  6> H      0.272941    2.311907   -0.000038
|  7> O     -1.878865    3.792059   -0.000036
|  8> C     -1.830447   -0.351899   -0.000001
|  9> H     -3.978064   -0.195427    0.000011
| 10> C     -0.642529    0.366696   -0.000015
| 11> H     -1.817791   -1.435171    0.000007
| 12> C     -0.671568    1.769240   -0.000027
| 13> H      0.312927   -0.145292   -0.000016
| 14> C     -1.863969    2.517112   -0.000025
| 15> H     -3.995501    2.262035   -0.000008
| 16> *
| 17> 
| 18>                          ****END OF INPUT****
================================================================================

                       *****************************
                       * Geometry Optimization Run *
                       *****************************

Geometry optimization settings:
Update method            Update   .... BFGS
Choice of coordinates    CoordSys .... Z-matrix Internals
Initial Hessian          InHess   .... Almoef's Model

Convergence Tolerances:
Energy Change            TolE     ....  5.0000e-06 Eh
Max. Gradient            TolMAXG  ....  3.0000e-04 Eh/bohr
RMS Gradient             TolRMSG  ....  1.0000e-04 Eh/bohr
Max. Displacement        TolMAXD  ....  4.0000e-03 bohr
RMS Displacement         TolRMSD  ....  2.0000e-03 bohr
Strict Convergence                ....  False
------------------------------------------------------------------------------
                        ORCA OPTIMIZATION COORDINATE SETUP
------------------------------------------------------------------------------

The optimization will be done in new redundant internal coordinates
Making redundant internal coordinates   ...  (new redundants) done
Evaluating the initial hessian          ...  (Almloef) done
Evaluating the coordinates              ...  done
Calculating the B-matrix                .... done
Calculating the G-matrix                .... done
Diagonalizing the G-matrix              .... done
The first mode is                       ....   24
The number of degrees of freedom        ....   30

    -----------------------------------------------------------------
                    Redundant Internal Coordinates


    -----------------------------------------------------------------
         Definition                    Initial Value    Approx d2E/dq
    -----------------------------------------------------------------
      1. B(C   1,C   0)                  1.4028         0.595999   
      2. B(C   4,C   1)                  1.3884         0.628583   
      3. B(H   5,C   1)                  1.0840         0.368143   
      4. B(C   6,C   4)                  1.3884         0.628585   
      5. B(H   7,C   4)                  1.0833         0.369011   
      6. B(C   8,C   6)                  1.4028         0.595999   
      7. B(C   8,H   2)                  1.0893         0.361021   
      8. B(H   9,C   6)                  1.0840         0.368143   
      9. B(C  10,C   8)                  1.4075         0.585835   
     10. B(C  10,O   3)                  1.2750         0.853682   
     11. B(C  10,C   0)                  1.4075         0.585837   
     12. B(H  11,C   0)                  1.0893         0.361021   
     13. A(C   1,C   0,C  10)          123.2820         0.426637   
     14. A(C   1,C   0,H  11)          118.6933         0.350712   
     15. A(C  10,C   0,H  11)          118.0247         0.349696   
     16. A(C   4,C   1,H   5)          120.6445         0.355058   
     17. A(C   0,C   1,H   5)          119.3710         0.351872   
     18. A(C   0,C   1,C   4)          119.9845         0.432062   
     19. A(C   6,C   4,H   7)          120.5012         0.355200   
     20. A(C   1,C   4,H   7)          120.5011         0.355200   
     21. A(C   1,C   4,C   6)          118.9977         0.436221   
     22. A(C   4,C   6,C   8)          119.9845         0.432062   
     23. A(C   8,C   6,H   9)          119.3711         0.351872   
     24. A(C   4,C   6,H   9)          120.6445         0.355059   
     25. A(C   6,C   8,C  10)          123.2820         0.426637   
     26. A(H   2,C   8,C  10)          118.0246         0.349695   
     27. A(H   2,C   8,C   6)          118.6934         0.350712   
     28. A(C   0,C  10,C   8)          114.4695         0.425325   
     29. A(C   0,C  10,O   3)          122.7653         0.452230   
     30. A(O   3,C  10,C   8)          122.7653         0.452230   
     31. D(H   5,C   1,C   0,C  10)   -180.0000         0.024470   
     32. D(H   5,C   1,C   0,H  11)      0.0001         0.024470   
     33. D(C   4,C   1,C   0,H  11)   -179.9999         0.024470   
     34. D(C   4,C   1,C   0,C  10)     -0.0000         0.024470   
     35. D(H   7,C   4,C   1,C   0)   -179.9999         0.027388   
     36. D(C   6,C   4,C   1,C   0)     -0.0000         0.027388   
     37. D(C   6,C   4,C   1,H   5)    180.0000         0.027388   
     38. D(H   7,C   4,C   1,H   5)      0.0000         0.027388   
     39. D(H   9,C   6,C   4,H   7)     -0.0001         0.027388   
     40. D(H   9,C   6,C   4,C   1)    179.9999         0.027388   
     41. D(C   8,C   6,C   4,H   7)    179.9999         0.027388   
     42. D(C   8,C   6,C   4,C   1)     -0.0000         0.027388   
     43. D(C  10,C   8,C   6,C   4)      0.0000         0.024470   
     44. D(H   2,C   8,C   6,H   9)      0.0001         0.024470   
     45. D(H   2,C   8,C   6,C   4)   -180.0000         0.024470   
     46. D(C  10,C   8,C   6,H   9)   -179.9999         0.024470   
     47. D(O   3,C  10,C   8,C   6)   -180.0000         0.023602   
     48. D(C   0,C  10,C   8,C   6)     -0.0001         0.023602   
     49. D(C   0,C  10,C   8,H   2)    180.0000         0.023602   
     50. D(C   8,C  10,C   0,H  11)    180.0000         0.023602   
     51. D(C   8,C  10,C   0,C   1)      0.0000         0.023602   
     52. D(O   3,C  10,C   8,H   2)      0.0000         0.023602   
     53. D(O   3,C  10,C   0,H  11)     -0.0001         0.023602   
     54. D(O   3,C  10,C   0,C   1)    180.0000         0.023602   
    -----------------------------------------------------------------

Number of atoms                         .... 12
Number of degrees of freedom            .... 54

         *************************************************************
         *                GEOMETRY OPTIMIZATION CYCLE   1            *
         *************************************************************
---------------------------------
CARTESIAN COORDINATES (ANGSTROEM)
---------------------------------
  C     -3.038570    1.741585   -0.000011
  C     -3.034831    0.338745    0.000001
  H      0.272941    2.311907   -0.000038
  O     -1.878865    3.792059   -0.000036
  C     -1.830447   -0.351899   -0.000001
  H     -3.978064   -0.195427    0.000011
  C     -0.642529    0.366696   -0.000015
  H     -1.817791   -1.435171    0.000007
  C     -0.671568    1.769240   -0.000027
  H      0.312927   -0.145292   -0.000016
  C     -1.863969    2.517112   -0.000025
  H     -3.995501    2.262035   -0.000008

----------------------------
CARTESIAN COORDINATES (A.U.)
----------------------------
  NO LB      ZA    FRAG     MASS         X           Y           Z
   0 C     6.0000    0    12.011   -5.742065    3.291119   -0.000021
   1 C     6.0000    0    12.011   -5.734999    0.640135    0.000002
   2 H     1.0000    0     1.008    0.515784    4.368871   -0.000072
   3 O     8.0000    0    15.999   -3.550540    7.165953   -0.000068
   4 C     6.0000    0    12.011   -3.459044   -0.664993   -0.000002
   5 H     1.0000    0     1.008   -7.517452   -0.369304    0.000021
   6 C     6.0000    0    12.011   -1.214204    0.692955   -0.000028
   7 H     1.0000    0     1.008   -3.435127   -2.712080    0.000013
   8 C     6.0000    0    12.011   -1.269080    3.343379   -0.000051
   9 H     1.0000    0     1.008    0.591346   -0.274562   -0.000030
  10 C     6.0000    0    12.011   -3.522391    4.756652   -0.000047
  11 H     1.0000    0     1.008   -7.550403    4.274627   -0.000015

--------------------------------
INTERNAL COORDINATES (ANGSTROEM)
--------------------------------
 C      0   0   0     0.000000000000     0.00000000     0.00000000
 C      1   0   0     1.402844982835     0.00000000     0.00000000
 H      1   2   0     3.360263722914    99.61914131     0.00000000
 O      1   2   3     2.355707815568   150.35570140     0.00000000
 C      2   1   3     1.388355125390   119.98446756     0.00000000
 H      2   1   3     1.083987185336   119.37104802   180.00005317
 C      5   2   1     1.388354403222   118.99767294     0.00000000
 H      5   2   1     1.083345928309   120.50112023   180.00007378
 C      3   1   2     1.089304697544    20.10764011     0.00000000
 H      7   5   2     1.083987029480   120.64447674   179.99994501
 C      4   1   2     1.275034016702    30.16097991     0.00000000
 H      1   2   3     1.089304889032   118.69333530   180.00006426

---------------------------
INTERNAL COORDINATES (A.U.)
---------------------------
 C      0   0   0     0.000000000000     0.00000000     0.00000000
 C      1   0   0     2.650992825903     0.00000000     0.00000000
 H      1   2   0     6.349978174059    99.61914131     0.00000000
 O      1   2   3     4.451642622961   150.35570140     0.00000000
 C      2   1   3     2.623610963613   119.98446756     0.00000000
 H      2   1   3     2.048438912965   119.37104802   180.00005317
 C      5   2   1     2.623609598913   118.99767294     0.00000000
 H      5   2   1     2.047227112803   120.50112023   180.00007378
 C      3   1   2     2.058487554752    20.10764011     0.00000000
 H      7   5   2     2.048438618440   120.64447674   179.99994501
 C      4   1   2     2.409465102999    30.16097991     0.00000000
 H      1   2   3     2.058487916613   118.69333530   180.00006426

---------------------
BASIS SET INFORMATION
---------------------
There are 3 groups of distinct atoms

 Group   1 Type C   : 11s6p2d1f contracted to 5s3p2d1f pattern {62111/411/11/1}
 Group   2 Type H   : 5s1p contracted to 3s1p pattern {311/1}
 Group   3 Type O   : 11s6p2d1f contracted to 5s3p2d1f pattern {62111/411/11/1}

Atom   0C    basis set group =>   1
Atom   1C    basis set group =>   1
Atom   2H    basis set group =>   2
Atom   3O    basis set group =>   3
Atom   4C    basis set group =>   1
Atom   5H    basis set group =>   2
Atom   6C    basis set group =>   1
Atom   7H    basis set group =>   2
Atom   8C    basis set group =>   1
Atom   9H    basis set group =>   2
Atom  10C    basis set group =>   1
Atom  11H    basis set group =>   2
---------------------------------
AUXILIARY/J BASIS SET INFORMATION
---------------------------------
There are 3 groups of distinct atoms

 Group   1 Type C   : 12s5p4d2f1g contracted to 6s4p3d1f1g pattern {711111/2111/211/2/1}
 Group   2 Type H   : 5s2p1d contracted to 3s1p1d pattern {311/2/1}
 Group   3 Type O   : 12s5p4d2f1g contracted to 6s4p3d1f1g pattern {711111/2111/211/2/1}

Atom   0C    basis set group =>   1
Atom   1C    basis set group =>   1
Atom   2H    basis set group =>   2
Atom   3O    basis set group =>   3
Atom   4C    basis set group =>   1
Atom   5H    basis set group =>   2
Atom   6C    basis set group =>   1
Atom   7H    basis set group =>   2
Atom   8C    basis set group =>   1
Atom   9H    basis set group =>   2
Atom  10C    basis set group =>   1
Atom  11H    basis set group =>   2
------------------------------------------------------------------------------
                           ORCA GTO INTEGRAL CALCULATION
                           -- RI-GTO INTEGRALS CHOSEN --
------------------------------------------------------------------------------
------------------------------------------------------------------------------
                   ___                                                        
                  /   \      - P O W E R E D   B Y -                         
                 /     \                                                     
                 |  |  |   _    _      __       _____    __    __             
                 |  |  |  | |  | |    /  \     |  _  \  |  |  /  |          
                  \  \/   | |  | |   /    \    | | | |  |  | /  /          
                 / \  \   | |__| |  /  /\  \   | |_| |  |  |/  /          
                |  |  |   |  __  | /  /__\  \  |    /   |      \           
                |  |  |   | |  | | |   __   |  |    \   |  |\   \          
                \     /   | |  | | |  |  |  |  | |\  \  |  | \   \       
                 \___/    |_|  |_| |__|  |__|  |_| \__\ |__|  \__/        
                                                                              
                      - O R C A' S   B I G   F R I E N D -                    
                                      &                                       
                       - I N T E G R A L  F E E D E R -                       
                                                                              
 v1 FN, 2020, v2 2021                                                         
------------------------------------------------------------------------------


Reading SHARK input file inp.SHARKINP.tmp ... ok
----------------------
SHARK INTEGRAL PACKAGE
----------------------

Number of atoms                             ...     12
Number of basis functions                   ...    247
Number of shells                            ...     97
Maximum angular momentum                    ...      3
Integral batch strategy                     ... SHARK/LIBINT Hybrid
RI-J (if used) integral strategy            ... SPLIT-RIJ (Revised 2003 algorithm where possible)
Printlevel                                  ...      1
Contraction scheme used                     ... SEGMENTED contraction
Coulomb Range Separation                    ... NOT USED
Exchange Range Separation                   ... NOT USED
Finite Nucleus Model                        ... NOT USED
Auxiliary Coulomb fitting basis             ... AVAILABLE
   # of basis functions in Aux-J            ...    398
   # of shells in Aux-J                     ...    130
   Maximum angular momentum in Aux-J        ...      4
Auxiliary J/K fitting basis                 ... NOT available
Auxiliary Correlation fitting basis         ... NOT available
Auxiliary 'external' fitting basis          ... NOT available
Integral threshold                          ...     2.500000e-11
Primitive cut-off                           ...     2.500000e-12
Primitive pair pre-selection threshold      ...     2.500000e-12

Calculating pre-screening integrals         ... done (  0.1 sec) Dimension = 97
Organizing shell pair data                  ... done (  0.2 sec)
Shell pair information
Total number of shell pairs                 ...      4753
Shell pairs after pre-screening             ...      4506
Total number of primitive shell pairs       ...     14704
Primitive shell pairs kept                  ...     10799
          la=0 lb=0:   1151 shell pairs
          la=1 lb=0:   1240 shell pairs
          la=1 lb=1:    344 shell pairs
          la=2 lb=0:    673 shell pairs
          la=2 lb=1:    358 shell pairs
          la=2 lb=2:    102 shell pairs
          la=3 lb=0:    335 shell pairs
          la=3 lb=1:    179 shell pairs
          la=3 lb=2:     96 shell pairs
          la=3 lb=3:     28 shell pairs

Calculating one electron integrals          ... done (  0.0 sec)
Calculating RI/J V-Matrix + Cholesky decomp.... done (  0.3 sec)
Calculating Nuclear repulsion               ... done (  0.0 sec) ENN=    261.177737220417 Eh

SHARK setup successfully completed in   1.5 seconds

Maximum memory used throughout the entire GTOINT-calculation: 74.2 MB
-------------------------------------------------------------------------------
                                 ORCA SCF
-------------------------------------------------------------------------------

------------
SCF SETTINGS
------------
Hamiltonian:
 Density Functional     Method          .... DFT(GTOs)
 Exchange Functional    Exchange        .... PBE
   PBE kappa parameter   XKappa         ....  0.804000
   PBE mue parameter    XMuePBE         ....  0.219520
 Correlation Functional Correlation     .... PBE
   PBE beta parameter  CBetaPBE         ....  0.066725
 LDA part of GGA corr.  LDAOpt          .... PW91-LDA
 Gradients option       PostSCFGGA      .... off
   Density functional embedding theory  .... OFF
   NL short-range parameter             ....  6.400000
 RI-approximation to the Coulomb term is turned on
   Number of AuxJ basis functions       .... 398


General Settings:
 Integral files         IntName         .... inp
 Hartree-Fock type      HFTyp           .... RHF
 Total Charge           Charge          ....   -1
 Multiplicity           Mult            ....    1
 Number of Electrons    NEL             ....   50
 Basis Dimension        Dim             ....  247
 Nuclear Repulsion      ENuc            ....    261.1777372204 Eh

Convergence Acceleration:
 DIIS                   CNVDIIS         .... on
   Start iteration      DIISMaxIt       ....    12
   Startup error        DIISStart       ....  0.200000
   # of expansion vecs  DIISMaxEq       ....     5
   Bias factor          DIISBfac        ....   1.050
   Max. coefficient     DIISMaxC        ....  10.000
 Trust-Rad. Augm. Hess. CNVTRAH         .... auto
   Auto Start mean grad. ratio tolernc. ....  1.125000
   Auto Start start iteration           ....    20
   Auto Start num. interpolation iter.  ....    10
   Max. Number of Micro iterations      ....    16
   Max. Number of Macro iterations      .... Maxiter - #DIIS iter
   Number of Davidson start vectors     ....     2
   Converg. threshold I  (grad. norm)   ....   1.000e-05
   Converg. threshold II (energy diff.) ....   1.000e-08
   Grad. Scal. Fac. for Micro threshold ....   0.100
   Minimum threshold for Micro iter.    ....   0.010
   NR start threshold (gradient norm)   ....   0.001
   Initial trust radius                 ....   0.400
   Minimum AH scaling param. (alpha)    ....   1.000
   Maximum AH scaling param. (alpha)    .... 1000.000
   Orbital update algorithm             .... Taylor
   White noise on init. David. guess    .... on
   Maximum white noise                  ....   0.010
   Quad. conv. algorithm                .... NR
 SOSCF                  CNVSOSCF        .... on
   Start iteration      SOSCFMaxIt      ....   150
   Startup grad/error   SOSCFStart      ....  0.003300
 Level Shifting         CNVShift        .... on
   Level shift para.    LevelShift      ....    0.2500
   Turn off err/grad.   ShiftErr        ....    0.0010
 Zerner damping         CNVZerner       .... off
 Static damping         CNVDamp         .... on
   Fraction old density DampFac         ....    0.7000
   Max. Damping (<1)    DampMax         ....    0.9800
   Min. Damping (>=0)   DampMin         ....    0.0000
   Turn off err/grad.   DampErr         ....    0.1000
 Fernandez-Rico         CNVRico         .... off

SCF Procedure:
 Maximum # iterations   MaxIter         ....   125
 SCF integral mode      SCFMode         .... Direct
   Integral package                     .... SHARK and LIBINT hybrid scheme
 Reset frequency        DirectResetFreq ....    20
 Integral Threshold     Thresh          ....  2.500e-11 Eh
 Primitive CutOff       TCut            ....  2.500e-12 Eh

Convergence Tolerance:
 Convergence Check Mode ConvCheckMode   .... Total+1el-Energy
 Convergence forced     ConvForced      .... 0
 Energy Change          TolE            ....  1.000e-08 Eh
 1-El. energy change                    ....  1.000e-05 Eh
 Orbital Gradient       TolG            ....  1.000e-05
 Orbital Rotation angle TolX            ....  1.000e-05
 DIIS Error             TolErr          ....  5.000e-07


Diagonalization of the overlap matrix:
Smallest eigenvalue                        ... 1.298e-05
Time for diagonalization                   ...    0.010 sec
Threshold for overlap eigenvalues          ... 1.000e-08
Number of eigenvalues below threshold      ... 0
Time for construction of square roots      ...    0.098 sec
Total time needed                          ...    0.108 sec

Time for model grid setup =    0.283 sec

------------------------------
INITIAL GUESS: MODEL POTENTIAL
------------------------------
Loading Hartree-Fock densities                     ... done
Calculating cut-offs                               ... done
Initializing the effective Hamiltonian             ... done
Setting up the integral package (SHARK)            ... done
Starting the Coulomb interaction                   ... done (   0.3 sec)
Reading the grid                                   ... done
Mapping shells                                     ... done
Starting the XC term evaluation                    ... done (   0.4 sec)
  promolecular density results
     # of electrons  =     48.998284949
     EX              =    -40.265786116
     EC              =     -1.617415064
     EX+EC           =    -41.883201180
Transforming the Hamiltonian                       ... done (   0.0 sec)
Diagonalizing the Hamiltonian                      ... done (   0.0 sec)
Back transforming the eigenvectors                 ... done (   0.0 sec)
Now organizing SCF variables                       ... done
                      ------------------
                      INITIAL GUESS DONE (   1.0 sec)
                      ------------------
-------------------
DFT GRID GENERATION
-------------------

General Integration Accuracy     IntAcc      ... 4.388
Radial Grid Type                 RadialGrid  ... OptM3 with GC (2021)
Angular Grid (max. ang.)         AngularGrid ... 4 (Lebedev-302)
Angular grid pruning method      GridPruning ... 4 (adaptive)
Weight generation scheme         WeightScheme... Becke
Basis function cutoff            BFCut       ... 1.0000e-11
Integration weight cutoff        WCut        ... 1.0000e-14
Angular grids for H and He will be reduced by one unit
Partially contracted basis set               ... off
Rotationally invariant grid construction     ... off

Total number of grid points                  ...    58352
Total number of batches                      ...      920
Average number of points per batch           ...       63
Average number of grid points per atom       ...     4863
Time for grid setup =    0.811 sec


--------------------
CPCM SOLVATION MODEL
--------------------
CPCM parameters:
  Epsilon                                         ...      80.4000
  Refrac                                          ...       1.3300
  Rsolv                                           ...       1.3000
  Surface type                                    ... GAUSSIAN VDW
  Epsilon function type                           ...         CPCM
Radii:
 Radius for C  used is    3.8550 Bohr (=   2.0400 Ang.)
 Radius for H  used is    2.4944 Bohr (=   1.3200 Ang.)
 Radius for O  used is    3.4469 Bohr (=   1.8240 Ang.)
Calculating surface                               ...        done! (  0.0s)
GEPOL surface points                              ...          706
GEPOL Volume                                      ...     822.1576
GEPOL Surface-area                                ...     474.8424
Calculating surface distance matrix               ...        done! (  0.0s)
Performing Cholesky decomposition & store         ...        done! (  0.2s)
Overall time for CPCM initialization              ...                 0.2s
--------------
SCF ITERATIONS
--------------
ITER       Energy         Delta-E        Max-DP      RMS-DP      [F,P]     Damp
               ***  Starting incremental Fock matrix formation  ***
  0   -306.4665778119   0.000000000000 0.81278841  0.01166688  0.3395324 0.7000
  1   -306.5988316937  -0.132253881788 0.64189553  0.00919412  0.1096699 0.7000
                               ***Turning on DIIS***
  2   -306.6425065663  -0.043674872624 0.28596552  0.00549508  0.0291650 0.0000
  3   -306.7127925618  -0.070285995493 0.62828259  0.00875921  0.0597490 0.0000
  4   -306.7316083241  -0.018815762280 0.09438049  0.00135545  0.0269961 0.0000
  5   -306.7334002072  -0.001791883088 0.05432626  0.00080707  0.0104019 0.0000
                      *** Initiating the SOSCF procedure ***
                           *** Shutting down DIIS ***
                      *** Re-Reading the Fockian *** 
                      *** Removing any level shift *** 
ITER      Energy       Delta-E        Grad      Rot      Max-DP    RMS-DP
  6   -306.73357397  -0.0001737645  0.000546  0.000546  0.025973  0.000416
               *** Restarting incremental Fock matrix formation ***
  7   -306.73357741  -0.0000034346  0.000627  0.003985  0.024709  0.000351
  8   -306.73355247   0.0000249412  0.001648  0.002873  0.016401  0.000231
  9   -306.73358178  -0.0000293153  0.000115  0.000343  0.001076  0.000018
 10   -306.73358114   0.0000006385  0.000225  0.000232  0.000203  0.000006
 11   -306.73358205  -0.0000009050  0.000037  0.000170  0.000943  0.000014
 12   -306.73358198   0.0000000622  0.000070  0.000113  0.000442  0.000006
 13   -306.73358207  -0.0000000821  0.000003  0.000008  0.000150  0.000003
 14   -306.73358207  -0.0000000013  0.000005  0.000005  0.000074  0.000001
                  ***Gradient check signals convergence***
              ***Rediagonalizing the Fockian in SOSCF/NRSCF***

               *****************************************************
               *                     SUCCESS                       *
               *           SCF CONVERGED AFTER  15 CYCLES          *
               *****************************************************


----------------
TOTAL SCF ENERGY
----------------

Total Energy       :         -306.73358206 Eh           -8346.64510 eV

Components:
Nuclear Repulsion  :          261.17773722 Eh            7107.00754 eV
Electronic Energy  :         -567.91131928 Eh          -15453.65265 eV
One Electron Energy:         -943.02295177 Eh          -25660.95910 eV
Two Electron Energy:          375.11163249 Eh           10207.30645 eV
CPCM Dielectric    :           -0.10055440 Eh              -2.73622 eV

Virial components:
Potential Energy   :         -612.34461193 Eh          -16662.74401 eV
Kinetic Energy     :          305.61102986 Eh            8316.09890 eV
Virial Ratio       :            2.00367314


DFT components:
N(Alpha)           :       25.000034245282 electrons
N(Beta)            :       25.000034245282 electrons
N(Total)           :       50.000068490563 electrons
E(X)               :      -41.279903137078 Eh       
E(C)               :       -1.658426989906 Eh       
E(XC)              :      -42.938330126984 Eh       
DFET-embed. en.    :        0.000000000000 Eh       
CPCM Solvation Model Properties:
Surface-charge          :            0.96767909
Charge-correction       :           -0.00490069 Eh              -0.13335 eV
Free-energy (cav+disp)  :  This term is not implemented in the current solvation scheme

---------------
SCF CONVERGENCE
---------------

  Last Energy change         ...    3.7301e-09  Tolerance :   1.0000e-08
  Last MAX-Density change    ...    5.0537e-04  Tolerance :   1.0000e-07
  Last RMS-Density change    ...    1.0123e-05  Tolerance :   5.0000e-09
  Last Orbital Gradient      ...    9.2417e-07  Tolerance :   1.0000e-05
  Last Orbital Rotation      ...    8.0498e-07  Tolerance :   1.0000e-05

             **** THE GBW FILE WAS UPDATED (inp.gbw) ****
             **** DENSITY inp.scfp WAS UPDATED ****
             **** ENERGY FILE WAS UPDATED (inp.en.tmp) ****
             **** THE GBW FILE WAS UPDATED (inp.gbw) ****
             **** DENSITY inp.scfp WAS UPDATED ****
----------------
ORBITAL ENERGIES
----------------

  NO   OCC          E(Eh)            E(eV) 
   0   2.0000     -18.653618      -507.5908 
   1   2.0000      -9.890419      -269.1320 
   2   2.0000      -9.861298      -268.3396 
   3   2.0000      -9.861289      -268.3393 
   4   2.0000      -9.847912      -267.9753 
   5   2.0000      -9.843463      -267.8543 
   6   2.0000      -9.843442      -267.8537 
   7   2.0000      -0.862566       -23.4716 
   8   2.0000      -0.737857       -20.0781 
   9   2.0000      -0.643907       -17.5216 
  10   2.0000      -0.621929       -16.9236 
  11   2.0000      -0.518642       -14.1130 
  12   2.0000      -0.495381       -13.4800 
  13   2.0000      -0.428526       -11.6608 
  14   2.0000      -0.380151       -10.3444 
  15   2.0000      -0.374650       -10.1947 
  16   2.0000      -0.341599        -9.2954 
  17   2.0000      -0.328865        -8.9489 
  18   2.0000      -0.324467        -8.8292 
  19   2.0000      -0.282012        -7.6739 
  20   2.0000      -0.277569        -7.5530 
  21   2.0000      -0.258283        -7.0282 
  22   2.0000      -0.204854        -5.5744 
  23   2.0000      -0.158139        -4.3032 
  24   2.0000      -0.143251        -3.8980 
  25   0.0000      -0.019545        -0.5318 
  26   0.0000       0.013909         0.3785 
  27   0.0000       0.048863         1.3296 
  28   0.0000       0.075858         2.0642 
  29   0.0000       0.084757         2.3064 
  30   0.0000       0.100358         2.7309 
  31   0.0000       0.112316         3.0563 
  32   0.0000       0.123526         3.3613 
  33   0.0000       0.137425         3.7395 
  34   0.0000       0.157830         4.2948 
  35   0.0000       0.188776         5.1369 
  36   0.0000       0.198772         5.4089 
  37   0.0000       0.203378         5.5342 
  38   0.0000       0.214970         5.8496 
  39   0.0000       0.229833         6.2541 
  40   0.0000       0.235218         6.4006 
  41   0.0000       0.236577         6.4376 
  42   0.0000       0.241009         6.5582 
  43   0.0000       0.268396         7.3034 
  44   0.0000       0.308260         8.3882 
  45   0.0000       0.311417         8.4741 
  46   0.0000       0.319541         8.6952 
  47   0.0000       0.329857         8.9759 
  48   0.0000       0.331136         9.0107 
  49   0.0000       0.345737         9.4080 
  50   0.0000       0.374733        10.1970 
  51   0.0000       0.384164        10.4536 
  52   0.0000       0.396774        10.7968 
  53   0.0000       0.405351        11.0302 
  54   0.0000       0.412751        11.2315 
  55   0.0000       0.419445        11.4137 
  56   0.0000       0.425829        11.5874 
  57   0.0000       0.445593        12.1252 
  58   0.0000       0.456109        12.4114 
  59   0.0000       0.473107        12.8739 
  60   0.0000       0.478189        13.0122 
  61   0.0000       0.482799        13.1376 
  62   0.0000       0.494908        13.4671 
  63   0.0000       0.499787        13.5999 
  64   0.0000       0.563952        15.3459 
  65   0.0000       0.611918        16.6511 
  66   0.0000       0.620545        16.8859 
  67   0.0000       0.628747        17.1091 
  68   0.0000       0.636443        17.3185 
  69   0.0000       0.667182        18.1549 
  70   0.0000       0.708611        19.2823 
  71   0.0000       0.711943        19.3730 
  72   0.0000       0.724466        19.7137 
  73   0.0000       0.748070        20.3560 
  74   0.0000       0.752719        20.4825 
  75   0.0000       0.776809        21.1381 
  76   0.0000       0.805388        21.9157 
  77   0.0000       0.829588        22.5742 
  78   0.0000       0.843690        22.9580 
  79   0.0000       0.844914        22.9913 
  80   0.0000       0.851920        23.1819 
  81   0.0000       0.857323        23.3290 
  82   0.0000       0.974618        26.5207 
  83   0.0000       0.985132        26.8068 
  84   0.0000       1.003132        27.2966 
  85   0.0000       1.008633        27.4463 
  86   0.0000       1.025905        27.9163 
  87   0.0000       1.047814        28.5125 
  88   0.0000       1.141076        31.0503 
  89   0.0000       1.147871        31.2352 
  90   0.0000       1.156026        31.4571 
  91   0.0000       1.168739        31.8030 
  92   0.0000       1.173721        31.9386 
  93   0.0000       1.184802        32.2401 
  94   0.0000       1.199507        32.6402 
  95   0.0000       1.243759        33.8444 
  96   0.0000       1.247337        33.9418 
  97   0.0000       1.286895        35.0182 
  98   0.0000       1.349055        36.7096 
  99   0.0000       1.361543        37.0495 
 100   0.0000       1.380175        37.5565 
 101   0.0000       1.409850        38.3640 
 102   0.0000       1.418923        38.6109 
 103   0.0000       1.423129        38.7253 
 104   0.0000       1.451395        39.4945 
 105   0.0000       1.472533        40.0697 
 106   0.0000       1.497690        40.7542 
 107   0.0000       1.520468        41.3740 
 108   0.0000       1.526226        41.5307 
 109   0.0000       1.600028        43.5390 
 110   0.0000       1.614053        43.9206 
 111   0.0000       1.615198        43.9518 
 112   0.0000       1.619013        44.0556 
 113   0.0000       1.658458        45.1289 
 114   0.0000       1.673606        45.5411 
 115   0.0000       1.709161        46.5086 
 116   0.0000       1.713171        46.6177 
 117   0.0000       1.781855        48.4867 
 118   0.0000       1.782043        48.4918 
 119   0.0000       1.800526        48.9948 
 120   0.0000       1.878217        51.1089 
 121   0.0000       1.878626        51.1200 
 122   0.0000       1.900547        51.7165 
 123   0.0000       1.995002        54.2868 
 124   0.0000       1.998979        54.3950 
 125   0.0000       2.013367        54.7865 
 126   0.0000       2.025698        55.1220 
 127   0.0000       2.069937        56.3258 
 128   0.0000       2.078040        56.5463 
 129   0.0000       2.133054        58.0434 
 130   0.0000       2.166816        58.9621 
 131   0.0000       2.189260        59.5728 
 132   0.0000       2.190973        59.6194 
 133   0.0000       2.206258        60.0353 
 134   0.0000       2.289243        62.2935 
 135   0.0000       2.343577        63.7720 
 136   0.0000       2.362228        64.2795 
 137   0.0000       2.443213        66.4832 
 138   0.0000       2.460020        66.9406 
 139   0.0000       2.494416        67.8765 
 140   0.0000       2.497413        67.9581 
 141   0.0000       2.531059        68.8736 
 142   0.0000       2.532596        68.9154 
 143   0.0000       2.542786        69.1927 
 144   0.0000       2.603129        70.8347 
 145   0.0000       2.615262        71.1649 
 146   0.0000       2.619154        71.2708 
 147   0.0000       2.626488        71.4704 
 148   0.0000       2.629641        71.5562 
 149   0.0000       2.640259        71.8451 
 150   0.0000       2.689697        73.1904 
 151   0.0000       2.706207        73.6396 
 152   0.0000       2.720498        74.0285 
 153   0.0000       2.732453        74.3538 
 154   0.0000       2.737065        74.4793 
 155   0.0000       2.775057        75.5131 
 156   0.0000       2.790596        75.9360 
 157   0.0000       2.790860        75.9432 
 158   0.0000       2.820575        76.7518 
 159   0.0000       2.824128        76.8484 
 160   0.0000       2.840325        77.2892 
 161   0.0000       2.857417        77.7543 
 162   0.0000       2.939189        79.9794 
 163   0.0000       2.971071        80.8469 
 164   0.0000       2.974640        80.9441 
 165   0.0000       2.981870        81.1408 
 166   0.0000       3.038460        82.6807 
 167   0.0000       3.050394        83.0054 
 168   0.0000       3.079942        83.8095 
 169   0.0000       3.082057        83.8670 
 170   0.0000       3.082823        83.8879 
 171   0.0000       3.133831        85.2759 
 172   0.0000       3.141681        85.4895 
 173   0.0000       3.161349        86.0247 
 174   0.0000       3.171662        86.3053 
 175   0.0000       3.177339        86.4598 
 176   0.0000       3.181121        86.5627 
 177   0.0000       3.200031        87.0773 
 178   0.0000       3.244987        88.3006 
 179   0.0000       3.249264        88.4170 
 180   0.0000       3.294057        89.6358 
 181   0.0000       3.326444        90.5172 
 182   0.0000       3.347476        91.0894 
 183   0.0000       3.350497        91.1716 
 184   0.0000       3.363586        91.5278 
 185   0.0000       3.411462        92.8306 
 186   0.0000       3.420848        93.0860 
 187   0.0000       3.437241        93.5321 
 188   0.0000       3.449843        93.8750 
 189   0.0000       3.462249        94.2126 
 190   0.0000       3.479772        94.6894 
 191   0.0000       3.543536        96.4245 
 192   0.0000       3.605419        98.1084 
 193   0.0000       3.643018        99.1316 
 194   0.0000       3.721586       101.2695 
 195   0.0000       3.748148       101.9923 
 196   0.0000       3.755131       102.1823 
 197   0.0000       3.755730       102.1986 
 198   0.0000       3.837905       104.4347 
 199   0.0000       3.943009       107.2947 
 200   0.0000       3.966030       107.9212 
 201   0.0000       3.972968       108.1100 
 202   0.0000       3.982500       108.3693 
 203   0.0000       4.002765       108.9208 
 204   0.0000       4.083707       111.1233 
 205   0.0000       4.094156       111.4076 
 206   0.0000       4.132540       112.4521 
 207   0.0000       4.145413       112.8024 
 208   0.0000       4.150166       112.9318 
 209   0.0000       4.177117       113.6651 
 210   0.0000       4.189521       114.0027 
 211   0.0000       4.211132       114.5907 
 212   0.0000       4.226595       115.0115 
 213   0.0000       4.456519       121.2680 
 214   0.0000       4.494453       122.3003 
 215   0.0000       4.550703       123.8309 
 216   0.0000       4.571283       124.3909 
 217   0.0000       4.603481       125.2671 
 218   0.0000       4.642668       126.3334 
 219   0.0000       4.747348       129.1819 
 220   0.0000       4.772706       129.8719 
 221   0.0000       4.800065       130.6164 
 222   0.0000       5.024378       136.7203 
 223   0.0000       5.032790       136.9492 
 224   0.0000       5.112809       139.1266 
 225   0.0000       5.153263       140.2274 
 226   0.0000       5.205781       141.6565 
 227   0.0000       5.209901       141.7686 
 228   0.0000       5.293219       144.0358 
 229   0.0000       5.486697       149.3006 
 230   0.0000       5.518542       150.1672 
 231   0.0000       5.677146       154.4830 
 232   0.0000       5.963636       162.2788 
 233   0.0000       6.266732       170.5264 
 234   0.0000       6.311436       171.7429 
 235   0.0000       6.517628       177.3537 
 236   0.0000       6.531068       177.7194 
 237   0.0000       6.732885       183.2111 
 238   0.0000       6.970530       189.6778 
 239   0.0000       6.977175       189.8586 
 240   0.0000      21.779249       592.6435 
 241   0.0000      22.338735       607.8679 
 242   0.0000      22.351205       608.2072 
 243   0.0000      22.428290       610.3048 
 244   0.0000      22.586666       614.6144 
 245   0.0000      23.171838       630.5378 
 246   0.0000      43.592341      1186.2079 

                    ********************************
                    * MULLIKEN POPULATION ANALYSIS *
                    ********************************

-----------------------
MULLIKEN ATOMIC CHARGES
-----------------------
   0 C :   -0.254818
   1 C :   -0.176851
   2 H :    0.066829
   3 O :   -0.612856
   4 C :   -0.192346
   5 H :    0.114662
   6 C :   -0.176635
   7 H :    0.109214
   8 C :   -0.254939
   9 H :    0.114646
  10 C :    0.196242
  11 H :    0.066852
Sum of atomic charges:   -1.0000000

--------------------------------
MULLIKEN REDUCED ORBITAL CHARGES
--------------------------------
  0 C s       :     3.255680  s :     3.255680
      pz      :     1.086787  p :     2.918106
      px      :     0.930267
      py      :     0.901052
      dz2     :     0.003181  d :     0.074328
      dxz     :     0.006833
      dyz     :     0.016544
      dx2y2   :     0.019862
      dxy     :     0.027908
      f0      :     0.001342  f :     0.006704
      f+1     :     0.000546
      f-1     :     0.000527
      f+2     :     0.000745
      f-2     :     0.000456
      f+3     :     0.002121
      f-3     :     0.000968
  1 C s       :     3.202219  s :     3.202219
      pz      :     0.992902  p :     2.875834
      px      :     0.957661
      py      :     0.925272
      dz2     :     0.004239  d :     0.092008
      dxz     :     0.009783
      dyz     :     0.022304
      dx2y2   :     0.021380
      dxy     :     0.034302
      f0      :     0.001363  f :     0.006790
      f+1     :     0.000556
      f-1     :     0.000473
      f+2     :     0.001003
      f-2     :     0.000445
      f+3     :     0.002174
      f-3     :     0.000777
  2 H s       :     0.911064  s :     0.911064
      pz      :     0.005855  p :     0.022107
      px      :     0.010362
      py      :     0.005890
  3 O s       :     3.749489  s :     3.749489
      pz      :     1.613393  p :     4.835805
      px      :     1.843161
      py      :     1.379251
      dz2     :     0.002622  d :     0.026053
      dxz     :     0.000073
      dyz     :     0.008026
      dx2y2   :     0.008569
      dxy     :     0.006762
      f0      :     0.000158  f :     0.001510
      f+1     :     0.000022
      f-1     :     0.000183
      f+2     :     0.000317
      f-2     :     0.000006
      f+3     :     0.000416
      f-3     :     0.000409
  4 C s       :     3.170833  s :     3.170833
      pz      :     1.082021  p :     2.927980
      px      :     0.905440
      py      :     0.940519
      dz2     :     0.004725  d :     0.086730
      dxz     :     0.021979
      dyz     :     0.005680
      dx2y2   :     0.037785
      dxy     :     0.016561
      f0      :     0.001430  f :     0.006802
      f+1     :     0.000438
      f-1     :     0.000637
      f+2     :     0.000146
      f-2     :     0.001163
      f+3     :     0.002237
      f-3     :     0.000750
  5 H s       :     0.863612  s :     0.863612
      pz      :     0.005162  p :     0.021726
      px      :     0.010468
      py      :     0.006096
  6 C s       :     3.202058  s :     3.202058
      pz      :     0.992892  p :     2.875797
      px      :     0.958735
      py      :     0.924170
      dz2     :     0.004234  d :     0.091992
      dxz     :     0.009305
      dyz     :     0.022781
      dx2y2   :     0.022395
      dxy     :     0.033277
      f0      :     0.001363  f :     0.006789
      f+1     :     0.000560
      f-1     :     0.000470
      f+2     :     0.000953
      f-2     :     0.000494
      f+3     :     0.002167
      f-3     :     0.000783
  7 H s       :     0.868582  s :     0.868582
      pz      :     0.006033  p :     0.022204
      px      :     0.003922
      py      :     0.012249
  8 C s       :     3.255789  s :     3.255789
      pz      :     1.086805  p :     2.918111
      px      :     0.930751
      py      :     0.900555
      dz2     :     0.003186  d :     0.074334
      dxz     :     0.007110
      dyz     :     0.016265
      dx2y2   :     0.019524
      dxy     :     0.028248
      f0      :     0.001342  f :     0.006704
      f+1     :     0.000545
      f-1     :     0.000528
      f+2     :     0.000768
      f-2     :     0.000433
      f+3     :     0.002142
      f-3     :     0.000946
  9 H s       :     0.863627  s :     0.863627
      pz      :     0.005162  p :     0.021727
      px      :     0.010639
      py      :     0.005926
 10 C s       :     2.928909  s :     2.928909
      pz      :     0.881174  p :     2.712876
      px      :     0.920632
      py      :     0.911071
      dz2     :     0.007986  d :     0.145449
      dxz     :     0.017843
      dyz     :     0.052016
      dx2y2   :     0.041716
      dxy     :     0.025888
      f0      :     0.002070  f :     0.016523
      f+1     :     0.000587
      f-1     :     0.001174
      f+2     :     0.002357
      f-2     :     0.001065
      f+3     :     0.007108
      f-3     :     0.002162
 11 H s       :     0.911040  s :     0.911040
      pz      :     0.005855  p :     0.022108
      px      :     0.010533
      py      :     0.005719


                     *******************************
                     * LOEWDIN POPULATION ANALYSIS *
                     *******************************

----------------------
LOEWDIN ATOMIC CHARGES
----------------------
   0 C :   -0.192957
   1 C :   -0.196775
   2 H :    0.130521
   3 O :   -0.173243
   4 C :   -0.242524
   5 H :    0.139004
   6 C :   -0.196773
   7 H :    0.135799
   8 C :   -0.192981
   9 H :    0.139007
  10 C :   -0.479607
  11 H :    0.130528

-------------------------------
LOEWDIN REDUCED ORBITAL CHARGES
-------------------------------
  0 C s       :     2.778381  s :     2.778381
      pz      :     0.969080  p :     3.006773
      px      :     0.991539
      py      :     1.046154
      dz2     :     0.028936  d :     0.367797
      dxz     :     0.023263
      dyz     :     0.057753
      dx2y2   :     0.116119
      dxy     :     0.141726
      f0      :     0.002947  f :     0.040005
      f+1     :     0.003330
      f-1     :     0.004070
      f+2     :     0.005023
      f-2     :     0.002910
      f+3     :     0.013981
      f-3     :     0.007744
  1 C s       :     2.772475  s :     2.772475
      pz      :     0.909274  p :     2.975778
      px      :     1.013323
      py      :     1.053181
      dz2     :     0.025157  d :     0.405771
      dxz     :     0.034151
      dyz     :     0.079835
      dx2y2   :     0.119862
      dxy     :     0.146766
      f0      :     0.002643  f :     0.042750
      f+1     :     0.003436
      f-1     :     0.003924
      f+2     :     0.007025
      f-2     :     0.003225
      f+3     :     0.014925
      f-3     :     0.007573
  2 H s       :     0.809486  s :     0.809486
      pz      :     0.015926  p :     0.059993
      px      :     0.027680
      py      :     0.016387
  3 O s       :     3.425263  s :     3.425263
      pz      :     1.519607  p :     4.681373
      px      :     1.695818
      py      :     1.465948
      dz2     :     0.006476  d :     0.061548
      dxz     :     0.000072
      dyz     :     0.015109
      dx2y2   :     0.020078
      dxy     :     0.019813
      f0      :     0.000456  f :     0.005059
      f+1     :     0.000109
      f-1     :     0.000745
      f+2     :     0.000749
      f-2     :     0.000013
      f+3     :     0.001599
      f-3     :     0.001388
  4 C s       :     2.764626  s :     2.764626
      pz      :     0.980459  p :     3.037682
      px      :     1.071123
      py      :     0.986101
      dz2     :     0.025772  d :     0.396522
      dxz     :     0.080468
      dyz     :     0.015528
      dx2y2   :     0.169555
      dxy     :     0.105199
      f0      :     0.003118  f :     0.043693
      f+1     :     0.004394
      f-1     :     0.003266
      f+2     :     0.001154
      f-2     :     0.007907
      f+3     :     0.015975
      f-3     :     0.007878
  5 H s       :     0.801407  s :     0.801407
      pz      :     0.014201  p :     0.059589
      px      :     0.028325
      py      :     0.017063
  6 C s       :     2.772473  s :     2.772473
      pz      :     0.909270  p :     2.975774
      px      :     1.011541
      py      :     1.054963
      dz2     :     0.025157  d :     0.405775
      dxz     :     0.032281
      dyz     :     0.081706
      dx2y2   :     0.122685
      dxy     :     0.143945
      f0      :     0.002643  f :     0.042751
      f+1     :     0.003413
      f-1     :     0.003947
      f+2     :     0.006689
      f-2     :     0.003561
      f+3     :     0.014917
      f-3     :     0.007580
  7 H s       :     0.803338  s :     0.803338
      pz      :     0.016725  p :     0.060863
      px      :     0.011439
      py      :     0.032699
  8 C s       :     2.778384  s :     2.778384
      pz      :     0.969090  p :     3.006792
      px      :     0.992927
      py      :     1.044775
      dz2     :     0.028937  d :     0.367800
      dxz     :     0.024436
      dyz     :     0.056580
      dx2y2   :     0.113859
      dxy     :     0.143988
      f0      :     0.002947  f :     0.040005
      f+1     :     0.003358
      f-1     :     0.004042
      f+2     :     0.005204
      f-2     :     0.002728
      f+3     :     0.014023
      f-3     :     0.007702
  9 H s       :     0.801403  s :     0.801403
      pz      :     0.014201  p :     0.059589
      px      :     0.028762
      py      :     0.016627
 10 C s       :     2.724574  s :     2.724574
      pz      :     0.823190  p :     2.836274
      px      :     1.061574
      py      :     0.951510
      dz2     :     0.048579  d :     0.809978
      dxz     :     0.066143
      dyz     :     0.181812
      dx2y2   :     0.222937
      dxy     :     0.290508
      f0      :     0.005952  f :     0.108781
      f+1     :     0.004255
      f-1     :     0.009547
      f+2     :     0.019932
      f-2     :     0.007087
      f+3     :     0.044844
      f-3     :     0.017165
 11 H s       :     0.809480  s :     0.809480
      pz      :     0.015926  p :     0.059992
      px      :     0.028114
      py      :     0.015952


                      *****************************
                      * MAYER POPULATION ANALYSIS *
                      *****************************

  NA   - Mulliken gross atomic population
  ZA   - Total nuclear charge
  QA   - Mulliken gross atomic charge
  VA   - Mayer's total valence
  BVA  - Mayer's bonded valence
  FA   - Mayer's free valence

  ATOM       NA         ZA         QA         VA         BVA        FA
  0 C      6.2548     6.0000    -0.2548     3.6671     3.6671     0.0000
  1 C      6.1769     6.0000    -0.1769     3.8414     3.8414    -0.0000
  2 H      0.9332     1.0000     0.0668     1.0035     1.0035     0.0000
  3 O      8.6129     8.0000    -0.6129     1.9047     1.9047     0.0000
  4 C      6.1923     6.0000    -0.1923     3.8413     3.8413     0.0000
  5 H      0.8853     1.0000     0.1147     0.9645     0.9645    -0.0000
  6 C      6.1766     6.0000    -0.1766     3.8413     3.8413     0.0000
  7 H      0.8908     1.0000     0.1092     0.9659     0.9659     0.0000
  8 C      6.2549     6.0000    -0.2549     3.6674     3.6674     0.0000
  9 H      0.8854     1.0000     0.1146     0.9645     0.9645     0.0000
 10 C      5.8038     6.0000     0.1962     4.2178     4.2178     0.0000
 11 H      0.9331     1.0000     0.0669     1.0035     1.0035     0.0000

  Mayer bond orders larger than 0.100000
B(  0-C ,  1-C ) :   1.3743 B(  0-C , 10-C ) :   1.2021 B(  0-C , 11-H ) :   0.9837 
B(  1-C ,  4-C ) :   1.3660 B(  1-C ,  5-H ) :   0.9618 B(  2-H ,  8-C ) :   0.9836 
B(  3-O , 10-C ) :   1.7305 B(  4-C ,  6-C ) :   1.3659 B(  4-C ,  7-H ) :   0.9698 
B(  6-C ,  8-C ) :   1.3743 B(  6-C ,  9-H ) :   0.9619 B(  8-C , 10-C ) :   1.2022 


-------
TIMINGS
-------

Total SCF time: 0 days 0 hours 0 min 48 sec 

Total time                  ....      48.313 sec
Sum of individual times     ....      44.954 sec  ( 93.0%)

Fock matrix formation       ....      42.362 sec  ( 87.7%)
  Split-RI-J                ....       6.483 sec  ( 15.3% of F)
  XC integration            ....      20.698 sec  ( 48.9% of F)
    Basis function eval.    ....       5.651 sec  ( 27.3% of XC)
    Density eval.           ....       4.619 sec  ( 22.3% of XC)
    XC-Functional eval.     ....       0.799 sec  (  3.9% of XC)
    XC-Potential eval.      ....       6.178 sec  ( 29.8% of XC)
Diagonalization             ....       0.081 sec  (  0.2%)
Density matrix formation    ....       0.009 sec  (  0.0%)
Population analysis         ....       0.120 sec  (  0.2%)
Initial guess               ....       0.692 sec  (  1.4%)
Orbital Transformation      ....       0.000 sec  (  0.0%)
Orbital Orthonormalization  ....       0.000 sec  (  0.0%)
DIIS solution               ....       0.355 sec  (  0.7%)
SOSCF solution              ....       0.242 sec  (  0.5%)
Grid generation             ....       1.094 sec  (  2.3%)

Maximum memory used throughout the entire SCF-calculation: 93.3 MB


-------------------------------------------------------------------------------
                          DFT DISPERSION CORRECTION                            
                                                                               
                              DFTD3 V3.1  Rev 1                                
                          USING Becke-Johnson damping                          
-------------------------------------------------------------------------------
The PBE functional is recognized
Active option DFTDOPT                   ...         4   

molecular C6(AA) [au] = 1802.731584 


            DFT-D V3
 parameters
 s6 scaling factor         :     1.0000 
 a1 scaling factor         :     0.4289 
 s8 scaling factor         :     0.7875 
 a2 scaling factor         :     4.4407 
 ad hoc parameters k1-k3   :    16.0000     1.3333    -4.0000 

 Edisp/kcal,au: -7.233275012500  -0.011526956229 
 E6   /kcal   :  -5.014423814 
 E8   /kcal   :  -2.218851199 
 % E8         :  30.675609525 

-------------------------   ----------------
Dispersion correction           -0.011526956
-------------------------   ----------------


-------------------------   --------------------
FINAL SINGLE POINT ENERGY      -306.745109020575
-------------------------   --------------------

------------------------------------------------------------------------------
                         ORCA SCF GRADIENT CALCULATION
------------------------------------------------------------------------------

Gradient of the Kohn-Sham DFT energy:
Kohn-Sham wavefunction type      ... RKS
Hartree-Fock exchange scaling    ...    0.000
Number of operators              ...    1
Number of atoms                  ...   12
Basis set dimensions             ...  247
Integral neglect threshold       ... 2.5e-11
Integral primitive cutoff        ... 2.5e-12
SHARK Integral package           ... ON

Nuc. rep. gradient       (SHARK) ... done (  0.0 sec)
HCore & Overlap gradient (SHARK) ... done (  0.3 sec)
RI-J gradient            (SHARK) ... done (  1.9 sec)
Exchange-correlation gradient    ... done
Dispersion correction            ... done

------------------
CARTESIAN GRADIENT
------------------

   1   C   :    0.022623416    0.020683405   -0.000000405
   2   C   :    0.000948716   -0.017466564    0.000000190
   3   H   :   -0.003168841   -0.003028589    0.000000043
   4   O   :    0.000292995   -0.024235246    0.000000189
   5   C   :   -0.000136159    0.013468385   -0.000000052
   6   H   :    0.005346956    0.003452319   -0.000000093
   7   C   :   -0.000565654   -0.017482169    0.000000067
   8   H   :   -0.000069912    0.006295344   -0.000000091
   9   C   :   -0.023092020    0.020214621   -0.000000066
  10   H   :   -0.005427971    0.003319861    0.000000053
  11   C   :    0.000005806   -0.002285684    0.000000119
  12   H   :    0.003242670   -0.002935683    0.000000046

Difference to translation invariance:
           :    0.0000000000   -0.0000000000    0.0000000000

Difference to rotation invariance:
           :    0.0000001717    0.0000001119    0.0000722538

Norm of the cartesian gradient     ...    0.0585360660
RMS gradient                       ...    0.0097560110
MAX gradient                       ...    0.0242352460

-------
TIMINGS
-------

Total SCF gradient time            ...       11.008 sec

One electron gradient       ....       0.272 sec  (  2.5%)
RI-J Coulomb gradient       ....       1.944 sec  ( 17.7%)
XC gradient                 ....       7.424 sec  ( 67.4%)
CPCM gradient               ....       0.476 sec  (  4.3%)
   A-Matrix (El+Nuc)        ....       0.029 sec  (  0.3%)
   Potential                ....       0.447 sec  (  4.1%)

Maximum memory used throughout the entire SCFGRAD-calculation: 97.0 MB
------------------------------------------------------------------------------
                         ORCA GEOMETRY RELAXATION STEP
------------------------------------------------------------------------------

Reading the OPT-File                    .... done
Getting information on internals        .... done
Copying old internal coords+grads       .... done
Making the new internal coordinates     .... (new redundants).... done
Validating the new internal coordinates .... (new redundants).... done
Calculating the B-matrix                .... done
Calculating the G,G- and P matrices     .... done
Transforming gradient to internals      .... done
Projecting the internal gradient        .... done
Number of atoms                         ....  12
Number of internal coordinates          ....  54
Current Energy                          ....  -306.745109021 Eh
Current gradient norm                   ....     0.058536066 Eh/bohr
Maximum allowed component of the step   ....  0.300
Current trust radius                    ....  0.300
Evaluating the initial hessian          ....  (Almloef) done
Projecting the Hessian                  .... done
Forming the augmented Hessian           .... done
Diagonalizing the augmented Hessian     .... done
Last element of RFO vector              ....  0.996392718
Lowest eigenvalues of augmented Hessian:
 -0.004198293  0.023601801  0.023848533  0.024026279  0.024100288
Length of the computed step             ....  0.085169183
The final length of the internal step   ....  0.085169183
Converting the step to cartesian space:
 Initial RMS(Int)=    0.0115900578
Transforming coordinates:
 Iter   0:  RMS(Cart)=    0.0191467066 RMS(Int)=    1.2092550798
 Iter   1:  RMS(Cart)=    0.0000262748 RMS(Int)=    0.0000215642
 Iter   2:  RMS(Cart)=    0.0000003179 RMS(Int)=    0.0000002021
 Iter   3:  RMS(Cart)=    0.0000000038 RMS(Int)=    0.0000000022
done
Storing new coordinates                 .... done

                                .--------------------.
          ----------------------|Geometry convergence|-------------------------
          Item                value                   Tolerance       Converged
          ---------------------------------------------------------------------
          RMS gradient        0.0068821519            0.0001000000      NO
          MAX gradient        0.0254790380            0.0003000000      NO
          RMS step            0.0115900578            0.0020000000      NO
          MAX step            0.0435764351            0.0040000000      NO
          ........................................................
          Max(Bonds)      0.0231      Max(Angles)    0.54
          Max(Dihed)        0.00      Max(Improp)    0.00
          ---------------------------------------------------------------------

The optimization has not yet converged - more geometry cycles are needed


    ---------------------------------------------------------------------------
                         Redundant Internal Coordinates
                            (Angstroem and degrees)

        Definition                    Value    dE/dq     Step     New-Value
    ----------------------------------------------------------------------------
     1. B(C   1,C   0)                1.4028  0.004239 -0.0037    1.3991   
     2. B(C   4,C   1)                1.3884 -0.014012  0.0115    1.3999   
     3. B(H   5,C   1)                1.0840 -0.006354  0.0090    1.0930   
     4. B(C   6,C   4)                1.3884 -0.014029  0.0115    1.3999   
     5. B(H   7,C   4)                1.0833 -0.006296  0.0089    1.0923   
     6. B(C   8,C   6)                1.4028  0.004252 -0.0037    1.3991   
     7. B(C   8,H   2)                1.0893 -0.004256  0.0062    1.0955   
     8. B(H   9,C   6)                1.0840 -0.006352  0.0090    1.0930   
     9. B(C  10,C   8)                1.4075 -0.025479  0.0231    1.4306   
    10. B(C  10,O   3)                1.2750 -0.024237  0.0150    1.2900   
    11. B(C  10,C   0)                1.4075 -0.025470  0.0231    1.4306   
    12. B(H  11,C   0)                1.0893 -0.004251  0.0062    1.0955   
    13. A(C   1,C   0,C  10)          123.28  0.002958   -0.38    122.90   
    14. A(C   1,C   0,H  11)          118.69 -0.002537    0.36    119.06   
    15. A(C  10,C   0,H  11)          118.02 -0.000421    0.02    118.05   
    16. A(C   4,C   1,H   5)          120.64  0.002450   -0.33    120.31   
    17. A(C   0,C   1,H   5)          119.37  0.001690   -0.21    119.16   
    18. A(C   0,C   1,C   4)          119.98 -0.004140    0.54    120.53   
    19. A(C   6,C   4,H   7)          120.50 -0.000619    0.12    120.62   
    20. A(C   1,C   4,H   7)          120.50 -0.000616    0.12    120.62   
    21. A(C   1,C   4,C   6)          119.00  0.001235   -0.24    118.76   
    22. A(C   4,C   6,C   8)          119.98 -0.004121    0.54    120.53   
    23. A(C   8,C   6,H   9)          119.37  0.001691   -0.21    119.16   
    24. A(C   4,C   6,H   9)          120.64  0.002430   -0.33    120.32   
    25. A(C   6,C   8,C  10)          123.28  0.002940   -0.38    122.90   
    26. A(H   2,C   8,C  10)          118.02 -0.000390    0.02    118.04   
    27. A(H   2,C   8,C   6)          118.69 -0.002550    0.36    119.06   
    28. A(C   0,C  10,C   8)          114.47  0.001128   -0.08    114.39   
    29. A(C   0,C  10,O   3)          122.77 -0.000550    0.04    122.80   
    30. A(O   3,C  10,C   8)          122.77 -0.000579    0.04    122.81   
    31. D(H   5,C   1,C   0,C  10)   -180.00  0.000000   -0.00   -180.00   
    32. D(H   5,C   1,C   0,H  11)      0.00  0.000000   -0.00      0.00   
    33. D(C   4,C   1,C   0,H  11)   -180.00  0.000000   -0.00   -180.00   
    34. D(C   4,C   1,C   0,C  10)     -0.00 -0.000000    0.00     -0.00   
    35. D(H   7,C   4,C   1,C   0)   -180.00  0.000000   -0.00   -180.00   
    36. D(C   6,C   4,C   1,C   0)     -0.00 -0.000000    0.00      0.00   
    37. D(C   6,C   4,C   1,H   5)    180.00 -0.000000    0.00    180.00   
    38. D(H   7,C   4,C   1,H   5)      0.00 -0.000000    0.00      0.00   
    39. D(H   9,C   6,C   4,H   7)     -0.00 -0.000000    0.00     -0.00   
    40. D(H   9,C   6,C   4,C   1)    180.00 -0.000000    0.00    180.00   
    41. D(C   8,C   6,C   4,H   7)    180.00 -0.000000    0.00    180.00   
    42. D(C   8,C   6,C   4,C   1)     -0.00  0.000000   -0.00     -0.00   
    43. D(C  10,C   8,C   6,C   4)      0.00  0.000000   -0.00      0.00   
    44. D(H   2,C   8,C   6,H   9)      0.00  0.000000   -0.00      0.00   
    45. D(H   2,C   8,C   6,C   4)   -180.00 -0.000000    0.00   -180.00   
    46. D(C  10,C   8,C   6,H   9)   -180.00  0.000000   -0.00   -180.00   
    47. D(O   3,C  10,C   8,C   6)   -180.00  0.000000   -0.00   -180.00   
    48. D(C   0,C  10,C   8,C   6)     -0.00 -0.000000    0.00      0.00   
    49. D(C   0,C  10,C   8,H   2)    180.00 -0.000000    0.00    180.00   
    50. D(C   8,C  10,C   0,H  11)    180.00  0.000000   -0.00    180.00   
    51. D(C   8,C  10,C   0,C   1)      0.00  0.000000   -0.00     -0.00   
    52. D(O   3,C  10,C   8,H   2)      0.00  0.000000   -0.00     -0.00   
    53. D(O   3,C  10,C   0,H  11)     -0.00 -0.000000    0.00     -0.00   
    54. D(O   3,C  10,C   0,C   1)    180.00 -0.000000    0.00    180.00   
    ----------------------------------------------------------------------------

         *************************************************************
         *                GEOMETRY OPTIMIZATION CYCLE   2            *
         *************************************************************
---------------------------------
CARTESIAN COORDINATES (ANGSTROEM)
---------------------------------
  C     -3.057374    1.739189   -0.000011
  C     -3.043288    0.340150    0.000001
  H      0.297698    2.312020   -0.000038
  O     -1.879184    3.818147   -0.000036
  C     -1.830371   -0.358770   -0.000001
  H     -3.992382   -0.201982    0.000012
  C     -0.634083    0.368271   -0.000015
  H     -1.817632   -1.450968    0.000007
  C     -0.652712    1.767245   -0.000027
  H      0.327429   -0.151514   -0.000017
  C     -1.864091    2.528251   -0.000025
  H     -4.020276    2.261550   -0.000008

----------------------------
CARTESIAN COORDINATES (A.U.)
----------------------------
  NO LB      ZA    FRAG     MASS         X           Y           Z
   0 C     6.0000    0    12.011   -5.777599    3.286591   -0.000020
   1 C     6.0000    0    12.011   -5.750980    0.642791    0.000002
   2 H     1.0000    0     1.008    0.562568    4.369085   -0.000071
   3 O     8.0000    0    15.999   -3.551144    7.215252   -0.000068
   4 C     6.0000    0    12.011   -3.458900   -0.677976   -0.000002
   5 H     1.0000    0     1.008   -7.544508   -0.381691    0.000022
   6 C     6.0000    0    12.011   -1.198243    0.695932   -0.000028
   7 H     1.0000    0     1.008   -3.434827   -2.741932    0.000014
   8 C     6.0000    0    12.011   -1.233447    3.339610   -0.000051
   9 H     1.0000    0     1.008    0.618751   -0.286320   -0.000031
  10 C     6.0000    0    12.011   -3.522622    4.777701   -0.000048
  11 H     1.0000    0     1.008   -7.597221    4.273711   -0.000015

--------------------------------
INTERNAL COORDINATES (ANGSTROEM)
--------------------------------
 C      0   0   0     0.000000000000     0.00000000     0.00000000
 C      1   0   0     1.399109594099     0.00000000     0.00000000
 H      1   2   0     3.403622057220    99.11215847     0.00000000
 O      1   2   3     2.389601726917   149.88198750     0.00000000
 C      2   1   3     1.399876831032   120.52874078     0.00000000
 H      2   1   3     1.093017402310   119.15858000   180.00001539
 C      5   2   1     1.399890591690   118.75910371     0.00000000
 H      5   2   1     1.092272709611   120.62012662   180.00005332
 C      3   1   2     1.095471908926    20.13231717     0.00000000
 H      7   5   2     1.093015224259   120.31569421   179.99997460
 C      4   1   2     1.289984434866    30.21153298     0.00000000
 H      1   2   3     1.095464644439   119.05609478   180.00004778

---------------------------
INTERNAL COORDINATES (A.U.)
---------------------------
 C      0   0   0     0.000000000000     0.00000000     0.00000000
 C      1   0   0     2.643933964188     0.00000000     0.00000000
 H      1   2   0     6.431913551519    99.11215847     0.00000000
 O      1   2   3     4.515692833019   149.88198750     0.00000000
 C      2   1   3     2.645383831873   120.52874078     0.00000000
 H      2   1   3     2.065503549977   119.15858000   180.00001539
 C      5   2   1     2.645409835747   118.75910371     0.00000000
 H      5   2   1     2.064096284721   120.62012662   180.00005332
 C      3   1   2     2.070141895275    20.13231717     0.00000000
 H      7   5   2     2.065499434057   120.31569421   179.99997460
 C      4   1   2     2.437717298917    30.21153298     0.00000000
 H      1   2   3     2.070128167383   119.05609478   180.00004778

------------------------------------------------------------------------------
                   ___                                                        
                  /   \      - P O W E R E D   B Y -                         
                 /     \                                                     
                 |  |  |   _    _      __       _____    __    __             
                 |  |  |  | |  | |    /  \     |  _  \  |  |  /  |          
                  \  \/   | |  | |   /    \    | | | |  |  | /  /          
                 / \  \   | |__| |  /  /\  \   | |_| |  |  |/  /          
                |  |  |   |  __  | /  /__\  \  |    /   |      \           
                |  |  |   | |  | | |   __   |  |    \   |  |\   \          
                \     /   | |  | | |  |  |  |  | |\  \  |  | \   \       
                 \___/    |_|  |_| |__|  |__|  |_| \__\ |__|  \__/        
                                                                              
                      - O R C A' S   B I G   F R I E N D -                    
                                      &                                       
                       - I N T E G R A L  F E E D E R -                       
                                                                              
 v1 FN, 2020, v2 2021                                                         
------------------------------------------------------------------------------


Reading SHARK input file inp.SHARKINP.tmp ... ok
----------------------
SHARK INTEGRAL PACKAGE
----------------------

Number of atoms                             ...     12
Number of basis functions                   ...    247
Number of shells                            ...     97
Maximum angular momentum                    ...      3
Integral batch strategy                     ... SHARK/LIBINT Hybrid
RI-J (if used) integral strategy            ... SPLIT-RIJ (Revised 2003 algorithm where possible)
Printlevel                                  ...      1
Contraction scheme used                     ... SEGMENTED contraction
Coulomb Range Separation                    ... NOT USED
Exchange Range Separation                   ... NOT USED
Finite Nucleus Model                        ... NOT USED
Auxiliary Coulomb fitting basis             ... AVAILABLE
   # of basis functions in Aux-J            ...    398
   # of shells in Aux-J                     ...    130
   Maximum angular momentum in Aux-J        ...      4
Auxiliary J/K fitting basis                 ... NOT available
Auxiliary Correlation fitting basis         ... NOT available
Auxiliary 'external' fitting basis          ... NOT available
Integral threshold                          ...     2.500000e-11
Primitive cut-off                           ...     2.500000e-12
Primitive pair pre-selection threshold      ...     2.500000e-12

Calculating pre-screening integrals         ... done (  0.1 sec) Dimension = 97
Organizing shell pair data                  ... done (  0.2 sec)
Shell pair information
Total number of shell pairs                 ...      4753
Shell pairs after pre-screening             ...      4498
Total number of primitive shell pairs       ...     14704
Primitive shell pairs kept                  ...     10774
          la=0 lb=0:   1151 shell pairs
          la=1 lb=0:   1238 shell pairs
[...]
 179   0.0000       3.246306        88.3365 
 180   0.0000       3.283488        89.3482 
 181   0.0000       3.309154        90.0467 
 182   0.0000       3.336921        90.8022 
 183   0.0000       3.344554        91.0099 
 184   0.0000       3.349824        91.1533 
 185   0.0000       3.401263        92.5531 
 186   0.0000       3.411514        92.8320 
 187   0.0000       3.422008        93.1176 
 188   0.0000       3.423330        93.1535 
 189   0.0000       3.431401        93.3732 
 190   0.0000       3.456543        94.0573 
 191   0.0000       3.540026        96.3290 
 192   0.0000       3.601126        97.9916 
 193   0.0000       3.628507        98.7367 
 194   0.0000       3.698856       100.6510 
 195   0.0000       3.713016       101.0363 
 196   0.0000       3.718187       101.1770 
 197   0.0000       3.719907       101.2238 
 198   0.0000       3.835023       104.3563 
 199   0.0000       3.912130       106.4545 
 200   0.0000       3.937605       107.1477 
 201   0.0000       3.955703       107.6402 
 202   0.0000       3.962218       107.8174 
 203   0.0000       3.962698       107.8305 
 204   0.0000       4.044319       110.0515 
 205   0.0000       4.047345       110.1338 
 206   0.0000       4.091837       111.3445 
 207   0.0000       4.123186       112.1976 
 208   0.0000       4.131281       112.4179 
 209   0.0000       4.164887       113.3323 
 210   0.0000       4.168436       113.4289 
 211   0.0000       4.186368       113.9169 
 212   0.0000       4.190046       114.0170 
 213   0.0000       4.418674       120.2382 
 214   0.0000       4.468993       121.6075 
 215   0.0000       4.529651       123.2581 
 216   0.0000       4.557624       124.0193 
 217   0.0000       4.601260       125.2066 
 218   0.0000       4.611574       125.4873 
 219   0.0000       4.730148       128.7139 
 220   0.0000       4.740698       129.0010 
 221   0.0000       4.796556       130.5209 
 222   0.0000       4.980676       135.5311 
 223   0.0000       4.988276       135.7379 
 224   0.0000       5.089558       138.4939 
 225   0.0000       5.142989       139.9479 
 226   0.0000       5.178117       140.9037 
 227   0.0000       5.183745       141.0569 
 228   0.0000       5.269477       143.3898 
 229   0.0000       5.446940       148.2188 
 230   0.0000       5.519502       150.1933 
 231   0.0000       5.626149       153.0953 
 232   0.0000       5.911354       160.8561 
 233   0.0000       6.212653       169.0549 
 234   0.0000       6.297223       171.3562 
 235   0.0000       6.440461       175.2539 
 236   0.0000       6.490390       176.6125 
 237   0.0000       6.720043       182.8617 
 238   0.0000       6.944601       188.9722 
 239   0.0000       6.948725       189.0844 
 240   0.0000      21.752913       591.9269 
 241   0.0000      22.270145       606.0015 
 242   0.0000      22.302262       606.8754 
 243   0.0000      22.378374       608.9465 
 244   0.0000      22.527336       613.0000 
 245   0.0000      23.003445       625.9556 
 246   0.0000      43.572511      1185.6683 

                    ********************************
                    * MULLIKEN POPULATION ANALYSIS *
                    ********************************

-----------------------
MULLIKEN ATOMIC CHARGES
-----------------------
   0 C :   -0.274526
   1 C :   -0.158904
   2 H :    0.073218
   3 O :   -0.617693
   4 C :   -0.216377
   5 H :    0.112400
   6 C :   -0.158756
   7 H :    0.114114
   8 C :   -0.274711
   9 H :    0.112386
  10 C :    0.215568
  11 H :    0.073281
Sum of atomic charges:   -1.0000000

--------------------------------
MULLIKEN REDUCED ORBITAL CHARGES
--------------------------------
  0 C s       :     3.268157  s :     3.268157
      pz      :     1.089844  p :     2.926536
      px      :     0.931297
      py      :     0.905396
      dz2     :     0.003084  d :     0.073319
      dxz     :     0.006191
      dyz     :     0.016303
      dx2y2   :     0.019095
      dxy     :     0.028646
      f0      :     0.001310  f :     0.006514
      f+1     :     0.000569
      f-1     :     0.000518
      f+2     :     0.000718
      f-2     :     0.000417
      f+3     :     0.001997
      f-3     :     0.000985
  1 C s       :     3.193445  s :     3.193445
      pz      :     0.990539  p :     2.866139
      px      :     0.949783
      py      :     0.925817
      dz2     :     0.004272  d :     0.092560
      dxz     :     0.009640
      dyz     :     0.022875
      dx2y2   :     0.020966
      dxy     :     0.034806
      f0      :     0.001360  f :     0.006760
      f+1     :     0.000559
      f-1     :     0.000468
      f+2     :     0.001002
      f-2     :     0.000448
      f+3     :     0.002131
      f-3     :     0.000794
  2 H s       :     0.904844  s :     0.904844
      pz      :     0.005778  p :     0.021938
      px      :     0.010303
      py      :     0.005856
  3 O s       :     3.762842  s :     3.762842
      pz      :     1.609036  p :     4.827696
      px      :     1.844379
      py      :     1.374281
      dz2     :     0.002659  d :     0.025689
      dxz     :     0.000062
      dyz     :     0.007735
      dx2y2   :     0.008699
      dxy     :     0.006533
      f0      :     0.000149  f :     0.001466
      f+1     :     0.000020
      f-1     :     0.000185
      f+2     :     0.000302
      f-2     :     0.000005
      f+3     :     0.000391
      f-3     :     0.000414
  4 C s       :     3.192798  s :     3.192798
      pz      :     1.092664  p :     2.932836
      px      :     0.897746
      py      :     0.942426
      dz2     :     0.004672  d :     0.084079
      dxz     :     0.020672
      dyz     :     0.005578
      dx2y2   :     0.036873
      dxy     :     0.016284
      f0      :     0.001374  f :     0.006664
      f+1     :     0.000464
      f-1     :     0.000651
      f+2     :     0.000114
      f-2     :     0.001124
      f+3     :     0.002114
      f-3     :     0.000823
  5 H s       :     0.866220  s :     0.866220
      pz      :     0.005005  p :     0.021380
      px      :     0.010319
      py      :     0.006056
  6 C s       :     3.193378  s :     3.193378
      pz      :     0.990533  p :     2.866085
      px      :     0.950730
      py      :     0.924822
      dz2     :     0.004267  d :     0.092534
      dxz     :     0.009148
      dyz     :     0.023365
      dx2y2   :     0.021896
      dxy     :     0.033858
      f0      :     0.001359  f :     0.006759
      f+1     :     0.000562
      f-1     :     0.000465
      f+2     :     0.000955
      f-2     :     0.000494
      f+3     :     0.002124
      f-3     :     0.000799
  7 H s       :     0.863885  s :     0.863885
      pz      :     0.006001  p :     0.022001
      px      :     0.003782
      py      :     0.012218
  8 C s       :     3.268372  s :     3.268372
      pz      :     1.089902  p :     2.926507
      px      :     0.931339
      py      :     0.905267
      dz2     :     0.003093  d :     0.073319
      dxz     :     0.006445
      dyz     :     0.016044
      dx2y2   :     0.018770
      dxy     :     0.028967
      f0      :     0.001310  f :     0.006513
      f+1     :     0.000568
      f-1     :     0.000519
      f+2     :     0.000742
      f-2     :     0.000393
      f+3     :     0.002020
      f-3     :     0.000962
  9 H s       :     0.866231  s :     0.866231
      pz      :     0.005006  p :     0.021382
      px      :     0.010493
      py      :     0.005884
 10 C s       :     2.963695  s :     2.963695
      pz      :     0.880495  p :     2.660963
      px      :     0.906636
      py      :     0.873833
      dz2     :     0.007476  d :     0.144213
      dxz     :     0.016668
      dyz     :     0.049906
      dx2y2   :     0.038194
      dxy     :     0.031971
      f0      :     0.001937  f :     0.015561
      f+1     :     0.000616
      f-1     :     0.001112
      f+2     :     0.002279
      f-2     :     0.000998
      f+3     :     0.006423
      f-3     :     0.002197
 11 H s       :     0.904782  s :     0.904782
      pz      :     0.005778  p :     0.021938
      px      :     0.010478
      py      :     0.005682


                     *******************************
                     * LOEWDIN POPULATION ANALYSIS *
                     *******************************

----------------------
LOEWDIN ATOMIC CHARGES
----------------------
   0 C :   -0.200010
   1 C :   -0.203357
   2 H :    0.130945
   3 O :   -0.191516
   4 C :   -0.241607
   5 H :    0.140643
   6 C :   -0.203322
   7 H :    0.135996
   8 C :   -0.200032
   9 H :    0.140644
  10 C :   -0.439346
  11 H :    0.130961

-------------------------------
LOEWDIN REDUCED ORBITAL CHARGES
-------------------------------
  0 C s       :     2.787749  s :     2.787749
      pz      :     0.976591  p :     3.016289
      px      :     0.988032
      py      :     1.051666
      dz2     :     0.027748  d :     0.357710
      dxz     :     0.020920
      dyz     :     0.056789
      dx2y2   :     0.109272
      dxy     :     0.142981
      f0      :     0.002833  f :     0.038263
      f+1     :     0.003233
      f-1     :     0.004095
      f+2     :     0.004900
      f-2     :     0.002614
      f+3     :     0.013071
      f-3     :     0.007517
  1 C s       :     2.777617  s :     2.777617
      pz      :     0.908924  p :     2.976700
      px      :     1.009066
      py      :     1.058710
      dz2     :     0.025109  d :     0.407082
      dxz     :     0.033727
      dyz     :     0.081453
      dx2y2   :     0.117142
      dxy     :     0.149650
      f0      :     0.002623  f :     0.041958
      f+1     :     0.003339
      f-1     :     0.004007
      f+2     :     0.006975
      f-2     :     0.003065
      f+3     :     0.014440
      f-3     :     0.007508
  2 H s       :     0.809401  s :     0.809401
      pz      :     0.015669  p :     0.059654
      px      :     0.027731
      py      :     0.016254
  3 O s       :     3.441624  s :     3.441624
      pz      :     1.520860  p :     4.686012
      px      :     1.703915
      py      :     1.461236
      dz2     :     0.006453  d :     0.059172
      dxz     :     0.000057
      dyz     :     0.014282
      dx2y2   :     0.020051
      dxy     :     0.018329
      f0      :     0.000420  f :     0.004708
      f+1     :     0.000097
      f-1     :     0.000723
      f+2     :     0.000689
      f-2     :     0.000010
      f+3     :     0.001425
      f-3     :     0.001344
  4 C s       :     2.774254  s :     2.774254
      pz      :     0.992403  p :     3.044927
      px      :     1.064427
      py      :     0.988097
      dz2     :     0.024854  d :     0.381067
      dxz     :     0.075623
      dyz     :     0.015469
      dx2y2   :     0.163164
      dxy     :     0.101959
      f0      :     0.002971  f :     0.041358
      f+1     :     0.004245
      f-1     :     0.003233
      f+2     :     0.001015
      f-2     :     0.007515
      f+3     :     0.014920
      f-3     :     0.007458
  5 H s       :     0.801396  s :     0.801396
      pz      :     0.013580  p :     0.057961
      px      :     0.027676
      py      :     0.016704
  6 C s       :     2.777633  s :     2.777633
      pz      :     0.908929  p :     2.976690
      px      :     1.007346
      py      :     1.060414
      dz2     :     0.025106  d :     0.407047
      dxz     :     0.031821
      dyz     :     0.083351
      dx2y2   :     0.119802
      dxy     :     0.146966
      f0      :     0.002623  f :     0.041952
      f+1     :     0.003314
      f-1     :     0.004031
      f+2     :     0.006661
      f-2     :     0.003378
      f+3     :     0.014435
      f-3     :     0.007510
  7 H s       :     0.803700  s :     0.803700
      pz      :     0.016553  p :     0.060304
      px      :     0.010975
      py      :     0.032775
  8 C s       :     2.787769  s :     2.787769
      pz      :     0.976638  p :     3.016331
      px      :     0.989108
      py      :     1.050585
      dz2     :     0.027744  d :     0.357674
      dxz     :     0.021981
      dyz     :     0.055718
      dx2y2   :     0.107277
      dxy     :     0.144954
      f0      :     0.002832  f :     0.038257
      f+1     :     0.003257
      f-1     :     0.004071
      f+2     :     0.005075
      f-2     :     0.002438
      f+3     :     0.013136
      f-3     :     0.007448
  9 H s       :     0.801393  s :     0.801393
      pz      :     0.013581  p :     0.057963
      px      :     0.028117
      py      :     0.016265
 10 C s       :     2.743683  s :     2.743683
      pz      :     0.828008  p :     2.823280
      px      :     1.051011
      py      :     0.944261
      dz2     :     0.046996  d :     0.772368
      dxz     :     0.061015
      dyz     :     0.171579
      dx2y2   :     0.211341
      dxy     :     0.281436
      f0      :     0.005498  f :     0.100015
      f+1     :     0.003972
      f-1     :     0.009304
      f+2     :     0.018385
      f-2     :     0.006289
      f+3     :     0.040480
      f-3     :     0.016087
 11 H s       :     0.809387  s :     0.809387
      pz      :     0.015669  p :     0.059652
      px      :     0.028175
      py      :     0.015808


                      *****************************
                      * MAYER POPULATION ANALYSIS *
                      *****************************

  NA   - Mulliken gross atomic population
  ZA   - Total nuclear charge
  QA   - Mulliken gross atomic charge
  VA   - Mayer's total valence
  BVA  - Mayer's bonded valence
  FA   - Mayer's free valence

  ATOM       NA         ZA         QA         VA         BVA        FA
  0 C      6.2745     6.0000    -0.2745     3.6938     3.6938     0.0000
  1 C      6.1589     6.0000    -0.1589     3.8273     3.8273    -0.0000
  2 H      0.9268     1.0000     0.0732     1.0005     1.0005    -0.0000
  3 O      8.6177     8.0000    -0.6177     1.8957     1.8957    -0.0000
  4 C      6.2164     6.0000    -0.2164     3.8470     3.8470     0.0000
  5 H      0.8876     1.0000     0.1124     0.9633     0.9633    -0.0000
  6 C      6.1588     6.0000    -0.1588     3.8273     3.8273    -0.0000
  7 H      0.8859     1.0000     0.1141     0.9665     0.9665     0.0000
  8 C      6.2747     6.0000    -0.2747     3.6944     3.6944    -0.0000
  9 H      0.8876     1.0000     0.1124     0.9633     0.9633     0.0000
 10 C      5.7844     6.0000     0.2156     4.1639     4.1639    -0.0000
 11 H      0.9267     1.0000     0.0733     1.0004     1.0004    -0.0000

  Mayer bond orders larger than 0.100000
B(  0-C ,  1-C ) :   1.3931 B(  0-C , 10-C ) :   1.1885 B(  0-C , 11-H ) :   0.9799 
B(  1-C ,  4-C ) :   1.3574 B(  1-C ,  5-H ) :   0.9584 B(  2-H ,  8-C ) :   0.9799 
B(  3-O , 10-C ) :   1.7080 B(  4-C ,  6-C ) :   1.3573 B(  4-C ,  7-H ) :   0.9694 
B(  6-C ,  8-C ) :   1.3933 B(  6-C ,  9-H ) :   0.9585 B(  8-C , 10-C ) :   1.1887 


-------
TIMINGS
-------

Total SCF time: 0 days 0 hours 0 min 20 sec 

Total time                  ....      20.292 sec
Sum of individual times     ....      17.744 sec  ( 87.4%)

Fock matrix formation       ....      16.640 sec  ( 82.0%)
  Split-RI-J                ....       2.392 sec  ( 14.4% of F)
  XC integration            ....       9.283 sec  ( 55.8% of F)
    Basis function eval.    ....       2.079 sec  ( 22.4% of XC)
    Density eval.           ....       1.673 sec  ( 18.0% of XC)
    XC-Functional eval.     ....       0.297 sec  (  3.2% of XC)
    XC-Potential eval.      ....       1.892 sec  ( 20.4% of XC)
Diagonalization             ....       0.012 sec  (  0.1%)
Density matrix formation    ....       0.004 sec  (  0.0%)
Population analysis         ....       0.177 sec  (  0.9%)
Initial guess               ....       0.015 sec  (  0.1%)
Orbital Transformation      ....       0.000 sec  (  0.0%)
Orbital Orthonormalization  ....       0.011 sec  (  0.1%)
DIIS solution               ....       0.003 sec  (  0.0%)
SOSCF solution              ....       0.157 sec  (  0.8%)
Grid generation             ....       0.736 sec  (  3.6%)

Maximum memory used throughout the entire SCF-calculation: 93.1 MB


-------------------------------------------------------------------------------
                          DFT DISPERSION CORRECTION                            
                                                                               
                              DFTD3 V3.1  Rev 1                                
                          USING Becke-Johnson damping                          
-------------------------------------------------------------------------------
The PBE functional is recognized
Active option DFTDOPT                   ...         4   

molecular C6(AA) [au] = 1806.666942 


            DFT-D V3
 parameters
 s6 scaling factor         :     1.0000 
 a1 scaling factor         :     0.4289 
 s8 scaling factor         :     0.7875 
 a2 scaling factor         :     4.4407 
 ad hoc parameters k1-k3   :    16.0000     1.3333    -4.0000 

 Edisp/kcal,au: -7.189957161098  -0.011457924846 
 E6   /kcal   :  -4.983361473 
 E8   /kcal   :  -2.206595688 
 % E8         :  30.689969891 

-------------------------   ----------------
Dispersion correction           -0.011457925
-------------------------   ----------------


-------------------------   --------------------
FINAL SINGLE POINT ENERGY      -306.747982971304
-------------------------   --------------------

                                *** OPTIMIZATION RUN DONE ***

                            ***************************************
                            *     ORCA property calculations      *
                            ***************************************

                                    ---------------------
                                    Active property flags
                                    ---------------------
   (+) Dipole Moment


------------------------------------------------------------------------------
                       ORCA ELECTRIC PROPERTIES CALCULATION
------------------------------------------------------------------------------

Dipole Moment Calculation                       ... on
Quadrupole Moment Calculation                   ... off
Polarizability Calculation                      ... off
GBWName                                         ... inp.gbw
Electron density                                ... inp.scfp
The origin for moment calculation is the CENTER OF MASS  = (-3.500176,  2.853411 -0.000032)

-------------
DIPOLE MOMENT
-------------
                                X             Y             Z
Electronic contribution:     -0.02284       1.94009      -0.00002
Nuclear contribution   :      0.05209      -4.45195       0.00004
                        -----------------------------------------
Total Dipole Moment    :      0.02925      -2.51186       0.00002
                        -----------------------------------------
Magnitude (a.u.)       :      2.51203
Magnitude (Debye)      :      6.38507



--------------------
Rotational spectrum 
--------------------
 
Rotational constants in cm-1:     0.189693     0.088983     0.060570 
Rotational constants in MHz :  5686.865384  2667.638650  1815.847097 

 Dipole components along the rotational axes: 
x,y,z [a.u.] :    -2.512030    -0.000322    -0.000000 
x,y,z [Debye]:    -6.385073    -0.000818    -0.000000 

 

Timings for individual modules:

Sum of individual times         ...      237.420 sec (=   3.957 min)
GTO integral calculation        ...        6.728 sec (=   0.112 min)   2.8 %
SCF iterations                  ...      174.668 sec (=   2.911 min)  73.6 %
SCF Gradient evaluation         ...       54.900 sec (=   0.915 min)  23.1 %
Geometry relaxation             ...        1.124 sec (=   0.019 min)   0.5 %
                             ****ORCA TERMINATED NORMALLY****
TOTAL RUN TIME: 0 days 0 hours 4 minutes 1 seconds 365 msec
