 Entering Gaussian System
 *********************************************
 Gaussian 98:
 frequency output generated by the xtb code
 *********************************************
                         Standard orientation:
 --------------------------------------------------------------------
  Center     Atomic     Atomic              Coordinates (Angstroms)
  Number     Number      Type              X           Y           Z
 --------------------------------------------------------------------
    1          6             0       -4.103059    0.632080    0.096409
    2         16             0       -2.453583    1.552774    0.388344
    3          1             0       -4.123624    0.308054   -0.938024
    4          1             0       -4.117548   -0.224873    0.762675
    5          1             0       -4.933910    1.299518    0.313763
    6          6             0       -1.412848    0.283611   -0.220032
    7          1             0       -1.091595   -0.273539    0.684018
    8          8             0       -2.465514    2.649058   -0.639480
    9          1             0       -0.523483    0.785714   -0.627860
 --------------------------------------------------------------------
     1 basis functions        1 primitive gaussians
     1 alpha electrons        1 beta electrons
 
 Harmonic frequencies (cm**-1), IR intensities (km*mol⁻¹),
 Raman scattering activities (A**4/amu), Raman depolarization ratios,
 reduced masses (AMU), force constants (mDyne/A) and normal coordinates:
                      1                      2                      3
                        a                      a                      a 
 Frequencies --    58.2189               111.5819               276.6562
 Red. masses --     3.2774                 1.6594                10.0595
 Frc consts  --     0.0000                 0.0000                 0.0000
 IR Inten    --    26.3695                 0.2069                 5.5210
 Raman Activ --     0.0000                 0.0000                 0.0000
 Depolar     --     0.0000                 0.0000                 0.0000
 Atom AN      X      Y      Z        X      Y      Z        X      Y      Z
   1   6     0.16  -0.15   0.14    -0.03   0.01  -0.01     0.25  -0.32  -0.02
   2  16    -0.09   0.12  -0.04     0.02  -0.08   0.01    -0.06   0.26  -0.02
   3   1     0.06  -0.10   0.06     0.22  -0.48   0.15     0.17  -0.17   0.02
   4   1     0.07  -0.01   0.09    -0.27   0.32   0.40     0.24  -0.06   0.04
   5   1     0.02  -0.06   0.00     0.02   0.20  -0.52    -0.08  -0.26  -0.06
   6   6    -0.10   0.03  -0.21     0.03   0.03  -0.12    -0.47  -0.24   0.04
   7   1    -0.52  -0.35  -0.10     0.06   0.01  -0.05     0.03   0.08   0.04
   8   8     0.10   0.06  -0.04    -0.04   0.05   0.12     0.23   0.26   0.06
   9   1     0.26   0.03   0.57    -0.02   0.03  -0.07    -0.19  -0.19  -0.26
                      4                      5                      6
                        a                      a                      a 
 Frequencies --   305.1379               371.0779               525.8527
 Red. masses --    13.0799                16.4939                17.3215
 Frc consts  --     0.0000                 0.0000                 0.0000
 IR Inten    --     1.4764                 9.4328               175.9700
 Raman Activ --     0.0000                 0.0000                 0.0000
 Depolar     --     0.0000                 0.0000                 0.0000
 Atom AN      X      Y      Z        X      Y      Z        X      Y      Z
   1   6    -0.37  -0.24   0.18    -0.14  -0.05   0.09    -0.53  -0.33  -0.10
   2  16    -0.25  -0.06  -0.10     0.06  -0.13  -0.49     0.56   0.21   0.09
   3   1    -0.23  -0.14   0.08    -0.22  -0.10   0.05    -0.04  -0.03  -0.05
   4   1     0.02  -0.02   0.11     0.04   0.04   0.10    -0.21  -0.13  -0.08
   5   1    -0.10  -0.09   0.12     0.02   0.03   0.11    -0.15  -0.09  -0.08
   6   6     0.13   0.32  -0.06     0.23  -0.28   0.26    -0.09   0.13   0.09
   7   1     0.11   0.06  -0.07    -0.05   0.07   0.21    -0.16  -0.14  -0.06
   8   8     0.62   0.01  -0.00    -0.13   0.49   0.25    -0.12   0.01  -0.04
   9   1    -0.04   0.18  -0.06     0.12  -0.15   0.11     0.04  -0.17  -0.05
                      7                      8                      9
                        a                      a                      a 
 Frequencies --   732.2407               803.7399               824.5856
 Red. masses --    12.9260                 4.3057                 7.8426
 Frc consts  --     0.0000                 0.0000                 0.0000
 IR Inten    --    76.7634                16.8632                45.8227
 Raman Activ --     0.0000                 0.0000                 0.0000
 Depolar     --     0.0000                 0.0000                 0.0000
 Atom AN      X      Y      Z        X      Y      Z        X      Y      Z
   1   6     0.24   0.04  -0.10     0.16  -0.31   0.25     0.10  -0.22  -0.29
   2  16     0.15  -0.30  -0.19    -0.09  -0.02  -0.09    -0.08   0.28   0.26
   3   1    -0.21  -0.10   0.01     0.16   0.25  -0.04    -0.55  -0.21  -0.02
   4   1     0.09   0.08   0.07    -0.59  -0.24  -0.16    -0.03   0.08   0.10
   5   1     0.18   0.11   0.10     0.33   0.31  -0.04     0.37   0.28   0.19
   6   6    -0.38   0.57   0.30    -0.10   0.04   0.02     0.08  -0.18  -0.11
   7   1    -0.21  -0.04  -0.03    -0.00   0.11   0.06     0.06  -0.08  -0.06
   8   8    -0.03  -0.09   0.09     0.12   0.16  -0.05    -0.02  -0.04  -0.05
   9   1    -0.09  -0.10  -0.11    -0.03   0.00  -0.02     0.05  -0.11  -0.07
                     10                     11                     12
                        a                      a                      a 
 Frequencies --   917.0168              1013.4607              1061.6175
 Red. masses --     5.0840                12.6709                12.1205
 Frc consts  --     0.0000                 0.0000                 0.0000
 IR Inten    --    26.3000               187.9403               140.7577
 Raman Activ --     0.0000                 0.0000                 0.0000
 Depolar     --     0.0000                 0.0000                 0.0000
 Atom AN      X      Y      Z        X      Y      Z        X      Y      Z
   1   6     0.05   0.07   0.10    -0.01  -0.01  -0.04    -0.05   0.02  -0.03
   2  16    -0.26  -0.00   0.02     0.09  -0.30   0.22    -0.02  -0.31   0.37
   3   1     0.14   0.07   0.01    -0.04  -0.03  -0.00     0.01  -0.02   0.00
   4   1    -0.01  -0.02  -0.02     0.03   0.01   0.02     0.07   0.03   0.02
   5   1    -0.04  -0.03  -0.03     0.01   0.00   0.02    -0.02  -0.02   0.01
   6   6     0.32   0.10   0.15    -0.09  -0.08   0.19     0.04   0.13  -0.23
   7   1    -0.05  -0.49  -0.28     0.21  -0.31  -0.23    -0.25   0.41   0.29
   8   8     0.01   0.10  -0.07    -0.05   0.50  -0.43     0.03   0.29  -0.36
   9   1     0.13  -0.50  -0.39    -0.21   0.35   0.11     0.21  -0.34  -0.06
                     13                     14                     15
                        a                      a                      a 
 Frequencies --  1229.5969              1465.4516              1467.5638
 Red. masses --     2.8824                 1.7379                 1.8661
 Frc consts  --     0.0000                 0.0000                 0.0000
 IR Inten    --     3.2406                 1.5940                 9.2903
 Raman Activ --     0.0000                 0.0000                 0.0000
 Depolar     --     0.0000                 0.0000                 0.0000
 Atom AN      X      Y      Z        X      Y      Z        X      Y      Z
   1   6     0.35   0.20   0.07    -0.05   0.15  -0.20     0.13  -0.15  -0.14
   2  16     0.01  -0.01   0.02    -0.00   0.01  -0.01     0.00   0.01   0.01
   3   1    -0.46  -0.22   0.08     0.40  -0.44   0.11    -0.03   0.43  -0.15
   4   1    -0.47  -0.15  -0.19    -0.29  -0.02  -0.07    -0.25   0.37   0.47
   5   1    -0.34  -0.38  -0.13     0.08  -0.11   0.67    -0.13  -0.25   0.16
   6   6     0.01  -0.00  -0.01     0.04  -0.02   0.01     0.13  -0.06   0.01
   7   1    -0.01   0.01   0.01    -0.08  -0.00   0.02    -0.29  -0.02   0.08
   8   8    -0.00   0.02  -0.02     0.00  -0.00   0.00    -0.00  -0.00  -0.00
   9   1     0.01  -0.01   0.00    -0.05   0.05  -0.05    -0.18   0.16  -0.17
                     16                     17                     18
                        a                      a                      a 
 Frequencies --  1474.4342              2737.6745              2840.8291
 Red. masses --     1.9747                 1.7203                 1.7488
 Frc consts  --     0.0000                 0.0000                 0.0000
 IR Inten    --    29.5188               322.6917               270.6261
 Raman Activ --     0.0000                 0.0000                 0.0000
 Depolar     --     0.0000                 0.0000                 0.0000
 Atom AN      X      Y      Z        X      Y      Z        X      Y      Z
   1   6    -0.03   0.05   0.09     0.01   0.00  -0.00     0.01  -0.01  -0.00
   2  16    -0.00   0.03   0.04    -0.00   0.00   0.01    -0.00   0.01  -0.00
   3   1    -0.06  -0.16   0.06    -0.00  -0.00  -0.00     0.00  -0.00  -0.00
   4   1     0.17  -0.18  -0.23     0.00  -0.01   0.01    -0.00  -0.00  -0.00
   5   1     0.08   0.15  -0.18    -0.00   0.01   0.00    -0.01   0.02   0.01
   6   6     0.25  -0.11   0.01     0.06  -0.15   0.20     0.20   0.11  -0.12
   7   1    -0.58  -0.05   0.16    -0.25   0.53  -0.77     0.04   0.03  -0.01
   8   8     0.00  -0.01  -0.00     0.00  -0.00  -0.00    -0.00  -0.00   0.00
   9   1    -0.35   0.33  -0.34     0.02  -0.02   0.06    -0.76  -0.43   0.41
                     19                     20                     21
                        a                      a                      a 
 Frequencies --  3000.3536              3030.4012              3045.4711
 Red. masses --     1.5101                 1.7190                 1.9330
 Frc consts  --     0.0000                 0.0000                 0.0000
 IR Inten    --    54.7388                51.7481                39.8141
 Raman Activ --     0.0000                 0.0000                 0.0000
 Depolar     --     0.0000                 0.0000                 0.0000
 Atom AN      X      Y      Z        X      Y      Z        X      Y      Z
   1   6    -0.18   0.11   0.04    -0.05   0.24  -0.06    -0.02   0.02   0.29
   2  16    -0.00   0.00  -0.00     0.00   0.00  -0.00     0.00   0.00   0.00
   3   1    -0.03   0.06   0.16    -0.01  -0.05  -0.30     0.00  -0.27  -0.86
   4   1    -0.03   0.16  -0.11     0.00  -0.69   0.57    -0.01   0.26  -0.17
   5   1     0.70  -0.60  -0.19     0.16  -0.11  -0.06     0.07  -0.06   0.02
   6   6     0.00   0.00  -0.00     0.00   0.00  -0.00     0.00  -0.00   0.00
   7   1    -0.00   0.00  -0.01     0.00  -0.01   0.01    -0.00   0.00  -0.00
   8   8     0.00  -0.00   0.00     0.00  -0.00   0.00    -0.00   0.00  -0.00
   9   1    -0.02  -0.01   0.01    -0.01  -0.00   0.00    -0.00   0.00   0.00
