9
 energy: -14.237514842190 gnorm: 0.075891568279 xtb: 6.7.1 (edcfbbe)
C           -4.07147569622633        0.62500281820578        0.09293813088579
S           -2.50869855331120        1.61500497499443        0.36258602042416
H           -4.10514880130866        0.31127557313334       -0.94370128956832
H           -4.04625726289005       -0.22554343411497        0.76236471114076
H           -4.90898344270034        1.27437793557862        0.32232901990621
C           -1.36243784230968        0.40494352046807       -0.08347065643396
H           -1.19800931582771       -0.37264447746726        0.63923888427485
O           -2.49836822195630        2.66896245657730       -0.64877884570040
H           -0.52581886346972        0.71088563262468       -0.68376797492909
9
 energy: -14.245632386699 gnorm: 0.036828443146 xtb: 6.7.1 (edcfbbe)
C           -4.08519815406713        0.63499750975057        0.08695222686263
S           -2.46309829752834        1.59248698362834        0.39037682849245
H           -4.13081372416696        0.31152846081455       -0.94883548461648
H           -4.06711721694108       -0.22586091966022        0.74620419165669
H           -4.93788109933287        1.26966289474634        0.32336254099868
C           -1.39854707648479        0.35469193255710       -0.14713388047267
H           -1.13853010178489       -0.30959492867967        0.68519967766953
O           -2.46847820918006        2.65322817200255       -0.63782813449797
H           -0.53553412051387        0.73112489484042       -0.67855996609285
9
 energy: -14.246448121067 gnorm: 0.039063489286 xtb: 6.7.1 (edcfbbe)
C           -4.11923486507188        0.63769332825279        0.09206412838257
S           -2.43080727444235        1.54677190327128        0.38655521727693
H           -4.15210694818080        0.32752472528660       -0.94761771753364
H           -4.11000122623616       -0.23614415949777        0.74021117647277
H           -4.96211227194589        1.28400172653565        0.33768102113281
C           -1.43738330783485        0.27559147580129       -0.24090806479375
H           -1.06058928916326       -0.24274605084532        0.72077395839176
O           -2.44140742342258        2.63996908670397       -0.63937417008575
H           -0.51155539370223        0.77960296449151       -0.62964754924370
9
 energy: -14.248156504744 gnorm: 0.012230322678 xtb: 6.7.1 (edcfbbe)
C           -4.10606865797332        0.63378162336185        0.09416248222677
S           -2.44544159744381        1.56837504867536        0.38871231563124
H           -4.13224215526551        0.31445276240807       -0.94227659823581
H           -4.10015675988890       -0.23027597277565        0.75253320733423
H           -4.95086134759872        1.28048788456886        0.32458659499908
C           -1.41525416841983        0.30917416745154       -0.19912007959940
H           -1.10174947261609       -0.28019832078936        0.68812942236828
O           -2.45346121632289        2.65018486755555       -0.64410741745820
H           -0.51996262447093        0.76628293954377       -0.64288192726617
9
 energy: -14.248313221024 gnorm: 0.007877085096 xtb: 6.7.1 (edcfbbe)
C           -4.10396049420057        0.63131666247252        0.09573294516521
S           -2.44567620396132        1.56821355769533        0.39133345789648
H           -4.12150305965804        0.31120473892162       -0.94016959302210
H           -4.10274688477836       -0.22975888746600        0.75749585790125
H           -4.94510700854006        1.28387701784887        0.31904156977434
C           -1.42172650520717        0.30058942213707       -0.20725345499318
H           -1.10388730582114       -0.27730402901063        0.68554887714130
O           -2.45453790349396        2.65343617501429       -0.64348974619344
H           -0.52605263433938        0.77069034238692       -0.63850191366987
9
 energy: -14.248417582724 gnorm: 0.005457524279 xtb: 6.7.1 (edcfbbe)
C           -4.10950560599581        0.63026557299625        0.09874532927994
S           -2.44949073600171        1.55613308809180        0.38719472244974
H           -4.12026201045692        0.31074549635277       -0.93636704375712
H           -4.11615650508585       -0.22718706916376        0.76356988929917
H           -4.94239922064023        1.29417750274642        0.31567044140649
C           -1.41561292889009        0.28740285777580       -0.21924892215346
H           -1.09384151004720       -0.27529736144152        0.68009365849842
O           -2.45867519562036        2.65173583026613       -0.64418980811032
H           -0.51925428726182        0.78428908237609       -0.62573026691286
9
 energy: -14.248446384216 gnorm: 0.003197663139 xtb: 6.7.1 (edcfbbe)
C           -4.10485983227383        0.63001904874502        0.09741621028171
S           -2.45158803536573        1.55660191938407        0.39063823071722
H           -4.11661673962420        0.31055709242115       -0.93777120406048
H           -4.11563670015848       -0.22727252498851        0.76218778309661
H           -4.93605526282321        1.29618981262248        0.31294806254420
C           -1.41687578972458        0.28497392939999       -0.21871834284539
H           -1.09249105828348       -0.27197050345572        0.68529791070323
O           -2.46252255782792        2.65228621986578       -0.64065971002859
H           -0.52855202391857        0.78088000600574       -0.63160094040852
9
 energy: -14.248457928123 gnorm: 0.001593979138 xtb: 6.7.1 (edcfbbe)
C           -4.10410250112702        0.63093608063797        0.09665381234670
S           -2.45252500045429        1.55485469371747        0.38979805267578
H           -4.12086515969010        0.30893540763715       -0.93798322269078
H           -4.11632855657135       -0.22581037570396        0.76237736153210
H           -4.93477557356892        1.29788857510470        0.31336250810767
C           -1.41436692857094        0.28479696920087       -0.21857894677577
H           -1.09232311899218       -0.27329963666993        0.68424040863632
O           -2.46403902830933        2.65052562733893       -0.64025962184900
H           -0.52587213271587        0.78343765873679       -0.62987235198303
9
 energy: -14.248460691971 gnorm: 0.000478280012 xtb: 6.7.1 (edcfbbe)
C           -4.10306200205117        0.63205784062735        0.09639601277148
S           -2.45359240239142        1.55276081269104        0.38833800223389
H           -4.12362158740470        0.30803408082208       -0.93803821161174
H           -4.11754954513753       -0.22489621191500        0.76266044645622
H           -4.93391776643064        1.29949196086709        0.31374851078419
C           -1.41284898960941        0.28360373517508       -0.22003684734088
H           -1.09159537542803       -0.27354543283653        0.68401394998920
O           -2.46552541035834        2.64904557791181       -0.63948356753340
H           -0.52348492118874        0.78571263665708       -0.62786029574896
