 Entering Gaussian System
 *********************************************
 Gaussian 98:
 frequency output generated by the xtb code
 *********************************************
                         Standard orientation:
 --------------------------------------------------------------------
  Center     Atomic     Atomic              Coordinates (Angstroms)
  Number     Number      Type              X           Y           Z
 --------------------------------------------------------------------
    1          6             0       -3.800948   -0.621115   -0.748255
    2          6             0       -2.717136    0.193783   -0.794576
    3          6             0       -1.399868   -0.387462   -0.211167
    4          8             0       -2.659252    1.373253   -1.259407
    5          1             0       -3.757199   -1.619308   -0.330448
    6          1             0       -4.761342   -0.304433   -1.130017
    7          1             0       -1.534035   -1.401513    0.166241
    8          1             0       -0.628466   -0.396252   -0.984153
    9          1             0       -1.046197    0.249489    0.602379
 --------------------------------------------------------------------
     1 basis functions        1 primitive gaussians
     1 alpha electrons        1 beta electrons
 
 Harmonic frequencies (cm**-1), IR intensities (km*mol⁻¹),
 Raman scattering activities (A**4/amu), Raman depolarization ratios,
 reduced masses (AMU), force constants (mDyne/A) and normal coordinates:
                      1                      2                      3
                        a                      a                      a 
 Frequencies --    45.2348               420.4404               487.0973
 Red. masses --     1.7337                 8.5346                 7.6444
 Frc consts  --     0.0000                 0.0000                 0.0000
 IR Inten    --     0.3369                 1.3130                29.7636
 Raman Activ --     0.0000                 0.0000                 0.0000
 Depolar     --     0.0000                 0.0000                 0.0000
 Atom AN      X      Y      Z        X      Y      Z        X      Y      Z
   1   6    -0.04   0.06   0.15    -0.39   0.11  -0.15    -0.10   0.15   0.37
   2   6     0.01  -0.01  -0.03    -0.07  -0.29   0.10     0.15  -0.23  -0.56
   3   6    -0.00   0.00   0.00     0.23   0.33  -0.07    -0.01   0.01   0.04
   4   8     0.04  -0.06  -0.15     0.20  -0.32   0.18    -0.04   0.06   0.15
   5   1    -0.02   0.03   0.07    -0.28   0.01  -0.08     0.12  -0.18  -0.45
   6   1    -0.02   0.03   0.07    -0.03   0.21  -0.09    -0.01   0.02   0.04
   7   1     0.13  -0.20  -0.49     0.33   0.08   0.05    -0.03   0.05   0.13
   8   1     0.16   0.52   0.16    -0.01   0.24  -0.09     0.17  -0.06   0.18
   9   1    -0.30  -0.30   0.37    -0.00   0.23  -0.10    -0.22   0.13   0.00
                      4                      5                      6
                        a                      a                      a 
 Frequencies --   490.5217               580.9170               661.0298
 Red. masses --    10.5479                 3.3829                 3.5586
 Frc consts  --     0.0000                 0.0000                 0.0000
 IR Inten    --    12.2394                11.9951                17.3120
 Raman Activ --     0.0000                 0.0000                 0.0000
 Depolar     --     0.0000                 0.0000                 0.0000
 Atom AN      X      Y      Z        X      Y      Z        X      Y      Z
   1   6    -0.04  -0.31   0.12    -0.07   0.11   0.27    -0.03   0.05   0.13
   2   6    -0.28   0.05  -0.09    -0.07   0.11   0.27     0.09  -0.13  -0.33
   3   6    -0.34   0.18  -0.16    -0.00   0.00   0.00     0.01  -0.02  -0.04
   4   8     0.59   0.10   0.11     0.04  -0.06  -0.15    -0.06   0.09   0.21
   5   1     0.23  -0.06   0.08     0.12  -0.18  -0.45    -0.15   0.22   0.55
   6   1    -0.12  -0.32   0.10     0.16  -0.24  -0.59     0.15  -0.23  -0.58
   7   1     0.03   0.05  -0.01     0.03  -0.04  -0.11     0.00  -0.00  -0.01
   8   1    -0.13   0.12  -0.08    -0.15   0.05  -0.15     0.03  -0.01   0.01
   9   1    -0.12   0.12  -0.08     0.19  -0.11   0.01    -0.03   0.01  -0.01
                      7                      8                      9
                        a                      a                      a 
 Frequencies --   820.5169               969.5792               981.7486
 Red. masses --     9.4081                 4.9286                 4.9374
 Frc consts  --     0.0000                 0.0000                 0.0000
 IR Inten    --    30.2780                 4.9261                16.0492
 Raman Activ --     0.0000                 0.0000                 0.0000
 Depolar     --     0.0000                 0.0000                 0.0000
 Atom AN      X      Y      Z        X      Y      Z        X      Y      Z
   1   6    -0.34  -0.04  -0.07    -0.18  -0.30   0.07    -0.00   0.00   0.00
   2   6    -0.34   0.16  -0.15    -0.10   0.00  -0.03     0.10  -0.15  -0.37
   3   6     0.53  -0.26   0.24     0.24   0.35  -0.08    -0.10   0.15   0.38
   4   8     0.02   0.22  -0.09     0.14   0.06   0.01    -0.01   0.02   0.06
   5   1     0.14   0.02   0.03    -0.28  -0.11  -0.03    -0.00   0.00   0.00
   6   1    -0.21  -0.26   0.05     0.01   0.07  -0.03    -0.04   0.07   0.16
   7   1     0.25  -0.08   0.10    -0.53   0.11  -0.18     0.05  -0.07  -0.18
   8   1     0.13  -0.03   0.05     0.21  -0.24   0.13    -0.42   0.11  -0.31
   9   1     0.13  -0.04   0.05     0.20  -0.22   0.17     0.49  -0.21   0.06
                     10                     11                     12
                        a                      a                      a 
 Frequencies --  1038.2998              1277.6349              1351.5668
 Red. masses --     6.4763                10.6266                 3.1429
 Frc consts  --     0.0000                 0.0000                 0.0000
 IR Inten    --     8.3105               163.7396                 2.3266
 Raman Activ --     0.0000                 0.0000                 0.0000
 Depolar     --     0.0000                 0.0000                 0.0000
 Atom AN      X      Y      Z        X      Y      Z        X      Y      Z
   1   6     0.13  -0.40   0.19     0.33   0.11   0.04     0.05   0.02   0.01
   2   6    -0.12   0.08  -0.06    -0.58   0.27  -0.26    -0.04   0.03  -0.02
   3   6    -0.04  -0.20   0.07     0.07   0.01   0.01     0.37  -0.15   0.16
   4   8     0.06   0.37  -0.13     0.03  -0.41   0.18     0.00  -0.02   0.01
   5   1    -0.48  -0.16  -0.06     0.17   0.07   0.01    -0.05  -0.01  -0.01
   6   1     0.23   0.36  -0.09     0.22   0.32  -0.07    -0.01  -0.04   0.01
   7   1     0.27  -0.06   0.10     0.01   0.00   0.00    -0.50   0.02  -0.14
   8   1    -0.07   0.10  -0.04     0.04  -0.06   0.03    -0.34   0.18  -0.34
   9   1    -0.06   0.09  -0.07     0.04  -0.05   0.04    -0.42   0.30  -0.05
                     13                     14                     15
                        a                      a                      a 
 Frequencies --  1455.7987              1498.7877              1513.4971
 Red. masses --     4.1592                 1.6418                 1.7065
 Frc consts  --     0.0000                 0.0000                 0.0000
 IR Inten    --   108.2820                 1.6221                 0.2959
 Raman Activ --     0.0000                 0.0000                 0.0000
 Depolar     --     0.0000                 0.0000                 0.0000
 Atom AN      X      Y      Z        X      Y      Z        X      Y      Z
   1   6    -0.25  -0.15  -0.00    -0.00   0.00   0.00     0.06   0.04  -0.00
   2   6    -0.00  -0.30   0.12    -0.01   0.01   0.03     0.00  -0.01   0.00
   3   6     0.05   0.03   0.00    -0.06   0.09   0.21     0.09   0.22  -0.06
   4   8     0.01   0.24  -0.10     0.00  -0.00  -0.01    -0.00   0.00  -0.00
   5   1     0.62   0.07   0.13     0.00  -0.00  -0.00    -0.10  -0.01  -0.02
   6   1     0.21   0.49  -0.14     0.00  -0.00  -0.00    -0.03  -0.08   0.02
   7   1    -0.04   0.00  -0.01     0.17  -0.27  -0.65     0.31  -0.00   0.08
   8   1    -0.06  -0.07  -0.06     0.08  -0.44   0.10    -0.26  -0.52  -0.26
   9   1    -0.09  -0.02   0.06    -0.04   0.37  -0.26    -0.43  -0.26   0.39
                     16                     17                     18
                        a                      a                      a 
 Frequencies --  1697.8475              2954.0149              2966.9407
 Red. masses --    11.8125                 1.9346                 1.9350
 Frc consts  --     0.0000                 0.0000                 0.0000
 IR Inten    --   457.3153               120.4698                96.6970
 Raman Activ --     0.0000                 0.0000                 0.0000
 Depolar     --     0.0000                 0.0000                 0.0000
 Atom AN      X      Y      Z        X      Y      Z        X      Y      Z
   1   6     0.37   0.30  -0.02     0.00  -0.00  -0.00    -0.01   0.05  -0.02
   2   6    -0.43  -0.64   0.15    -0.00   0.00   0.01    -0.01  -0.01   0.00
   3   6     0.04   0.03  -0.00    -0.07   0.11   0.26    -0.15  -0.24   0.06
   4   8     0.03   0.30  -0.11     0.00  -0.00  -0.00     0.00   0.00  -0.00
   5   1    -0.11   0.05  -0.05    -0.00   0.00   0.00     0.01  -0.16   0.07
   6   1     0.01  -0.15   0.06     0.00  -0.00  -0.00     0.03  -0.00   0.01
   7   1    -0.06   0.00  -0.02    -0.01   0.02   0.04     0.09   0.61  -0.22
   8   1     0.05   0.00   0.04     0.48   0.02  -0.48     0.32  -0.04  -0.36
   9   1     0.06  -0.02  -0.01    -0.23  -0.41  -0.48     0.12   0.26   0.38
                     19                     20                     21
                        a                      a                      a 
 Frequencies --  2973.8357              2997.7496              3039.6198
 Red. masses --     1.2650                 1.7182                 1.7895
 Frc consts  --     0.0000                 0.0000                 0.0000
 IR Inten    --    48.3851               251.0564               188.6634
 Raman Activ --     0.0000                 0.0000                 0.0000
 Depolar     --     0.0000                 0.0000                 0.0000
 Atom AN      X      Y      Z        X      Y      Z        X      Y      Z
   1   6    -0.01  -0.07   0.03     0.00   0.22  -0.09     0.24  -0.08   0.09
   2   6     0.00   0.00  -0.00    -0.02   0.01  -0.01    -0.00  -0.02   0.01
   3   6    -0.09   0.07  -0.05    -0.00   0.07  -0.03    -0.01  -0.01   0.00
   4   8    -0.00   0.00  -0.00     0.00  -0.00   0.00    -0.00   0.00  -0.00
   5   1    -0.02   0.27  -0.12     0.05  -0.83   0.35     0.04   0.01   0.00
   6   1     0.03  -0.02   0.02    -0.02   0.04  -0.02    -0.85   0.29  -0.34
   7   1    -0.12  -0.58   0.21    -0.05  -0.31   0.11    -0.00   0.01  -0.01
   8   1     0.33   0.01  -0.37     0.05   0.01  -0.05     0.02  -0.00  -0.02
   9   1     0.13   0.31   0.36     0.02   0.05   0.05     0.01   0.02   0.03
