      -----------------------------------------------------------      
     |                   =====================                   |     
     |                           x T B                           |     
     |                   =====================                   |     
     |                         S. Grimme                         |     
     |          Mulliken Center for Theoretical Chemistry        |     
     |                    University of Bonn                     |     
      -----------------------------------------------------------      

   * xtb version 6.7.1 (edcfbbe) compiled by 'albert@albert-system' on 2024-07-22

   xtb is free software: you can redistribute it and/or modify it under
   the terms of the GNU Lesser General Public License as published by
   the Free Software Foundation, either version 3 of the License, or
   (at your option) any later version.
   
   xtb is distributed in the hope that it will be useful,
   but WITHOUT ANY WARRANTY; without even the implied warranty of
   MERCHANTABILITY or FITNESS FOR A PARTICULAR PURPOSE.  See the
   GNU Lesser General Public License for more details.
   
   Cite this work as:
   * C. Bannwarth, E. Caldeweyher, S. Ehlert, A. Hansen, P. Pracht,
     J. Seibert, S. Spicher, S. Grimme, WIREs Comput. Mol. Sci., 2020, 11,
     e01493. DOI: 10.1002/wcms.1493
   
   for GFN2-xTB:
   * C. Bannwarth, S. Ehlert and S. Grimme., J. Chem. Theory Comput., 2019,
     15, 1652-1671. DOI: 10.1021/acs.jctc.8b01176
   for GFN1-xTB:
   * S. Grimme, C. Bannwarth, P. Shushkov, J. Chem. Theory Comput., 2017,
     13, 1989-2009. DOI: 10.1021/acs.jctc.7b00118
   for GFN0-xTB:
   * P. Pracht, E. Caldeweyher, S. Ehlert, S. Grimme, ChemRxiv, 2019, preprint.
     DOI: 10.26434/chemrxiv.8326202.v1
   for GFN-FF:
   * S. Spicher and S. Grimme, Angew. Chem. Int. Ed., 2020, 59, 15665-15673.
     DOI: 10.1002/anie.202004239
   
   for ALPB and GBSA implicit solvation:
   * S. Ehlert, M. Stahn, S. Spicher, S. Grimme, J. Chem. Theory Comput.,
     2021, 17, 4250-4261. DOI: 10.1021/acs.jctc.1c00471
   
   for ddCOSMO and CPCM-X implicit solvation:
   * M. Stahn, S. Ehlert, S. Grimme, J. Phys. Chem. A,
     2023, XX, XXXX-XXXX. DOI: 10.1021/acs.jpca.3c04382
   
   for DFT-D4:
   * E. Caldeweyher, C. Bannwarth and S. Grimme, J. Chem. Phys., 2017,
     147, 034112. DOI: 10.1063/1.4993215
   * E. Caldeweyher, S. Ehlert, A. Hansen, H. Neugebauer, S. Spicher,
     C. Bannwarth and S. Grimme, J. Chem. Phys., 2019, 150, 154122.
     DOI: 10.1063/1.5090222
   * E. Caldeweyher, J.-M. Mewes, S. Ehlert and S. Grimme, Phys. Chem. Chem. Phys.
     2020, 22, 8499-8512. DOI: 10.1039/D0CP00502A
   
   for sTDA-xTB:
   * S. Grimme and C. Bannwarth, J. Chem. Phys., 2016, 145, 054103.
     DOI: 10.1063/1.4959605
   
   in the mass-spec context:
   * V. Asgeirsson, C. Bauer and S. Grimme, Chem. Sci., 2017, 8, 4879.
     DOI: 10.1039/c7sc00601b
   * J. Koopman and S. Grimme, ACS Omega 2019, 4, 12, 15120-15133.
     DOI: 10.1021/acsomega.9b02011
   
   for metadynamics refer to:
   * S. Grimme, J. Chem. Theory Comput., 2019, 155, 2847-2862
     DOI: 10.1021/acs.jctc.9b00143
   
   for SPH calculations refer to:
   * S. Spicher and S. Grimme, J. Chem. Theory Comput., 2021, 17, 1701-1714
     DOI: 10.1021/acs.jctc.0c01306
   
   for ONIOM refer to:
   * C. Plett, A. Katbashev, S. Ehlert, S. Grimme, M. Bursch,
     Phys. Chem. Chem. Phys., 2023, 25, 17860-17868. DOI: 10.1039/D3CP02178E
   
   for DIPRO refer to:
   * J. Kohn, N. Gildemeister, S. Grimme, D. Fazzi, A. Hansen,
     J. Chem. Phys., 2023, just accepted.
   
   for PTB refer to:
   * S. Grimme, M. Mueller, A. Hansen, J. Chem. Phys., 2023, 158, 124111.
     DOI: 10.1063/5.0137838
   
   with help from (in alphabetical order)
   P. Atkinson, C. Bannwarth, F. Bohle, G. Brandenburg, E. Caldeweyher
   M. Checinski, S. Dohm, S. Ehlert, S. Ehrlich, I. Gerasimov, C. Hölzer
   A. Katbashev, J. Kohn, J. Koopman, C. Lavigne, S. Lehtola, F. März, M. Müller,
   F. Musil, H. Neugebauer, J. Pisarek, C. Plett, P. Pracht, F. Pultar,
   J. Seibert, P. Shushkov, S. Spicher, M. Stahn, M. Steiner, T. Strunk,
   J. Stückrath, T. Rose, and J. Unsleber
   
 * started run on 2025/10/18 at 01:55:52.605     
   ID    Z sym.   atoms
    1    6 C      1-3
    2    8 O      4
    3    1 H      5-9

           -------------------------------------------------
          |                Calculation Setup                |
           -------------------------------------------------

          program call               : xtb xyz.xyz --charge -1 --ohess
          hostname                   : m003
          coordinate file            : xyz.xyz
          omp threads                :                     2


           -------------------------------------------------
          |                 G F N 2 - x T B                 |
           -------------------------------------------------

        Reference                      10.1021/acs.jctc.8b01176
      * Hamiltonian:
        H0-scaling (s, p, d)           1.850000    2.230000    2.230000
        zeta-weighting                 0.500000
      * Dispersion:
        s8                             2.700000
        a1                             0.520000
        a2                             5.000000
        s9                             5.000000
      * Repulsion:
        kExp                           1.500000    1.000000
        rExp                           1.000000
      * Coulomb:
        alpha                          2.000000
        third order                    shell-resolved
        anisotropic                    true
        a3                             3.000000
        a5                             4.000000
        cn-shift                       1.200000
        cn-exp                         4.000000
        max-rad                        5.000000


          ...................................................
          :                      SETUP                      :
          :.................................................:
          :  # basis functions                  21          :
          :  # atomic orbitals                  21          :
          :  # shells                           13          :
          :  # electrons                        24          :
          :  max. iterations                   250          :
          :  Hamiltonian                  GFN2-xTB          :
          :  restarted?                      false          :
          :  GBSA solvation                  false          :
          :  PC potential                    false          :
          :  electronic temp.          300.0000000     K    :
          :  accuracy                    1.0000000          :
          :  -> integral cutoff          0.2500000E+02      :
          :  -> integral neglect         0.1000000E-07      :
          :  -> SCF convergence          0.1000000E-05 Eh   :
          :  -> wf. convergence          0.1000000E-03 e    :
          :  Broyden damping             0.4000000          :
          :  net charge                         -1          :
          :  unpaired electrons                  0          :
          ...................................................

 iter      E             dE          RMSdq      gap      omega  full diag
   1    -13.2884501 -0.132885E+02  0.462E+00    5.62       0.0  T
   2    -13.3529830 -0.645329E-01  0.193E+00    4.81       1.0  T
   3    -13.3542941 -0.131109E-02  0.110E+00    5.06       1.0  T
   4    -13.3554744 -0.118033E-02  0.557E-01    4.85       1.0  T
   5    -13.3563678 -0.893358E-03  0.119E-01    4.90       1.0  T
   6    -13.3563690 -0.117461E-05  0.591E-02    4.91       1.0  T
   7    -13.3563774 -0.842098E-05  0.907E-03    4.91       3.7  T
   8    -13.3563774 -0.402279E-07  0.562E-03    4.91       5.9  T
   9    -13.3563776 -0.149646E-06  0.182E-03    4.91      18.3  T
  10    -13.3563776 -0.103212E-07  0.229E-04    4.91     145.3  T
  11    -13.3563776  0.222034E-09  0.225E-04    4.91     148.3  T

   *** convergence criteria satisfied after 11 iterations ***

         #    Occupation            Energy/Eh            Energy/eV
      -------------------------------------------------------------
         1        2.0000           -0.4176987             -11.3662
       ...           ...                  ...                  ...
         6        2.0000           -0.2920279              -7.9465
         7        2.0000           -0.2749702              -7.4823
         8        2.0000           -0.2326905              -6.3318
         9        2.0000           -0.2185286              -5.9465
        10        2.0000           -0.2179609              -5.9310
        11        2.0000           -0.1188419              -3.2339
        12        2.0000           -0.0999243              -2.7191 (HOMO)
        13                          0.0806018               2.1933 (LUMO)
        14                          0.3187428               8.6734
        15                          0.3451517               9.3921
        16                          0.3696796              10.0595
        17                          0.3892828              10.5929
       ...                                ...                  ...
        21                          0.9022956              24.5527
      -------------------------------------------------------------
                  HL-Gap            0.1805261 Eh            4.9124 eV
             Fermi-level           -0.0096612 Eh           -0.2629 eV

 SCC (total)                   0 d,  0 h,  0 min,  0.027 sec
 SCC setup                      ...        0 min,  0.000 sec (  1.146%)
 Dispersion                     ...        0 min,  0.000 sec (  0.342%)
 classical contributions        ...        0 min,  0.000 sec (  0.237%)
 integral evaluation            ...        0 min,  0.001 sec (  2.029%)
 iterations                     ...        0 min,  0.025 sec ( 91.572%)
 molecular gradient             ...        0 min,  0.001 sec (  4.009%)
 printout                       ...        0 min,  0.000 sec (  0.506%)

         :::::::::::::::::::::::::::::::::::::::::::::::::::::
         ::                     SUMMARY                     ::
         :::::::::::::::::::::::::::::::::::::::::::::::::::::
         :: total energy             -13.187792508345 Eh    ::
         :: gradient norm              0.044127456494 Eh/a0 ::
         :: HOMO-LUMO gap              4.912365085919 eV    ::
         ::.................................................::
         :: SCC energy               -13.356376575741 Eh    ::
         :: -> isotropic ES            0.178196158952 Eh    ::
         :: -> anisotropic ES          0.013028702856 Eh    ::
         :: -> anisotropic XC          0.002293700013 Eh    ::
         :: -> dispersion             -0.004728642227 Eh    ::
         :: repulsion energy           0.168584067396 Eh    ::
         :: add. restraining           0.000000000000 Eh    ::
         :: total charge              -1.000000000000 e     ::
         :::::::::::::::::::::::::::::::::::::::::::::::::::::

      ----------------------------------------------------------- 
     |                   =====================                   |
     |                        A N C O P T                        |
     |                   =====================                   |
     |               Approximate Normal Coordinate               |
     |                Rational Function Optimizer                |
      ----------------------------------------------------------- 
      ----------------------------------------------------------- 
     |                   =====================                   |
     |                        A N C O P T                        |
     |                   =====================                   |
     |               Approximate Normal Coordinate               |
     |                Rational Function Optimizer                |
      ----------------------------------------------------------- 

          ...................................................
          :                      SETUP                      :
          :.................................................:
          :   optimization level            normal          :
          :   max. optcycles                   200          :
          :   ANC micro-cycles                  20          :
          :   degrees of freedom                21          :
          :.................................................:
          :   RF solver                   davidson          :
          :   write xtbopt.log                true          :
          :   linear?                        false          :
          :   energy convergence         0.5000000E-05 Eh   :
          :   grad. convergence          0.1000000E-02 Eh/α :
          :   maxmium RF displ.          1.0000000          :
          :   Hlow (freq-cutoff)         0.1000000E-01      :
          :   Hmax (freq-cutoff)         5.0000000          :
          :   S6 in model hess.         20.0000000          :
          ...................................................

generating ANC from exact Hessian ...
Using Lindh-Hessian (1995)
 Shifting diagonal of input Hessian by   0.000000000000000E+000
 Lowest  eigenvalues of input Hessian
    0.000000    0.000000    0.000000    0.000000    0.000000    0.000000
    0.011965    0.012352    0.025685    0.046945    0.064341    0.070147
    0.084913    0.107320    0.119446    0.131289    0.178304    0.204553
 Highest eigenvalues
    1.036864    1.076849    1.105861    1.258153    1.706449    2.194964
 

........................................................................
.............................. CYCLE    1 ..............................
........................................................................

 iter      E             dE          RMSdq      gap      omega  full diag
   1    -13.3563776 -0.133564E+02  0.159E-05    4.91       0.0  T
   2    -13.3563776 -0.303757E-12  0.897E-06    4.91    3714.7  T
   3    -13.3563776 -0.710543E-14  0.548E-06    4.91    6088.0  T
     SCC iter.                  ...        0 min,  0.001 sec
     gradient                   ...        0 min,  0.001 sec
 * total energy  :   -13.1877925 Eh     change       -0.2882334E-09 Eh
   gradient norm :     0.0441275 Eh/α   predicted     0.0000000E+00 (-100.00%)
   displ. norm   :     0.1339195 α      lambda       -0.4219620E-02
   maximum displ.:     0.0710029 α      in ANC's #7, #12, #10, ...

........................................................................
.............................. CYCLE    2 ..............................
........................................................................

 iter      E             dE          RMSdq      gap      omega  full diag
   1    -13.3517422 -0.133517E+02  0.280E-01    4.74       0.0  T
   2    -13.3518147 -0.725042E-04  0.181E-01    4.79       1.0  T
   3    -13.3518274 -0.126907E-04  0.103E-01    4.76       1.0  T
   4    -13.3518557 -0.282859E-04  0.156E-02    4.77       2.1  T
   5    -13.3518565 -0.780108E-06  0.451E-03    4.77       7.4  T
   6    -13.3518565 -0.126644E-07  0.232E-03    4.77      14.4  T
   7    -13.3518565 -0.450617E-08  0.674E-04    4.77      49.5  T
   8    -13.3518565 -0.458170E-09  0.690E-05    4.77     483.1  T
     SCC iter.                  ...        0 min,  0.001 sec
     gradient                   ...        0 min,  0.001 sec
 * total energy  :   -13.1901895 Eh     change       -0.2396987E-02 Eh
   gradient norm :     0.0125889 Eh/α   predicted    -0.2147648E-02 ( -10.40%)
   displ. norm   :     0.0542533 α      lambda       -0.3469504E-03
   maximum displ.:     0.0369804 α      in ANC's #3, #5, #13, ...

........................................................................
.............................. CYCLE    3 ..............................
........................................................................

 iter      E             dE          RMSdq      gap      omega  full diag
   1    -13.3513991 -0.133514E+02  0.702E-02    4.74       0.0  T
   2    -13.3514060 -0.688835E-05  0.399E-02    4.75       1.0  T
   3    -13.3514059  0.577922E-07  0.180E-02    4.74       1.8  T
   4    -13.3514061 -0.185045E-06  0.695E-03    4.75       4.8  T
   5    -13.3514064 -0.303885E-06  0.126E-03    4.75      26.4  T
   6    -13.3514064 -0.772172E-09  0.470E-04    4.75      70.9  T
   7    -13.3514064 -0.380902E-09  0.172E-04    4.75     194.1  T
     SCC iter.                  ...        0 min,  0.001 sec
     gradient                   ...        0 min,  0.001 sec
 * total energy  :   -13.1904090 Eh     change       -0.2195234E-03 Eh
   gradient norm :     0.0050727 Eh/α   predicted    -0.1739851E-03 ( -20.74%)
   displ. norm   :     0.0271728 α      lambda       -0.5414456E-04
   maximum displ.:     0.0214722 α      in ANC's #3, #5, #13, ...

........................................................................
.............................. CYCLE    4 ..............................
........................................................................

 iter      E             dE          RMSdq      gap      omega  full diag
   1    -13.3518747 -0.133519E+02  0.315E-02    4.75       0.0  T
   2    -13.3518765 -0.182121E-05  0.180E-02    4.75       1.9  T
   3    -13.3518766 -0.135493E-06  0.104E-02    4.75       3.2  T
   4    -13.3518768 -0.160308E-06  0.358E-03    4.75       9.3  T
   5    -13.3518768 -0.559375E-07  0.619E-04    4.75      53.9  T
   6    -13.3518768 -0.239195E-09  0.913E-05    4.75     365.0  T
     SCC iter.                  ...        0 min,  0.001 sec
     gradient                   ...        0 min,  0.001 sec
 * total energy  :   -13.1904394 Eh     change       -0.3038839E-04 Eh
   gradient norm :     0.0015065 Eh/α   predicted    -0.2709286E-04 ( -10.84%)
   displ. norm   :     0.0065917 α      lambda       -0.2320206E-05
   maximum displ.:     0.0053624 α      in ANC's #3, #5, #8, ...

........................................................................
.............................. CYCLE    5 ..............................
........................................................................

 iter      E             dE          RMSdq      gap      omega  full diag
   1    -13.3521967 -0.133522E+02  0.103E-02    4.76       0.0  T
   2    -13.3521971 -0.365362E-06  0.759E-03    4.76       4.4  T
   3    -13.3521974 -0.276497E-06  0.286E-03    4.76      11.6  T
   4    -13.3521974 -0.134071E-08  0.112E-03    4.76      29.9  T
   5    -13.3521974 -0.185028E-08  0.247E-04    4.76     134.9  T
   6    -13.3521974 -0.542606E-10  0.457E-05    4.76     729.8  T
     SCC iter.                  ...        0 min,  0.001 sec
     gradient                   ...        0 min,  0.001 sec
 * total energy  :   -13.1904407 Eh     change       -0.1331791E-05 Eh
   gradient norm :     0.0003706 Eh/α   predicted    -0.1159019E-05 ( -12.97%)
   displ. norm   :     0.0019642 α      lambda       -0.2258564E-06
   maximum displ.:     0.0015451 α      in ANC's #3, #5, #13, ...

   *** GEOMETRY OPTIMIZATION CONVERGED AFTER 5 ITERATIONS ***

------------------------------------------------------------------------
 total energy gain   :        -0.0026482 Eh       -1.6618 kcal/mol
 total RMSD          :         0.0614756 a0        0.0325 Å
 total power (kW/mol):        -1.3905861 (step) -476.8810 (real)
------------------------------------------------------------------------

 ANCopt (total)                0 d,  0 h,  0 min,  0.015 sec
 optimizer setup                ...        0 min,  0.001 sec (  9.772%)
 model hessian                  ...        0 min,  0.002 sec ( 11.701%)
 ANC generation                 ...        0 min,  0.000 sec (  1.665%)
 coordinate transformation      ...        0 min,  0.000 sec (  0.288%)
 single point calculation       ...        0 min,  0.010 sec ( 70.908%)
 optimization log               ...        0 min,  0.000 sec (  1.678%)
 hessian update                 ...        0 min,  0.000 sec (  0.315%)
 rational function              ...        0 min,  0.000 sec (  1.803%)

================
 final structure:
================
9
 xtb: 6.7.1 (edcfbbe)
C           -3.80094154293122       -0.62113313797543       -0.74826924841655
C           -2.71713438215282        0.19376982764814       -0.79458543672032
C           -1.39986525305966       -0.38746916122312       -0.21117240929297
O           -2.65925481248444        1.37324105709858       -1.25941390996713
H           -3.75718855867891       -1.61932659288107       -0.33046436559182
H           -4.76133558429231       -0.30445601044135       -1.13003369386227
H           -1.53402811095128       -1.40152139731200        0.16623290795627
H           -0.62846038676084       -0.39625345476217       -0.98415626488613
H           -1.04620036868853        0.24948286984842        0.60237542078092
 
 Bond Distances (Angstroems)
 ---------------------------
C1-C2=1.3568         C1-H5=1.0830         C1-H6=1.0809         C2-C1=1.3568         C2-C3=1.5535         C2-O4=1.2691         
C3-C2=1.5535         C3-H7=1.0903         C3-H8=1.0921         C3-H9=1.0921         O4-C2=1.2691         H5-C1=1.0830         
H6-C1=1.0809         H7-C3=1.0903         H8-C3=1.0921         H9-C3=1.0921         
 C  H  Rav=1.0877 sigma=0.0048  Rmin=1.0809  Rmax=1.0921     5
 C  C  Rav=1.4551 sigma=0.0984  Rmin=1.3568  Rmax=1.5535     2
 O  C  Rav=1.2691 sigma=0.0000  Rmin=1.2691  Rmax=1.2691     1
 
 selected bond angles (degree)
 --------------------
H5-C1-C2=122.31                H6-C1-C2=121.45                H6-C1-H5=116.24                C3-C2-C1=116.09                
O4-C2-C1=127.38                O4-C2-C3=116.53                H7-C3-C2=111.94                H8-C3-C2=109.64                
H8-C3-H7=108.93                H9-C3-C2=109.64                H9-C3-H7=108.93                H9-C3-H8=107.65                
 
 selected dihedral angles (degree)
 ---------------------------------
C3-C2-C1-H5=  0.00            C3-C2-C1-H6=180.00            O4-C2-C1-H5=180.00            O4-C2-C1-H6=  0.00            
H7-C3-C2-C1=  0.00            H7-C3-C2-O4=180.00            H8-C3-C2-C1=121.01            H8-C3-C2-O4=301.01            
H9-C3-C2-C1=238.99            H9-C3-C2-O4= 58.99            
           -------------------------------------------------
          |                Final Singlepoint                |
           -------------------------------------------------

          ...................................................
          :                      SETUP                      :
          :.................................................:
          :  # basis functions                  21          :
          :  # atomic orbitals                  21          :
          :  # shells                           13          :
          :  # electrons                        24          :
          :  max. iterations                   250          :
          :  Hamiltonian                  GFN2-xTB          :
          :  restarted?                      false          :
          :  GBSA solvation                  false          :
          :  PC potential                    false          :
          :  electronic temp.          300.0000000     K    :
          :  accuracy                    1.0000000          :
          :  -> integral cutoff          0.2500000E+02      :
          :  -> integral neglect         0.1000000E-07      :
          :  -> SCF convergence          0.1000000E-05 Eh   :
          :  -> wf. convergence          0.1000000E-03 e    :
          :  Broyden damping             0.4000000          :
          :  net charge                         -1          :
          :  unpaired electrons                  0          :
          ...................................................

 iter      E             dE          RMSdq      gap      omega  full diag
   1    -13.3521974 -0.133522E+02  0.159E-05    4.76       0.0  T
   2    -13.3521974 -0.399680E-12  0.100E-05    4.76    3323.9  T
   3    -13.3521974 -0.355271E-13  0.623E-06    4.76    5348.9  T

   *** convergence criteria satisfied after 3 iterations ***

         #    Occupation            Energy/Eh            Energy/eV
      -------------------------------------------------------------
         1        2.0000           -0.4154225             -11.3042
       ...           ...                  ...                  ...
         6        2.0000           -0.2940807              -8.0023
         7        2.0000           -0.2733770              -7.4390
         8        2.0000           -0.2339448              -6.3660
         9        2.0000           -0.2192948              -5.9673
        10        2.0000           -0.2181027              -5.9349
        11        2.0000           -0.1225541              -3.3349
        12        2.0000           -0.0999920              -2.7209 (HOMO)
        13                          0.0749533               2.0396 (LUMO)
        14                          0.3004559               8.1758
        15                          0.3414685               9.2918
        16                          0.3719697              10.1218
        17                          0.3922375              10.6733
       ...                                ...                  ...
        21                          0.8503792              23.1400
      -------------------------------------------------------------
                  HL-Gap            0.1749453 Eh            4.7605 eV
             Fermi-level           -0.0125194 Eh           -0.3407 eV

 SCC (total)                   0 d,  0 h,  0 min,  0.002 sec
 SCC setup                      ...        0 min,  0.000 sec (  4.256%)
 Dispersion                     ...        0 min,  0.000 sec (  1.993%)
 classical contributions        ...        0 min,  0.000 sec (  0.601%)
 integral evaluation            ...        0 min,  0.000 sec ( 18.114%)
 iterations                     ...        0 min,  0.000 sec ( 26.942%)
 molecular gradient             ...        0 min,  0.001 sec ( 42.209%)
 printout                       ...        0 min,  0.000 sec (  4.256%)

         :::::::::::::::::::::::::::::::::::::::::::::::::::::
         ::                     SUMMARY                     ::
         :::::::::::::::::::::::::::::::::::::::::::::::::::::
         :: total energy             -13.190440739657 Eh    ::
         :: gradient norm              0.000370516374 Eh/a0 ::
         :: HOMO-LUMO gap              4.760504856264 eV    ::
         ::.................................................::
         :: SCC energy               -13.352196293777 Eh    ::
         :: -> isotropic ES            0.177343837280 Eh    ::
         :: -> anisotropic ES          0.013614876953 Eh    ::
         :: -> anisotropic XC          0.002734827614 Eh    ::
         :: -> dispersion             -0.004701129107 Eh    ::
         :: repulsion energy           0.161755554120 Eh    ::
         :: add. restraining           0.000000000000 Eh    ::
         :: total charge              -1.000000000000 e     ::
         :::::::::::::::::::::::::::::::::::::::::::::::::::::

           ------------------------------------------------- 
          |                Numerical Hessian                |
           ------------------------------------------------- 
step length          :   0.00500
SCC accuracy         :   0.30000
Hessian scale factor :   1.00000
frozen atoms in %    :   0.00000    0
RMS gradient         :   0.00037
estimated CPU  time      0.00 min
estimated wall time      0.00 min

writing file <hessian>.

 projected vibrational frequencies (cm⁻¹)
eigval :       -0.00     0.00     0.00     0.00     0.00     0.00
eigval :       45.23   420.44   487.10   490.52   580.92   661.03
eigval :      820.52   969.58   981.75  1038.30  1277.63  1351.57
eigval :     1455.80  1498.79  1513.50  1697.85  2954.01  2966.94
eigval :     2973.84  2997.75  3039.62
           -------------------------------------------------
          |                Property Printout                |
           -------------------------------------------------

    * Orbital Energies and Occupations

         #    Occupation            Energy/Eh            Energy/eV
      -------------------------------------------------------------
         1        2.0000           -0.4154225             -11.3042
         2        2.0000           -0.4017378             -10.9318
         3        2.0000           -0.3593671              -9.7789
         4        2.0000           -0.3140605              -8.5460
         5        2.0000           -0.2982946              -8.1170
         6        2.0000           -0.2940807              -8.0023
         7        2.0000           -0.2733770              -7.4390
         8        2.0000           -0.2339449              -6.3660
         9        2.0000           -0.2192948              -5.9673
        10        2.0000           -0.2181027              -5.9349
        11        2.0000           -0.1225541              -3.3349
        12        2.0000           -0.0999921              -2.7209 (HOMO)
        13                          0.0749533               2.0396 (LUMO)
        14                          0.3004559               8.1758
        15                          0.3414685               9.2918
        16                          0.3719697              10.1218
        17                          0.3922375              10.6733
        18                          0.3955315              10.7630
        19                          0.4899021              13.3309
        20                          0.6911299              18.8066
        21                          0.8503792              23.1400
      -------------------------------------------------------------
                  HL-Gap            0.1749454 Eh            4.7605 eV
             Fermi-level           -0.0125194 Eh           -0.3407 eV

     #   Z          covCN         q      C6AA      α(0)
     1   6 C        2.839    -0.220    33.856     9.535
     2   6 C        2.808     0.166    24.410     8.094
     3   6 C        3.752    -0.096    22.399     6.749
     4   8 O        0.857    -0.657    27.570     7.040
     5   1 H        0.925    -0.083     4.995     3.495
     6   1 H        0.926    -0.060     4.333     3.255
     7   1 H        0.924    -0.024     3.517     2.933
     8   1 H        0.924    -0.013     3.295     2.839
     9   1 H        0.924    -0.013     3.295     2.839

 Mol. C6AA /au·bohr⁶  :        929.000111
 Mol. C8AA /au·bohr⁸  :      19788.386445
 Mol. α(0) /au        :         46.779193


Wiberg/Mayer (AO) data.
largest (>0.10) Wiberg bond orders for each atom

 ---------------------------------------------------------------------------
     #   Z sym  total        # sym  WBO       # sym  WBO       # sym  WBO
 ---------------------------------------------------------------------------
     1   6 C    3.835 --     2 C    1.612     6 H    0.977     5 H    0.975
                             4 O    0.241
     2   6 C    3.965 --     1 C    1.612     4 O    1.414     3 C    0.936
     3   6 C    3.974 --     7 H    0.989     8 H    0.985     9 H    0.985
                             2 C    0.936
     4   8 O    1.734 --     2 C    1.414     1 C    0.241
     5   1 H    0.993 --     1 C    0.975
     6   1 H    0.996 --     1 C    0.977
     7   1 H    0.999 --     3 C    0.989
     8   1 H    1.000 --     3 C    0.985
     9   1 H    1.000 --     3 C    0.985
 ---------------------------------------------------------------------------

Topologies differ in total number of bonds
Writing topology from bond orders to xtbtopo.mol

molecular dipole:
                 x           y           z       tot (Debye)
 q only:        5.519      -0.961       1.845
   full:        5.626      -1.266       1.997      15.511
molecular quadrupole (traceless):
                xx          xy          yy          xz          yz          zz
 q only:      -28.544       5.891      13.100     -15.603       5.008      15.444
  q+dip:      -27.851       8.579      12.910     -16.534       5.824      14.941
   full:      -28.230       8.284      12.928     -16.624       5.909      15.302

           -------------------------------------------------
          |                Geometry Summary                 |
           -------------------------------------------------

      molecular mass/u    :       57.0713164
   center of mass at/Å    :       -2.6189557       0.1521844      -0.7517941
  moments of inertia/u·Å² :        0.4789247E+02   0.5345727E+02   0.9821649E+02
rotational constants/cm⁻¹ :        0.3519892E+00   0.3153478E+00   0.1716375E+00

 * 6 selected distances

     #   Z          #   Z                                           value/Å
     1   6 C        2   6 C                                       1.3567794 (max)
     1   6 C        5   1 H                                       1.0829892
     1   6 C        6   1 H                                       1.0809188 (min)
     3   6 C        7   1 H                                       1.0902920
     3   6 C        8   1 H                                       1.0920837
     3   6 C        9   1 H                                       1.0920838

 * 2 distinct bonds (by element types)

   Z      Z             #   av. dist./Å        max./Å        min./Å
   1 H    6 C           5     1.0876735     1.0920838     1.0809188
   6 C    6 C           1     1.3567794     1.3567794     1.3567794

           -------------------------------------------------
          |               Frequency Printout                |
           -------------------------------------------------
 projected vibrational frequencies (cm⁻¹)
eigval :       -0.00     0.00     0.00     0.00     0.00     0.00
eigval :       45.23   420.44   487.10   490.52   580.92   661.03
eigval :      820.52   969.58   981.75  1038.30  1277.63  1351.57
eigval :     1455.80  1498.79  1513.50  1697.85  2954.01  2966.94
eigval :     2973.84  2997.75  3039.62
 reduced masses (amu)
   1: 11.29   2: 10.97   3: 11.46   4: 11.96   5: 11.01   6: 11.64   7:  1.73   8:  8.53
   9:  7.64  10: 10.55  11:  3.38  12:  3.56  13:  9.41  14:  4.93  15:  4.94  16:  6.48
  17: 10.63  18:  3.14  19:  4.16  20:  1.64  21:  1.71  22: 11.81  23:  1.93  24:  1.94
  25:  1.26  26:  1.72  27:  1.79
 IR intensities (km·mol⁻¹)
   1:  4.15   2: 15.13   3: 11.37   4: 15.18   5:  8.10   6: 11.53   7:  0.34   8:  1.31
   9: 29.76  10: 12.24  11: 12.00  12: 17.31  13: 30.28  14:  4.93  15: 16.05  16:  8.31
  17:163.74  18:  2.33  19:108.28  20:  1.62  21:  0.30  22:457.32  23:120.47  24: 96.70
  25: 48.39  26:251.06  27:188.66
 Raman intensities (Ä⁴*amu⁻¹)
   1:  0.00   2:  0.00   3:  0.00   4:  0.00   5:  0.00   6:  0.00   7:  0.00   8:  0.00
   9:  0.00  10:  0.00  11:  0.00  12:  0.00  13:  0.00  14:  0.00  15:  0.00  16:  0.00
  17:  0.00  18:  0.00  19:  0.00  20:  0.00  21:  0.00  22:  0.00  23:  0.00  24:  0.00
  25:  0.00  26:  0.00  27:  0.00
 output can be read by thermo (or use thermo option).
 writing <g98.out> molden fake output.
 recommended (thermochemical) frequency scaling factor: 1.0
           -------------------------------------------------
          |             Thermodynamic Functions             |
           -------------------------------------------------

Refinement of some symmetry elements was terminated before convergence was reached.
Some symmetry elements may remain unidentified.
Molecule has the following symmetry elements: (sigma) 
It seems to be the Cs point group
cs  symmetry found (for desy threshold:  0.10E+00) used in thermo

          ...................................................
          :                      SETUP                      :
          :.................................................:
          :  # frequencies                          21      :
          :  # imaginary freq.                       0      :
          :  linear?                             false      :
          :  only rotor calc.                    false      :
          :  symmetry                               cs      :
          :  rotational number                       1      :
          :  scaling factor                  1.0000000      :
          :  rotor cutoff                   50.0000000 cm⁻¹ :
          :  imag. cutoff                  -20.0000000 cm⁻¹ :
          :.................................................:

    mode    ω/cm⁻¹     T·S(HO)/kcal·mol⁻¹    T·S(FR)/kcal·mol⁻¹   T·S(vib)
   ------------------------------------------------------------------------
       1     45.23    -1.49538 ( 40.12%)    -1.08457 ( 59.88%)    -1.24937
   ------------------------------------------------------------------------

   temp. (K)  partition function   enthalpy   heat capacity  entropy
                                   cal/mol     cal/K/mol   cal/K/mol   J/K/mol
 298.15  VIB   8.36                 1333.120      9.663      7.866
         ROT  0.383E+05              888.752      2.981     23.953
         INT  0.320E+06             2221.872     12.644     31.819
         TR   0.417E+27             1481.254      4.968     38.029
         TOT                        3703.1260    17.6121    69.8484   292.2458

       T/K    H(0)-H(T)+PV         H(T)/Eh          T*S/Eh         G(T)/Eh
   ------------------------------------------------------------------------
    298.15    0.590131E-02    0.747536E-01    0.331872E-01    0.415664E-01
   ------------------------------------------------------------------------

         :::::::::::::::::::::::::::::::::::::::::::::::::::::
         ::                  THERMODYNAMIC                  ::
         :::::::::::::::::::::::::::::::::::::::::::::::::::::
         :: total free energy         -13.148874337817 Eh   ::
         ::.................................................::
         :: total energy              -13.190440739657 Eh   ::
         :: zero point energy           0.068852328887 Eh   ::
         :: G(RRHO) w/o ZPVE           -0.027285927047 Eh   ::
         :: G(RRHO) contrib.            0.041566401840 Eh   ::
         :::::::::::::::::::::::::::::::::::::::::::::::::::::

optimized geometry written to: xtbopt.xyz


           -------------------------------------------------
          | TOTAL ENERGY              -13.190440739657 Eh   |
          | TOTAL ENTHALPY            -13.115687103858 Eh   |
          | TOTAL FREE ENERGY         -13.148874337817 Eh   |
          | GRADIENT NORM               0.000370494426 Eh/α |
          | HOMO-LUMO GAP               4.760505913010 eV   |
           -------------------------------------------------

------------------------------------------------------------------------
 * finished run on 2025/10/18 at 01:55:53.207     
------------------------------------------------------------------------
 total:
 * wall-time:     0 d,  0 h,  0 min,  0.601 sec
 *  cpu-time:     0 d,  0 h,  0 min,  0.529 sec
 * ratio c/w:     0.880 speedup
 SCF:
 * wall-time:     0 d,  0 h,  0 min,  0.028 sec
 *  cpu-time:     0 d,  0 h,  0 min,  0.036 sec
 * ratio c/w:     1.309 speedup
 ANC optimizer:
 * wall-time:     0 d,  0 h,  0 min,  0.106 sec
 *  cpu-time:     0 d,  0 h,  0 min,  0.122 sec
 * ratio c/w:     1.154 speedup
 analytical hessian:
 * wall-time:     0 d,  0 h,  0 min,  0.081 sec
 *  cpu-time:     0 d,  0 h,  0 min,  0.145 sec
 * ratio c/w:     1.790 speedup

