9
 energy: -13.187792508634 gnorm: 0.044127451875 xtb: 6.7.1 (edcfbbe)
C           -3.80527200000000       -0.63389900000000       -0.74421300000000
C           -2.72576500000000        0.16384800000000       -0.78467900000000
C           -1.41794100000000       -0.36039900000000       -0.22695000000000
O           -2.61555600000000        1.33441500000000       -1.23210500000000
H           -3.77103200000000       -1.63201300000000       -0.32894500000000
H           -4.75109700000000       -0.27748100000000       -1.13831800000000
H           -1.51707800000000       -1.38091500000000        0.16230800000000
H           -0.63931100000000       -0.38980700000000       -0.99973500000000
H           -1.06135700000000        0.26258500000000        0.60315000000000
9
 energy: -13.190189496112 gnorm: 0.012589015501 xtb: 6.7.1 (edcfbbe)
C           -3.80487645755497       -0.62622497916461       -0.74723248417715
C           -2.72039001014215        0.18431833202149       -0.79159541866124
C           -1.41112489979707       -0.38501505879151       -0.21513607125391
O           -2.64218842030997        1.36649642310123       -1.25217525283679
H           -3.76643522807162       -1.62366417858366       -0.33113324877114
H           -4.75851319328558       -0.29186810231038       -1.13441453458046
H           -1.50864761000362       -1.40666124788901        0.17500732110628
H           -0.63750327389866       -0.38799492088207       -0.98869511816789
H           -1.05472990693635        0.25694773249852        0.59588780734229
9
 energy: -13.190409019479 gnorm: 0.005072786829 xtb: 6.7.1 (edcfbbe)
C           -3.80334665418305       -0.62312715035554       -0.74809072586448
C           -2.71782269781102        0.19049654160151       -0.79343418712265
C           -1.40340145084464       -0.38768177674818       -0.21201699989817
O           -2.65330610345643        1.37256820290239       -1.25757387938946
H           -3.76179903668177       -1.62045697574225       -0.33121800890783
H           -4.76163073806838       -0.30063268473672       -1.13166785507471
H           -1.52313119669366       -1.40490928631493        0.17048080075976
H           -0.63130783734185       -0.39253228121616       -0.98551892578355
H           -1.04866328491921        0.25260941060988        0.59955278128109
9
 energy: -13.190439407865 gnorm: 0.001506521039 xtb: 6.7.1 (edcfbbe)
C           -3.80165873278147       -0.62144741952719       -0.74832995606526
C           -2.71702526963841        0.19309459590123       -0.79428145054362
C           -1.40022338552120       -0.38778901734932       -0.21113653274470
O           -2.65836665188487        1.37355862282753       -1.25930934718597
H           -3.75817316677656       -1.61926177364999       -0.33074972155234
H           -4.76182804272793       -0.30403349555822       -1.13033590448911
H           -1.53179372345824       -1.40242697437274        0.16718964966400
H           -0.62883909121603       -0.39548811288812       -0.98438484404306
H           -1.04650093599529        0.25012757461682        0.60185110696005
9
 energy: -13.190440739656 gnorm: 0.000370573082 xtb: 6.7.1 (edcfbbe)
C           -3.80094154293122       -0.62113313797543       -0.74826924841655
C           -2.71713438215282        0.19376982764814       -0.79458543672032
C           -1.39986525305966       -0.38746916122312       -0.21117240929297
O           -2.65925481248444        1.37324105709858       -1.25941390996713
H           -3.75718855867891       -1.61932659288107       -0.33046436559182
H           -4.76133558429231       -0.30445601044135       -1.13003369386227
H           -1.53402811095128       -1.40152139731200        0.16623290795627
H           -0.62846038676084       -0.39625345476217       -0.98415626488613
H           -1.04620036868853        0.24948286984842        0.60237542078092
