 Entering Gaussian System
 *********************************************
 Gaussian 98:
 frequency output generated by the xtb code
 *********************************************
                         Standard orientation:
 --------------------------------------------------------------------
  Center     Atomic     Atomic              Coordinates (Angstroms)
  Number     Number      Type              X           Y           Z
 --------------------------------------------------------------------
    1          6             0       -7.139419   -4.419772    1.589739
    2          1             0       -7.874750   -3.593847    1.543507
    3          8             0       -7.622005   -5.585718    1.050916
    4          1             0       -6.221870   -4.064963    1.082576
    5          1             0       -6.900725   -4.618665    2.648977
    6          8             0       -7.942843   -5.352505   -0.337966
 --------------------------------------------------------------------
     1 basis functions        1 primitive gaussians
     1 alpha electrons        1 beta electrons
 
 Harmonic frequencies (cm**-1), IR intensities (km*mol⁻¹),
 Raman scattering activities (A**4/amu), Raman depolarization ratios,
 reduced masses (AMU), force constants (mDyne/A) and normal coordinates:
                      1                      2                      3
                        a                      a                      a 
 Frequencies --   179.9973               381.5619               945.0211
 Red. masses --     4.1269                11.6761                12.2388
 Frc consts  --     0.0000                 0.0000                 0.0000
 IR Inten    --     0.1658                16.4857                16.9026
 Raman Activ --     0.0000                 0.0000                 0.0000
 Depolar     --     0.0000                 0.0000                 0.0000
 Atom AN      X      Y      Z        X      Y      Z        X      Y      Z
   1   6    -0.03   0.01   0.01     0.14   0.08   0.41     0.15   0.20   0.34
   2   1     0.11   0.07  -0.48     0.09   0.08   0.27    -0.03  -0.04  -0.10
   3   8     0.33  -0.09  -0.09     0.06   0.41  -0.22     0.00  -0.32   0.34
   4   1     0.28  -0.18   0.37     0.10   0.08   0.27    -0.05  -0.03  -0.10
   5   1    -0.51   0.15   0.14    -0.04  -0.23   0.08     0.14   0.38   0.12
   6   8    -0.27   0.08   0.07    -0.21  -0.47  -0.29    -0.15   0.07  -0.61
                      4                      5                      6
                        a                      a                      a 
 Frequencies --  1073.6872              1143.9107              1197.7687
 Red. masses --    14.2127                 3.9095                 7.6487
 Frc consts  --     0.0000                 0.0000                 0.0000
 IR Inten    --    32.7285                 3.1404                13.6515
 Raman Activ --     0.0000                 0.0000                 0.0000
 Depolar     --     0.0000                 0.0000                 0.0000
 Atom AN      X      Y      Z        X      Y      Z        X      Y      Z
   1   6     0.20   0.42   0.29     0.40  -0.11  -0.11    -0.05  -0.43   0.27
   2   1     0.01   0.02  -0.05    -0.38  -0.45  -0.15    -0.08  -0.16  -0.29
   3   8    -0.26  -0.36  -0.58    -0.22   0.06   0.06     0.06   0.42  -0.23
   4   1    -0.02   0.03  -0.05     0.02   0.55   0.25    -0.16  -0.14  -0.27
   5   1     0.06   0.16   0.05    -0.17   0.05   0.05     0.16   0.46   0.12
   6   8     0.08  -0.06   0.33     0.01  -0.00  -0.00     0.01  -0.08   0.11
                      7                      8                      9
                        a                      a                      a 
 Frequencies --  1396.4469              1464.2163              1524.5850
 Red. masses --     2.3692                 1.6390                 1.6061
 Frc consts  --     0.0000                 0.0000                 0.0000
 IR Inten    --    46.1333                 7.7088                 5.3135
 Raman Activ --     0.0000                 0.0000                 0.0000
 Depolar     --     0.0000                 0.0000                 0.0000
 Atom AN      X      Y      Z        X      Y      Z        X      Y      Z
   1   6     0.12   0.23   0.19    -0.22   0.06   0.06     0.00  -0.15   0.16
   2   1    -0.26  -0.27  -0.35    -0.04  -0.08  -0.44     0.41   0.36  -0.39
   3   8     0.04   0.09   0.07    -0.03   0.01   0.01    -0.01  -0.06   0.04
   4   1    -0.11  -0.31  -0.39     0.22   0.03   0.39    -0.30   0.56  -0.19
   5   1    -0.18  -0.57  -0.07     0.68  -0.19  -0.19    -0.07  -0.22  -0.03
   6   8    -0.01  -0.00  -0.03     0.01  -0.00  -0.00    -0.00   0.01  -0.02
                     10                     11                     12
                        a                      a                      a 
 Frequencies --  2727.5310              2783.9635              2821.1530
 Red. masses --     1.8654                 1.7616                 1.2492
 Frc consts  --     0.0000                 0.0000                 0.0000
 IR Inten    --   192.4146               187.3898               180.7065
 Raman Activ --     0.0000                 0.0000                 0.0000
 Depolar     --     0.0000                 0.0000                 0.0000
 Atom AN      X      Y      Z        X      Y      Z        X      Y      Z
   1   6     0.26  -0.07  -0.07    -0.01   0.15  -0.21     0.04   0.03   0.13
   2   1    -0.44   0.51  -0.07     0.42  -0.40  -0.02     0.27  -0.27   0.04
   3   8     0.01  -0.00  -0.00     0.01   0.03  -0.00     0.01   0.03   0.02
   4   1    -0.54  -0.23   0.34    -0.51  -0.13   0.24    -0.31  -0.11   0.21
   5   1     0.06  -0.02  -0.02     0.11  -0.09   0.49    -0.17   0.18  -0.79
   6   8    -0.00   0.00   0.00    -0.00  -0.01   0.00     0.00   0.00   0.00
