      -----------------------------------------------------------      
     |                   =====================                   |     
     |                           x T B                           |     
     |                   =====================                   |     
     |                         S. Grimme                         |     
     |          Mulliken Center for Theoretical Chemistry        |     
     |                    University of Bonn                     |     
      -----------------------------------------------------------      

   * xtb version 6.7.1 (edcfbbe) compiled by 'albert@albert-system' on 2024-07-22

   xtb is free software: you can redistribute it and/or modify it under
   the terms of the GNU Lesser General Public License as published by
   the Free Software Foundation, either version 3 of the License, or
   (at your option) any later version.
   
   xtb is distributed in the hope that it will be useful,
   but WITHOUT ANY WARRANTY; without even the implied warranty of
   MERCHANTABILITY or FITNESS FOR A PARTICULAR PURPOSE.  See the
   GNU Lesser General Public License for more details.
   
   Cite this work as:
   * C. Bannwarth, E. Caldeweyher, S. Ehlert, A. Hansen, P. Pracht,
     J. Seibert, S. Spicher, S. Grimme, WIREs Comput. Mol. Sci., 2020, 11,
     e01493. DOI: 10.1002/wcms.1493
   
   for GFN2-xTB:
   * C. Bannwarth, S. Ehlert and S. Grimme., J. Chem. Theory Comput., 2019,
     15, 1652-1671. DOI: 10.1021/acs.jctc.8b01176
   for GFN1-xTB:
   * S. Grimme, C. Bannwarth, P. Shushkov, J. Chem. Theory Comput., 2017,
     13, 1989-2009. DOI: 10.1021/acs.jctc.7b00118
   for GFN0-xTB:
   * P. Pracht, E. Caldeweyher, S. Ehlert, S. Grimme, ChemRxiv, 2019, preprint.
     DOI: 10.26434/chemrxiv.8326202.v1
   for GFN-FF:
   * S. Spicher and S. Grimme, Angew. Chem. Int. Ed., 2020, 59, 15665-15673.
     DOI: 10.1002/anie.202004239
   
   for ALPB and GBSA implicit solvation:
   * S. Ehlert, M. Stahn, S. Spicher, S. Grimme, J. Chem. Theory Comput.,
     2021, 17, 4250-4261. DOI: 10.1021/acs.jctc.1c00471
   
   for ddCOSMO and CPCM-X implicit solvation:
   * M. Stahn, S. Ehlert, S. Grimme, J. Phys. Chem. A,
     2023, XX, XXXX-XXXX. DOI: 10.1021/acs.jpca.3c04382
   
   for DFT-D4:
   * E. Caldeweyher, C. Bannwarth and S. Grimme, J. Chem. Phys., 2017,
     147, 034112. DOI: 10.1063/1.4993215
   * E. Caldeweyher, S. Ehlert, A. Hansen, H. Neugebauer, S. Spicher,
     C. Bannwarth and S. Grimme, J. Chem. Phys., 2019, 150, 154122.
     DOI: 10.1063/1.5090222
   * E. Caldeweyher, J.-M. Mewes, S. Ehlert and S. Grimme, Phys. Chem. Chem. Phys.
     2020, 22, 8499-8512. DOI: 10.1039/D0CP00502A
   
   for sTDA-xTB:
   * S. Grimme and C. Bannwarth, J. Chem. Phys., 2016, 145, 054103.
     DOI: 10.1063/1.4959605
   
   in the mass-spec context:
   * V. Asgeirsson, C. Bauer and S. Grimme, Chem. Sci., 2017, 8, 4879.
     DOI: 10.1039/c7sc00601b
   * J. Koopman and S. Grimme, ACS Omega 2019, 4, 12, 15120-15133.
     DOI: 10.1021/acsomega.9b02011
   
   for metadynamics refer to:
   * S. Grimme, J. Chem. Theory Comput., 2019, 155, 2847-2862
     DOI: 10.1021/acs.jctc.9b00143
   
   for SPH calculations refer to:
   * S. Spicher and S. Grimme, J. Chem. Theory Comput., 2021, 17, 1701-1714
     DOI: 10.1021/acs.jctc.0c01306
   
   for ONIOM refer to:
   * C. Plett, A. Katbashev, S. Ehlert, S. Grimme, M. Bursch,
     Phys. Chem. Chem. Phys., 2023, 25, 17860-17868. DOI: 10.1039/D3CP02178E
   
   for DIPRO refer to:
   * J. Kohn, N. Gildemeister, S. Grimme, D. Fazzi, A. Hansen,
     J. Chem. Phys., 2023, just accepted.
   
   for PTB refer to:
   * S. Grimme, M. Mueller, A. Hansen, J. Chem. Phys., 2023, 158, 124111.
     DOI: 10.1063/5.0137838
   
   with help from (in alphabetical order)
   P. Atkinson, C. Bannwarth, F. Bohle, G. Brandenburg, E. Caldeweyher
   M. Checinski, S. Dohm, S. Ehlert, S. Ehrlich, I. Gerasimov, C. Hölzer
   A. Katbashev, J. Kohn, J. Koopman, C. Lavigne, S. Lehtola, F. März, M. Müller,
   F. Musil, H. Neugebauer, J. Pisarek, C. Plett, P. Pracht, F. Pultar,
   J. Seibert, P. Shushkov, S. Spicher, M. Stahn, M. Steiner, T. Strunk,
   J. Stückrath, T. Rose, and J. Unsleber
   
 * started run on 2025/10/18 at 02:37:31.870     
   ID    Z sym.   atoms
    1    6 C      1
    2    1 H      2, 4, 5
    3    8 O      3, 6

           -------------------------------------------------
          |                Calculation Setup                |
           -------------------------------------------------

          program call               : xtb xyz.xyz --charge -1 --ohess
          hostname                   : m003
          coordinate file            : xyz.xyz
          omp threads                :                     2


           -------------------------------------------------
          |                 G F N 2 - x T B                 |
           -------------------------------------------------

        Reference                      10.1021/acs.jctc.8b01176
      * Hamiltonian:
        H0-scaling (s, p, d)           1.850000    2.230000    2.230000
        zeta-weighting                 0.500000
      * Dispersion:
        s8                             2.700000
        a1                             0.520000
        a2                             5.000000
        s9                             5.000000
      * Repulsion:
        kExp                           1.500000    1.000000
        rExp                           1.000000
      * Coulomb:
        alpha                          2.000000
        third order                    shell-resolved
        anisotropic                    true
        a3                             3.000000
        a5                             4.000000
        cn-shift                       1.200000
        cn-exp                         4.000000
        max-rad                        5.000000


          ...................................................
          :                      SETUP                      :
          :.................................................:
          :  # basis functions                  15          :
          :  # atomic orbitals                  15          :
          :  # shells                            9          :
          :  # electrons                        20          :
          :  max. iterations                   250          :
          :  Hamiltonian                  GFN2-xTB          :
          :  restarted?                      false          :
          :  GBSA solvation                  false          :
          :  PC potential                    false          :
          :  electronic temp.          300.0000000     K    :
          :  accuracy                    1.0000000          :
          :  -> integral cutoff          0.2500000E+02      :
          :  -> integral neglect         0.1000000E-07      :
          :  -> SCF convergence          0.1000000E-05 Eh   :
          :  -> wf. convergence          0.1000000E-03 e    :
          :  Broyden damping             0.4000000          :
          :  net charge                         -1          :
          :  unpaired electrons                  0          :
          ...................................................

 iter      E             dE          RMSdq      gap      omega  full diag
   1    -11.8509440 -0.118509E+02  0.631E+00    7.80       0.0  T
   2    -11.9283948 -0.774508E-01  0.319E+00    7.48       1.0  T
   3    -11.9304706 -0.207574E-02  0.166E+00    7.35       1.0  T
   4    -11.9310092 -0.538608E-03  0.359E-01    7.33       1.0  T
   5    -11.9311110 -0.101856E-03  0.160E-01    7.39       1.0  T
   6    -11.9311475 -0.365021E-04  0.517E-02    7.41       1.0  T
   7    -11.9311529 -0.538931E-05  0.167E-02    7.41       2.4  T
   8    -11.9311538 -0.898544E-06  0.489E-03    7.41       8.3  T
   9    -11.9311539 -0.516387E-07  0.147E-03    7.41      27.8  T
  10    -11.9311539 -0.722680E-08  0.342E-04    7.41     119.3  T
  11    -11.9311539 -0.140409E-09  0.770E-05    7.41     529.9  T

   *** convergence criteria satisfied after 11 iterations ***

         #    Occupation            Energy/Eh            Energy/eV
      -------------------------------------------------------------
         1        2.0000           -0.4490662             -12.2197
       ...           ...                  ...                  ...
         4        2.0000           -0.3238247              -8.8117
         5        2.0000           -0.3156598              -8.5895
         6        2.0000           -0.2986194              -8.1258
         7        2.0000           -0.2271630              -6.1814
         8        2.0000           -0.2097620              -5.7079
         9        2.0000           -0.0864875              -2.3534
        10        2.0000           -0.0692969              -1.8857 (HOMO)
        11                          0.2031200               5.5272 (LUMO)
        12                          0.3099662               8.4346
        13                          0.3231178               8.7925
        14                          0.3858170              10.4986
        15                          0.3918976              10.6641
      -------------------------------------------------------------
                  HL-Gap            0.2724168 Eh            7.4128 eV
             Fermi-level            0.0669115 Eh            1.8208 eV

 SCC (total)                   0 d,  0 h,  0 min,  0.027 sec
 SCC setup                      ...        0 min,  0.000 sec (  0.654%)
 Dispersion                     ...        0 min,  0.000 sec (  0.207%)
 classical contributions        ...        0 min,  0.000 sec (  0.128%)
 integral evaluation            ...        0 min,  0.000 sec (  1.188%)
 iterations                     ...        0 min,  0.025 sec ( 95.453%)
 molecular gradient             ...        0 min,  0.001 sec (  1.914%)
 printout                       ...        0 min,  0.000 sec (  0.339%)

         :::::::::::::::::::::::::::::::::::::::::::::::::::::
         ::                     SUMMARY                     ::
         :::::::::::::::::::::::::::::::::::::::::::::::::::::
         :: total energy             -11.874198956822 Eh    ::
         :: gradient norm              0.050987684649 Eh/a0 ::
         :: HOMO-LUMO gap              7.412839425800 eV    ::
         ::.................................................::
         :: SCC energy               -11.931153818508 Eh    ::
         :: -> isotropic ES            0.232608375376 Eh    ::
         :: -> anisotropic ES         -0.013833324522 Eh    ::
         :: -> anisotropic XC         -0.010703250194 Eh    ::
         :: -> dispersion             -0.002032598533 Eh    ::
         :: repulsion energy           0.056954861686 Eh    ::
         :: add. restraining           0.000000000000 Eh    ::
         :: total charge              -1.000000000000 e     ::
         :::::::::::::::::::::::::::::::::::::::::::::::::::::

      ----------------------------------------------------------- 
     |                   =====================                   |
     |                        A N C O P T                        |
     |                   =====================                   |
     |               Approximate Normal Coordinate               |
     |                Rational Function Optimizer                |
      ----------------------------------------------------------- 
      ----------------------------------------------------------- 
     |                   =====================                   |
     |                        A N C O P T                        |
     |                   =====================                   |
     |               Approximate Normal Coordinate               |
     |                Rational Function Optimizer                |
      ----------------------------------------------------------- 

          ...................................................
          :                      SETUP                      :
          :.................................................:
          :   optimization level            normal          :
          :   max. optcycles                   200          :
          :   ANC micro-cycles                  20          :
          :   degrees of freedom                12          :
          :.................................................:
          :   RF solver                   davidson          :
          :   write xtbopt.log                true          :
          :   linear?                        false          :
          :   energy convergence         0.5000000E-05 Eh   :
          :   grad. convergence          0.1000000E-02 Eh/α :
          :   maxmium RF displ.          1.0000000          :
          :   Hlow (freq-cutoff)         0.1000000E-01      :
          :   Hmax (freq-cutoff)         5.0000000          :
          :   S6 in model hess.         20.0000000          :
          ...................................................

generating ANC from exact Hessian ...
Using Lindh-Hessian (1995)
 Shifting diagonal of input Hessian by   0.000000000000000E+000
 Lowest  eigenvalues of input Hessian
    0.000000    0.000000    0.000000    0.000000    0.000000    0.000000
    0.020423    0.054455    0.102885    0.107674    0.133659    0.134578
    0.193983    0.455825    1.082771    1.109865    1.178396    1.402921
 Highest eigenvalues
    0.193983    0.455825    1.082771    1.109865    1.178396    1.402921
 

........................................................................
.............................. CYCLE    1 ..............................
........................................................................

 iter      E             dE          RMSdq      gap      omega  full diag
   1    -11.9311539 -0.119312E+02  0.494E-06    7.41       0.0  T
   2    -11.9311539 -0.532907E-13  0.170E-06    7.41   23997.1  T
   3    -11.9311539 -0.532907E-14  0.962E-07    7.41   42426.7  T
     SCC iter.                  ...        0 min,  0.000 sec
     gradient                   ...        0 min,  0.000 sec
 * total energy  :   -11.8741990 Eh     change       -0.1799805E-10 Eh
   gradient norm :     0.0509874 Eh/α   predicted     0.0000000E+00 (-100.00%)
   displ. norm   :     0.0991036 α      lambda       -0.2796767E-02
   maximum displ.:     0.0655927 α      in ANC's #2, #7, #12, ...

........................................................................
.............................. CYCLE    2 ..............................
........................................................................

 iter      E             dE          RMSdq      gap      omega  full diag
   1    -11.9320315 -0.119320E+02  0.263E-01    6.84       0.0  T
   2    -11.9320640 -0.325011E-04  0.146E-01    6.86       1.0  T
   3    -11.9320654 -0.139696E-05  0.426E-02    6.86       1.0  T
   4    -11.9320658 -0.381088E-06  0.756E-03    6.86       5.4  T
   5    -11.9320658 -0.327213E-07  0.338E-03    6.86      12.1  T
   6    -11.9320658 -0.776740E-08  0.738E-04    6.86      55.3  T
   7    -11.9320658 -0.935593E-09  0.210E-04    6.86     194.5  T
     SCC iter.                  ...        0 min,  0.001 sec
     gradient                   ...        0 min,  0.000 sec
 * total energy  :   -11.8760855 Eh     change       -0.1886518E-02 Eh
   gradient norm :     0.0248380 Eh/α   predicted    -0.1412118E-02 ( -25.15%)
   displ. norm   :     0.0832901 α      lambda       -0.1020847E-02
   maximum displ.:     0.0736341 α      in ANC's #2, #12, #3, ...

........................................................................
.............................. CYCLE    3 ..............................
........................................................................

 iter      E             dE          RMSdq      gap      omega  full diag
   1    -11.9323085 -0.119323E+02  0.196E-01    6.52       0.0  T
   2    -11.9323368 -0.283068E-04  0.104E-01    6.52       1.0  T
   3    -11.9323375 -0.748448E-06  0.411E-02    6.52       1.0  T
   4    -11.9323377 -0.196145E-06  0.536E-03    6.52       7.6  T
   5    -11.9323377 -0.915942E-08  0.151E-03    6.52      27.0  T
   6    -11.9323377 -0.777812E-09  0.416E-04    6.52      98.2  T
   7    -11.9323377 -0.380922E-10  0.470E-05    6.52     869.1  T
     SCC iter.                  ...        0 min,  0.001 sec
     gradient                   ...        0 min,  0.000 sec
 * total energy  :   -11.8766505 Eh     change       -0.5650476E-03 Eh
   gradient norm :     0.0066823 Eh/α   predicted    -0.5139642E-03 (  -9.04%)
   displ. norm   :     0.0122342 α      lambda       -0.6110435E-04
   maximum displ.:     0.0083434 α      in ANC's #7, #12, #2, ...

........................................................................
.............................. CYCLE    4 ..............................
........................................................................

 iter      E             dE          RMSdq      gap      omega  full diag
   1    -11.9323513 -0.119324E+02  0.458E-02    6.52       0.0  T
   2    -11.9323534 -0.212259E-05  0.225E-02    6.52       1.8  T
   3    -11.9323535 -0.615573E-07  0.101E-02    6.52       4.1  T
   4    -11.9323535 -0.107159E-07  0.141E-03    6.52      29.0  T
   5    -11.9323535 -0.176776E-08  0.564E-04    6.52      72.4  T
   6    -11.9323535 -0.470662E-09  0.258E-04    6.52     158.2  T
     SCC iter.                  ...        0 min,  0.001 sec
     gradient                   ...        0 min,  0.000 sec
 * total energy  :   -11.8766919 Eh     change       -0.4140451E-04 Eh
   gradient norm :     0.0031505 Eh/α   predicted    -0.3055821E-04 ( -26.20%)
   displ. norm   :     0.0087822 α      lambda       -0.1928306E-04
   maximum displ.:     0.0051271 α      in ANC's #7, #2, #9, ...

........................................................................
.............................. CYCLE    5 ..............................
........................................................................

 iter      E             dE          RMSdq      gap      omega  full diag
   1    -11.9322765 -0.119323E+02  0.289E-02    6.56       0.0  T
   2    -11.9322776 -0.103150E-05  0.138E-02    6.56       3.0  T
   3    -11.9322776 -0.403026E-07  0.666E-03    6.56       6.1  T
   4    -11.9322776 -0.652239E-08  0.116E-03    6.56      35.1  T
   5    -11.9322776 -0.133987E-08  0.538E-04    6.56      75.9  T
   6    -11.9322776 -0.473420E-09  0.249E-04    6.56     164.0  T
     SCC iter.                  ...        0 min,  0.001 sec
     gradient                   ...        0 min,  0.000 sec
 * total energy  :   -11.8767023 Eh     change       -0.1036865E-04 Eh
   gradient norm :     0.0005161 Eh/α   predicted    -0.9642515E-05 (  -7.00%)
   displ. norm   :     0.0024940 α      lambda       -0.4575491E-06
   maximum displ.:     0.0022116 α      in ANC's #2, #9, #8, ...

........................................................................
.............................. CYCLE    6 ..............................
........................................................................

 iter      E             dE          RMSdq      gap      omega  full diag
   1    -11.9322180 -0.119322E+02  0.519E-03    6.57       0.0  T
   2    -11.9322181 -0.233660E-07  0.283E-03    6.57      14.4  T
   3    -11.9322181 -0.158757E-08  0.115E-03    6.57      35.6  T
   4    -11.9322181 -0.217998E-09  0.192E-04    6.57     212.5  T
   5    -11.9322181 -0.314841E-10  0.982E-05    6.57     415.7  T
     SCC iter.                  ...        0 min,  0.000 sec
     gradient                   ...        0 min,  0.000 sec
 * total energy  :   -11.8767025 Eh     change       -0.2519868E-06 Eh
   gradient norm :     0.0001395 Eh/α   predicted    -0.2275255E-06 (  -9.71%)
   displ. norm   :     0.0007429 α      lambda       -0.3137743E-07
   maximum displ.:     0.0006895 α      in ANC's #2, #9, #7, ...

   *** GEOMETRY OPTIMIZATION CONVERGED AFTER 6 ITERATIONS ***

------------------------------------------------------------------------
 total energy gain   :        -0.0025036 Eh       -1.5710 kcal/mol
 total RMSD          :         0.0684086 a0        0.0362 Å
 total power (kW/mol):        -1.0955293 (step) -669.9854 (real)
------------------------------------------------------------------------

 ANCopt (total)                0 d,  0 h,  0 min,  0.010 sec
 optimizer setup                ...        0 min,  0.000 sec (  3.227%)
 model hessian                  ...        0 min,  0.001 sec (  8.651%)
 ANC generation                 ...        0 min,  0.000 sec (  0.857%)
 coordinate transformation      ...        0 min,  0.000 sec (  0.420%)
 single point calculation       ...        0 min,  0.008 sec ( 78.495%)
 optimization log               ...        0 min,  0.000 sec (  2.281%)
 hessian update                 ...        0 min,  0.000 sec (  0.510%)
 rational function              ...        0 min,  0.000 sec (  2.490%)

================
 final structure:
================
6
 xtb: 6.7.1 (edcfbbe)
C           -7.13940084569600       -4.41981148957707        1.58970668010687
H           -7.87473549582504       -3.59389051348080        1.54347264495294
O           -7.62197866001485       -5.58575943960763        1.05087934698863
H           -6.22185160998370       -4.06499733843747        1.08254751765637
H           -6.90070930797790       -4.61870485838591        2.64894470935011
O           -7.94281308050251       -5.35254536051111       -0.33800289905492
 
 Bond Distances (Angstroems)
 ---------------------------
C1-H2=1.1068         C1-O3=1.3721         C1-H4=1.1068         C1-H5=1.1039         H2-C1=1.1068         O3-C1=1.3721         
O3-O6=1.4444         H4-C1=1.1068         H5-C1=1.1039         O6-O3=1.4444         
 C  H  Rav=1.1058 sigma=0.0014  Rmin=1.1039  Rmax=1.1068     3
 O  C  Rav=1.3721 sigma=0.0000  Rmin=1.3721  Rmax=1.3721     1
 O  O  Rav=1.4444 sigma=0.0000  Rmin=1.4444  Rmax=1.4444     1
 
 selected bond angles (degree)
 --------------------
O3-C1-H2=112.58                H4-C1-H2=107.00                H4-C1-O3=112.58                H5-C1-H2=108.55                
H5-C1-O3=107.44                H5-C1-H4=108.55                O6-O3-C1=108.57                
 
 selected dihedral angles (degree)
 ---------------------------------
O6-O3-C1-H2= 60.53            O6-O3-C1-H4=299.47            O6-O3-C1-H5=180.00            
           -------------------------------------------------
          |                Final Singlepoint                |
           -------------------------------------------------

          ...................................................
          :                      SETUP                      :
          :.................................................:
          :  # basis functions                  15          :
          :  # atomic orbitals                  15          :
          :  # shells                            9          :
          :  # electrons                        20          :
          :  max. iterations                   250          :
          :  Hamiltonian                  GFN2-xTB          :
          :  restarted?                      false          :
          :  GBSA solvation                  false          :
          :  PC potential                    false          :
          :  electronic temp.          300.0000000     K    :
          :  accuracy                    1.0000000          :
          :  -> integral cutoff          0.2500000E+02      :
          :  -> integral neglect         0.1000000E-07      :
          :  -> SCF convergence          0.1000000E-05 Eh   :
          :  -> wf. convergence          0.1000000E-03 e    :
          :  Broyden damping             0.4000000          :
          :  net charge                         -1          :
          :  unpaired electrons                  0          :
          ...................................................

 iter      E             dE          RMSdq      gap      omega  full diag
   1    -11.9322181 -0.119322E+02  0.475E-05    6.57       0.0  T
   2    -11.9322181 -0.193623E-11  0.347E-05    6.57    1175.5  T
   3    -11.9322181 -0.249933E-11  0.581E-06    6.57    7032.4  T

   *** convergence criteria satisfied after 3 iterations ***

         #    Occupation            Energy/Eh            Energy/eV
      -------------------------------------------------------------
         1        2.0000           -0.4566177             -12.4252
       ...           ...                  ...                  ...
         4        2.0000           -0.3271811              -8.9031
         5        2.0000           -0.3193851              -8.6909
         6        2.0000           -0.3027375              -8.2379
         7        2.0000           -0.2274538              -6.1893
         8        2.0000           -0.2076771              -5.6512
         9        2.0000           -0.0932621              -2.5378
        10        2.0000           -0.0784980              -2.1360 (HOMO)
        11                          0.1628639               4.4318 (LUMO)
        12                          0.3076141               8.3706
        13                          0.3489359               9.4950
        14                          0.3641322               9.9085
        15                          0.4046207              11.0103
      -------------------------------------------------------------
                  HL-Gap            0.2413619 Eh            6.5678 eV
             Fermi-level            0.0421829 Eh            1.1479 eV

 SCC (total)                   0 d,  0 h,  0 min,  0.001 sec
 SCC setup                      ...        0 min,  0.000 sec (  5.646%)
 Dispersion                     ...        0 min,  0.000 sec (  2.022%)
 classical contributions        ...        0 min,  0.000 sec (  0.779%)
 integral evaluation            ...        0 min,  0.000 sec ( 18.201%)
 iterations                     ...        0 min,  0.000 sec ( 29.682%)
 molecular gradient             ...        0 min,  0.000 sec ( 35.770%)
 printout                       ...        0 min,  0.000 sec (  5.309%)

         :::::::::::::::::::::::::::::::::::::::::::::::::::::
         ::                     SUMMARY                     ::
         :::::::::::::::::::::::::::::::::::::::::::::::::::::
         :: total energy             -11.876702547304 Eh    ::
         :: gradient norm              0.000138931798 Eh/a0 ::
         :: HOMO-LUMO gap              6.567791864735 eV    ::
         ::.................................................::
         :: SCC energy               -11.932218020342 Eh    ::
         :: -> isotropic ES            0.227550288930 Eh    ::
         :: -> anisotropic ES         -0.012417521595 Eh    ::
         :: -> anisotropic XC         -0.010079663761 Eh    ::
         :: -> dispersion             -0.002054494981 Eh    ::
         :: repulsion energy           0.055515473038 Eh    ::
         :: add. restraining           0.000000000000 Eh    ::
         :: total charge              -1.000000000000 e     ::
         :::::::::::::::::::::::::::::::::::::::::::::::::::::

           ------------------------------------------------- 
          |                Numerical Hessian                |
           ------------------------------------------------- 
step length          :   0.00500
SCC accuracy         :   0.30000
Hessian scale factor :   1.00000
frozen atoms in %    :   0.00000    0
RMS gradient         :   0.00014
estimated CPU  time      0.00 min
estimated wall time      0.00 min

writing file <hessian>.

 projected vibrational frequencies (cm⁻¹)
eigval :       -0.00    -0.00     0.00     0.00     0.00     0.00
eigval :      180.00   381.56   945.02  1073.69  1143.91  1197.77
eigval :     1396.45  1464.22  1524.59  2727.53  2783.96  2821.15
           -------------------------------------------------
          |                Property Printout                |
           -------------------------------------------------

    * Orbital Energies and Occupations

         #    Occupation            Energy/Eh            Energy/eV
      -------------------------------------------------------------
         1        2.0000           -0.4566176             -12.4252
         2        2.0000           -0.4101534             -11.1608
         3        2.0000           -0.3525488              -9.5933
         4        2.0000           -0.3271811              -8.9031
         5        2.0000           -0.3193851              -8.6909
         6        2.0000           -0.3027375              -8.2379
         7        2.0000           -0.2274538              -6.1893
         8        2.0000           -0.2076771              -5.6512
         9        2.0000           -0.0932621              -2.5378
        10        2.0000           -0.0784980              -2.1360 (HOMO)
        11                          0.1628639               4.4318 (LUMO)
        12                          0.3076141               8.3706
        13                          0.3489359               9.4950
        14                          0.3641322               9.9085
        15                          0.4046207              11.0103
      -------------------------------------------------------------
                  HL-Gap            0.2413619 Eh            6.5678 eV
             Fermi-level            0.0421829 Eh            1.1479 eV

     #   Z          covCN         q      C6AA      α(0)
     1   6 C        3.624     0.120    19.032     6.287
     2   1 H        0.922    -0.023     3.489     2.921
     3   8 O        1.766    -0.338    19.659     5.987
     4   1 H        0.922    -0.023     3.489     2.921
     5   1 H        0.923    -0.041     3.870     3.077
     6   8 O        0.918    -0.695    28.527     7.163

 Mol. C6AA /au·bohr⁶  :        390.984199
 Mol. C8AA /au·bohr⁸  :       7558.869459
 Mol. α(0) /au        :         28.355828


Wiberg/Mayer (AO) data.
largest (>0.10) Wiberg bond orders for each atom

 ---------------------------------------------------------------------------
     #   Z sym  total        # sym  WBO       # sym  WBO       # sym  WBO
 ---------------------------------------------------------------------------
     1   6 C    3.987 --     3 O    1.059     5 H    0.971     2 H    0.970
                             4 H    0.970
     2   1 H    0.999 --     1 C    0.970
     3   8 O    2.012 --     1 C    1.059     6 O    0.900
     4   1 H    0.999 --     1 C    0.970
     5   1 H    0.998 --     1 C    0.971
     6   8 O    0.952 --     3 O    0.900
 ---------------------------------------------------------------------------

Topologies differ in total number of bonds
Writing topology from bond orders to xtbtopo.mol

molecular dipole:
                 x           y           z       tot (Debye)
 q only:       14.829      10.286      -0.186
   full:       14.965      10.486       0.100      46.447
molecular quadrupole (traceless):
                xx          xy          yy          xz          yz          zz
 q only:     -166.216    -228.685       5.038       3.546       3.284     161.178
  q+dip:     -167.616    -235.321       2.837      -2.987      -0.563     164.779
   full:     -168.214    -235.116       2.717      -2.552      -0.501     165.497

           -------------------------------------------------
          |                Geometry Summary                 |
           -------------------------------------------------

      molecular mass/u    :       47.0333680
   center of mass at/Å    :       -7.5678625      -5.1126413       0.7615373
  moments of inertia/u·Å² :        0.1037416E+02   0.4526800E+02   0.5245060E+02
rotational constants/cm⁻¹ :        0.1624964E+01   0.3723962E+00   0.3214002E+00

 * 4 selected distances

     #   Z          #   Z                                           value/Å
     1   6 C        2   1 H                                       1.1067973
     1   6 C        3   8 O                                       1.3720974 (max)
     1   6 C        4   1 H                                       1.1067973
     1   6 C        5   1 H                                       1.1038649 (min)

 * 2 distinct bonds (by element types)

   Z      Z             #   av. dist./Å        max./Å        min./Å
   1 H    6 C           3     1.1058198     1.1067973     1.1038649
   6 C    8 O           1     1.3720974     1.3720974     1.3720974

           -------------------------------------------------
          |               Frequency Printout                |
           -------------------------------------------------
 projected vibrational frequencies (cm⁻¹)
eigval :       -0.00    -0.00     0.00     0.00     0.00     0.00
eigval :      180.00   381.56   945.02  1073.69  1143.91  1197.77
eigval :     1396.45  1464.22  1524.59  2727.53  2783.96  2821.15
 reduced masses (amu)
   1: 14.87   2: 11.36   3: 10.68   4: 14.68   5: 10.44   6: 14.78   7:  4.13   8: 11.68
   9: 12.24  10: 14.21  11:  3.91  12:  7.65  13:  2.37  14:  1.64  15:  1.61  16:  1.87
  17:  1.76  18:  1.25
 IR intensities (km·mol⁻¹)
   1: 35.55   2:  1.88   3:  0.62   4: 36.09   5:  0.62   6: 26.70   7:  0.17   8: 16.49
   9: 16.90  10: 32.73  11:  3.14  12: 13.65  13: 46.13  14:  7.71  15:  5.31  16:192.41
  17:187.39  18:180.71
 Raman intensities (Ä⁴*amu⁻¹)
   1:  0.00   2:  0.00   3:  0.00   4:  0.00   5:  0.00   6:  0.00   7:  0.00   8:  0.00
   9:  0.00  10:  0.00  11:  0.00  12:  0.00  13:  0.00  14:  0.00  15:  0.00  16:  0.00
  17:  0.00  18:  0.00
 output can be read by thermo (or use thermo option).
 writing <g98.out> molden fake output.
 recommended (thermochemical) frequency scaling factor: 1.0
           -------------------------------------------------
          |             Thermodynamic Functions             |
           -------------------------------------------------

Refinement of some symmetry elements was terminated before convergence was reached.
Some symmetry elements may remain unidentified.
Molecule has the following symmetry elements: (sigma) 
It seems to be the Cs point group
cs  symmetry found (for desy threshold:  0.10E+00) used in thermo

          ...................................................
          :                      SETUP                      :
          :.................................................:
          :  # frequencies                          12      :
          :  # imaginary freq.                       0      :
          :  linear?                             false      :
          :  only rotor calc.                    false      :
          :  symmetry                               cs      :
          :  rotational number                       1      :
          :  scaling factor                  1.0000000      :
          :  rotor cutoff                   50.0000000 cm⁻¹ :
          :  imag. cutoff                  -20.0000000 cm⁻¹ :
          :.................................................:

    mode    ω/cm⁻¹     T·S(HO)/kcal·mol⁻¹    T·S(FR)/kcal·mol⁻¹   T·S(vib)
   ------------------------------------------------------------------------
       1    180.00    -0.69422 ( 99.41%)    -0.67632 (  0.59%)    -0.69412
   ------------------------------------------------------------------------

   temp. (K)  partition function   enthalpy   heat capacity  entropy
                                   cal/mol     cal/K/mol   cal/K/mol   J/K/mol
 298.15  VIB   2.10                  658.431      4.829      3.684
         ROT  0.120E+05              888.752      2.981     21.645
         INT  0.252E+05             1547.183      7.810     25.329
         TR   0.312E+27             1481.254      4.968     37.453
         TOT                        3028.4372    12.7780    62.7812   262.6764

       T/K    H(0)-H(T)+PV         H(T)/Eh          T*S/Eh         G(T)/Eh
   ------------------------------------------------------------------------
    298.15    0.482612E-02    0.450126E-01    0.298294E-01    0.151833E-01
   ------------------------------------------------------------------------

         :::::::::::::::::::::::::::::::::::::::::::::::::::::
         ::                  THERMODYNAMIC                  ::
         :::::::::::::::::::::::::::::::::::::::::::::::::::::
         :: total free energy         -11.861519265881 Eh   ::
         ::.................................................::
         :: total energy              -11.876702547304 Eh   ::
         :: zero point energy           0.040186518742 Eh   ::
         :: G(RRHO) w/o ZPVE           -0.025003237319 Eh   ::
         :: G(RRHO) contrib.            0.015183281423 Eh   ::
         :::::::::::::::::::::::::::::::::::::::::::::::::::::

optimized geometry written to: xtbopt.xyz


           -------------------------------------------------
          | TOTAL ENERGY              -11.876702547304 Eh   |
          | TOTAL ENTHALPY            -11.831689906643 Eh   |
          | TOTAL FREE ENERGY         -11.861519265881 Eh   |
          | GRADIENT NORM               0.000138873946 Eh/α |
          | HOMO-LUMO GAP               6.567792446039 eV   |
           -------------------------------------------------

------------------------------------------------------------------------
 * finished run on 2025/10/18 at 02:37:32.069     
------------------------------------------------------------------------
 total:
 * wall-time:     0 d,  0 h,  0 min,  0.198 sec
 *  cpu-time:     0 d,  0 h,  0 min,  0.250 sec
 * ratio c/w:     1.264 speedup
 SCF:
 * wall-time:     0 d,  0 h,  0 min,  0.027 sec
 *  cpu-time:     0 d,  0 h,  0 min,  0.033 sec
 * ratio c/w:     1.225 speedup
 ANC optimizer:
 * wall-time:     0 d,  0 h,  0 min,  0.035 sec
 *  cpu-time:     0 d,  0 h,  0 min,  0.047 sec
 * ratio c/w:     1.347 speedup
 analytical hessian:
 * wall-time:     0 d,  0 h,  0 min,  0.028 sec
 *  cpu-time:     0 d,  0 h,  0 min,  0.054 sec
 * ratio c/w:     1.901 speedup

