6
 energy: -11.874198956840 gnorm: 0.050987385499 xtb: 6.7.1 (edcfbbe)
C           -7.13506500000000       -4.40864900000000        1.59384800000000
H           -7.89242100000000       -3.62065900000000        1.53713900000000
O           -7.63422300000000       -5.61381700000000        1.03564900000000
H           -6.22523200000000       -4.09584300000000        1.07222400000000
H           -6.89296200000000       -4.58743600000000        2.64476700000000
O           -7.92158600000000       -5.30930500000000       -0.30607900000000
6
 energy: -11.876085474514 gnorm: 0.024839017521 xtb: 6.7.1 (edcfbbe)
C           -7.13389214914058       -4.41113783723543        1.60059653698209
H           -7.88176752200841       -3.60957917520551        1.53433295459765
O           -7.62741990980502       -5.59561121709505        1.04143692150975
H           -6.22886337470667       -4.08069174252753        1.07340195194194
H           -6.89445831783558       -4.60499499692804        2.65734774091252
O           -7.93508772650373       -5.33369403100844       -0.32956810594396
6
 energy: -11.876650522138 gnorm: 0.006682351784 xtb: 6.7.1 (edcfbbe)
C           -7.13654075502203       -4.41402433300270        1.59404787315009
H           -7.87459871522183       -3.59460278512179        1.54135290652486
O           -7.62185133232780       -5.58532411062023        1.05089108542871
H           -6.22332117531231       -4.06525169077190        1.08087593150425
H           -6.90112488512821       -4.62215891169202        2.65098459689125
O           -7.94405213698782       -5.35434716879137       -0.34060439349917
6
 energy: -11.876691926651 gnorm: 0.003150829823 xtb: 6.7.1 (edcfbbe)
C           -7.13823803801294       -4.41719522494595        1.59120231839732
H           -7.87410645869254       -3.59325766649299        1.54354389384127
O           -7.62170731133759       -5.58528118847979        1.05136349205061
H           -6.22196247811510       -4.06415356845757        1.08282522777191
H           -6.90137679550923       -4.62090258706257        2.64879736133671
O           -7.94409791833259       -5.35491876456114       -0.34018429339782
6
 energy: -11.876702295300 gnorm: 0.000516186062 xtb: 6.7.1 (edcfbbe)
C           -7.13934083711575       -4.41961094817594        1.58971684301480
H           -7.87449267219797       -3.59362429824320        1.54388910225674
O           -7.62193158151241       -5.58573457160998        1.05102265594318
H           -6.22169645770181       -4.06470613017128        1.08298844860427
H           -6.90088511717598       -4.61886331885504        2.64847628679366
O           -7.94314233429608       -5.35316973294457       -0.33854533661264
6
 energy: -11.876702547287 gnorm: 0.000139525161 xtb: 6.7.1 (edcfbbe)
C           -7.13940084569600       -4.41981148957707        1.58970668010687
H           -7.87473549582504       -3.59389051348080        1.54347264495294
O           -7.62197866001485       -5.58575943960763        1.05087934698863
H           -6.22185160998370       -4.06499733843747        1.08254751765637
H           -6.90070930797790       -4.61870485838591        2.64894470935011
O           -7.94281308050251       -5.35254536051111       -0.33800289905492
