 Entering Gaussian System
 *********************************************
 Gaussian 98:
 frequency output generated by the xtb code
 *********************************************
                         Standard orientation:
 --------------------------------------------------------------------
  Center     Atomic     Atomic              Coordinates (Angstroms)
  Number     Number      Type              X           Y           Z
 --------------------------------------------------------------------
    1          6             0       -5.232292   -6.378927    2.974853
    2          6             0       -5.069452   -5.129099    3.561135
    3          1             0       -5.902793   -7.111461    3.412995
    4          6             0       -4.674757   -8.023374    1.154378
    5          6             0       -4.227151   -4.190535    3.022617
    6          1             0       -5.625723   -4.895705    4.468203
    7          6             0       -3.469644   -4.438574    1.832606
    8          1             0       -4.116622   -3.221336    3.498638
    9          6             0       -3.672410   -5.737938    1.268440
   10          8             0       -2.691089   -3.586264    1.324884
   11          6             0       -4.520016   -6.674270    1.815609
   12          1             0       -5.378771   -8.649539    1.703658
   13          1             0       -5.039812   -7.913317    0.131155
   14          1             0       -3.716101   -8.544228    1.108661
   15          1             0       -3.122529   -5.980553    0.363980
 --------------------------------------------------------------------
     1 basis functions        1 primitive gaussians
     1 alpha electrons        1 beta electrons
 
 Harmonic frequencies (cm**-1), IR intensities (km*mol⁻¹),
 Raman scattering activities (A**4/amu), Raman depolarization ratios,
 reduced masses (AMU), force constants (mDyne/A) and normal coordinates:
                      1                      2                      3
                        a                      a                      a 
 Frequencies --   -44.2991               189.0728               197.6444
 Red. masses --     1.3056                11.5021                 9.2887
 Frc consts  --     0.0000                 0.0000                 0.0000
 IR Inten    --     0.2544                 3.7349                 2.9496
 Raman Activ --     0.0000                 0.0000                 0.0000
 Depolar     --     0.0000                 0.0000                 0.0000
 Atom AN      X      Y      Z        X      Y      Z        X      Y      Z
   1   6     0.03  -0.01   0.02    -0.13   0.06  -0.09    -0.37   0.18  -0.28
   2   6     0.06  -0.03   0.05    -0.01   0.00  -0.01     0.02  -0.01   0.02
   3   1     0.01  -0.01   0.01    -0.12   0.06  -0.09    -0.17   0.08  -0.13
   4   6     0.02  -0.01   0.02    -0.19   0.09  -0.14     0.27  -0.13   0.20
   5   6     0.04  -0.02   0.03     0.14  -0.06   0.10     0.38  -0.18   0.28
   6   1     0.03  -0.01   0.02    -0.03   0.02  -0.02     0.03  -0.02   0.02
   7   6    -0.02   0.01  -0.01     0.10  -0.05   0.07     0.01  -0.01   0.01
   8   1     0.02  -0.01   0.01     0.02  -0.01   0.01     0.23  -0.11   0.17
   9   6    -0.06   0.03  -0.05     0.47  -0.22   0.35    -0.11   0.05  -0.08
  10   8    -0.05   0.02  -0.03    -0.40   0.19  -0.29    -0.13   0.06  -0.10
  11   6    -0.04   0.02  -0.03     0.14  -0.07   0.10    -0.17   0.08  -0.13
  12   1    -0.41   0.19  -0.30    -0.11   0.05  -0.08     0.15  -0.07   0.11
  13   1     0.55   0.01  -0.19    -0.04   0.12  -0.04     0.06  -0.17   0.05
  14   1    -0.09  -0.23   0.53    -0.10  -0.05  -0.07     0.14   0.07   0.10
  15   1    -0.03   0.02  -0.03     0.19  -0.09   0.14    -0.01   0.01  -0.01
                      4                      5                      6
                        a                      a                      a 
 Frequencies --   298.1789               402.5731               458.4085
 Red. masses --    10.0607                 9.2374                11.4660
 Frc consts  --     0.0000                 0.0000                 0.0000
 IR Inten    --     2.1068                 0.0908                 4.4499
 Raman Activ --     0.0000                 0.0000                 0.0000
 Depolar     --     0.0000                 0.0000                 0.0000
 Atom AN      X      Y      Z        X      Y      Z        X      Y      Z
   1   6    -0.14   0.02   0.20    -0.17   0.08  -0.13    -0.17  -0.04   0.21
   2   6    -0.03   0.09   0.09     0.40  -0.19   0.29    -0.01   0.02   0.03
   3   1    -0.05   0.02   0.08    -0.03   0.01  -0.02    -0.05  -0.01   0.06
   4   6     0.36   0.22  -0.35     0.02  -0.01   0.02     0.08   0.20   0.02
   5   6    -0.00   0.07   0.05    -0.30   0.14  -0.22     0.09  -0.32  -0.33
   6   1     0.00   0.05   0.03     0.29  -0.14   0.21     0.04   0.11   0.01
   7   6    -0.04  -0.04   0.03    -0.15   0.07  -0.11     0.14  -0.18  -0.30
   8   1     0.00   0.02   0.01    -0.05   0.02  -0.04     0.08  -0.07  -0.15
   9   6    -0.17  -0.03   0.20     0.21  -0.10   0.15     0.02  -0.20  -0.16
  10   8     0.05  -0.35  -0.30     0.08  -0.04   0.06    -0.05   0.38   0.31
  11   6    -0.15  -0.00   0.20    -0.26   0.12  -0.19    -0.13   0.07   0.22
  12   1     0.13  -0.10  -0.25     0.05  -0.02   0.03     0.04  -0.03  -0.07
  13   1     0.17   0.18  -0.11     0.02  -0.10  -0.01     0.06   0.11  -0.00
  14   1     0.17   0.18  -0.11     0.05   0.07   0.06     0.05   0.11  -0.00
  15   1    -0.06  -0.03   0.06     0.21  -0.10   0.16    -0.06  -0.20  -0.05
                      7                      8                      9
                        a                      a                      a 
 Frequencies --   497.7037               520.4185               540.4898
 Red. masses --    11.7086                11.8924                10.1636
 Frc consts  --     0.0000                 0.0000                 0.0000
 IR Inten    --     3.7703                 1.9448                 0.5723
 Raman Activ --     0.0000                 0.0000                 0.0000
 Depolar     --     0.0000                 0.0000                 0.0000
 Atom AN      X      Y      Z        X      Y      Z        X      Y      Z
   1   6     0.18   0.31  -0.04     0.15   0.19  -0.08     0.26  -0.12   0.19
   2   6     0.14   0.35   0.03    -0.16   0.04   0.25    -0.10   0.05  -0.08
   3   1     0.03   0.14   0.05     0.07  -0.02  -0.10     0.09  -0.04   0.07
   4   6     0.04  -0.28  -0.23     0.06   0.35   0.14    -0.01   0.00  -0.00
   5   6     0.10   0.27   0.03    -0.12  -0.15   0.07     0.04  -0.02   0.03
   6   1     0.03   0.07   0.01    -0.06  -0.02   0.07    -0.11   0.05  -0.08
   7   6    -0.14  -0.22   0.05    -0.15  -0.29   0.02     0.31  -0.15   0.23
   8   1     0.11   0.11  -0.08     0.03  -0.02  -0.05    -0.15   0.07  -0.11
   9   6    -0.03  -0.22  -0.09     0.22  -0.05  -0.33     0.15  -0.07   0.11
  10   8    -0.28  -0.02   0.37    -0.20  -0.39   0.02    -0.13   0.06  -0.09
  11   6    -0.04  -0.22  -0.09     0.19   0.28  -0.08    -0.50   0.24  -0.37
  12   1     0.02  -0.13  -0.11     0.01   0.13   0.07     0.08  -0.04   0.06
  13   1     0.03  -0.04  -0.07     0.00   0.08   0.04     0.03  -0.21  -0.03
  14   1     0.03  -0.04  -0.07     0.00   0.08   0.04     0.09   0.15   0.12
  15   1     0.01  -0.02  -0.03     0.07   0.02  -0.09    -0.05   0.02  -0.04
                     10                     11                     12
                        a                      a                      a 
 Frequencies --   655.4578               743.8518               748.5293
 Red. masses --     9.6154                11.6575                 3.3894
 Frc consts  --     0.0000                 0.0000                 0.0000
 IR Inten    --     8.6523                 1.1598                21.5174
 Raman Activ --     0.0000                 0.0000                 0.0000
 Depolar     --     0.0000                 0.0000                 0.0000
 Atom AN      X      Y      Z        X      Y      Z        X      Y      Z
   1   6     0.24  -0.11   0.17     0.01   0.19   0.11    -0.20   0.10  -0.15
   2   6    -0.27   0.13  -0.20    -0.35   0.12   0.55    -0.14   0.07  -0.11
   3   1     0.09  -0.04   0.07     0.02  -0.00  -0.02     0.59  -0.28   0.43
   4   6    -0.03   0.01  -0.02    -0.03  -0.36  -0.19     0.01  -0.00   0.00
   5   6     0.19  -0.09   0.14    -0.15  -0.18   0.09    -0.07   0.03  -0.05
   6   1     0.06  -0.03   0.04    -0.09   0.04   0.15     0.21  -0.10   0.15
   7   6    -0.46   0.22  -0.34     0.13   0.12  -0.10     0.21  -0.10   0.16
   8   1     0.25  -0.12   0.19    -0.02  -0.03   0.00     0.20  -0.10   0.15
   9   6     0.17  -0.08   0.12     0.11   0.01  -0.14    -0.05   0.02  -0.04
  10   8     0.11  -0.05   0.08     0.24   0.19  -0.20    -0.07   0.03  -0.05
  11   6    -0.15   0.07  -0.11     0.02  -0.03  -0.04     0.02  -0.01   0.02
  12   1    -0.00   0.00  -0.00    -0.01  -0.12  -0.07    -0.02   0.01  -0.02
  13   1     0.00  -0.02  -0.01    -0.00  -0.10  -0.05    -0.01   0.04   0.01
  14   1     0.00   0.02   0.01    -0.01  -0.09  -0.06    -0.02  -0.03  -0.03
  15   1     0.23  -0.11   0.17     0.03  -0.01  -0.04     0.11  -0.05   0.08
                     13                     14                     15
                        a                      a                      a 
 Frequencies --   795.9847               847.9463               904.0660
 Red. masses --     5.4353                 3.0980                 2.9352
 Frc consts  --     0.0000                 0.0000                 0.0000
 IR Inten    --    15.3714                 0.3857                 0.1345
 Raman Activ --     0.0000                 0.0000                 0.0000
 Depolar     --     0.0000                 0.0000                 0.0000
 Atom AN      X      Y      Z        X      Y      Z        X      Y      Z
   1   6    -0.22   0.10  -0.16    -0.03   0.01  -0.02    -0.04   0.02  -0.03
   2   6     0.06  -0.03   0.04     0.10  -0.05   0.07     0.26  -0.12   0.19
   3   1     0.31  -0.15   0.23     0.10  -0.05   0.08     0.15  -0.07   0.11
   4   6    -0.00   0.00  -0.00     0.00  -0.00   0.00    -0.02   0.01  -0.02
   5   6     0.24  -0.11   0.17     0.18  -0.09   0.13    -0.14   0.07  -0.11
   6   1    -0.08   0.04  -0.06    -0.22   0.10  -0.16    -0.57   0.27  -0.42
   7   6    -0.26   0.12  -0.19    -0.01   0.00  -0.01    -0.06   0.03  -0.04
   8   1    -0.37   0.17  -0.27    -0.33   0.15  -0.24     0.34  -0.16   0.25
   9   6     0.22  -0.10   0.16    -0.25   0.12  -0.19     0.06  -0.03   0.05
  10   8     0.08  -0.04   0.06    -0.00   0.00  -0.00     0.01  -0.00   0.00
  11   6     0.00  -0.00   0.00    -0.01   0.01  -0.01    -0.04   0.02  -0.03
  12   1     0.00  -0.00   0.00    -0.01   0.01  -0.01     0.01  -0.00   0.01
  13   1     0.00  -0.02  -0.00    -0.00   0.03   0.01     0.00  -0.04  -0.01
  14   1     0.01   0.01   0.01    -0.01  -0.02  -0.02     0.01   0.03   0.02
  15   1    -0.32   0.15  -0.23     0.54  -0.26   0.40    -0.03   0.01  -0.02
                     16                     17                     18
                        a                      a                      a 
 Frequencies --   945.4244               977.6911              1017.7674
 Red. masses --     8.9401                 9.6879                 5.3107
 Frc consts  --     0.0000                 0.0000                 0.0000
 IR Inten    --     2.9297                16.4584                 0.8784
 Raman Activ --     0.0000                 0.0000                 0.0000
 Depolar     --     0.0000                 0.0000                 0.0000
 Atom AN      X      Y      Z        X      Y      Z        X      Y      Z
   1   6     0.02   0.12   0.04    -0.41  -0.29   0.36     0.04   0.00  -0.06
   2   6     0.00   0.08   0.05     0.06   0.03  -0.07    -0.07   0.02   0.10
   3   1     0.00   0.04   0.02    -0.12  -0.05   0.13    -0.00   0.03   0.02
   4   6     0.09  -0.09  -0.18     0.08  -0.14  -0.20     0.26   0.26  -0.19
   5   6     0.09  -0.39  -0.38     0.05   0.23   0.08    -0.03   0.13   0.12
   6   1     0.09   0.20   0.01     0.09   0.17  -0.01    -0.08  -0.13   0.03
   7   6    -0.06  -0.01   0.07    -0.04   0.02   0.07     0.06  -0.06  -0.11
   8   1     0.10  -0.08  -0.19     0.01   0.06   0.02     0.02   0.05   0.01
   9   6    -0.10   0.34   0.36     0.27   0.04  -0.34    -0.18  -0.23   0.10
  10   8    -0.13  -0.16   0.08    -0.07  -0.10   0.03     0.07   0.12  -0.02
  11   6     0.08   0.08  -0.06     0.08   0.22   0.03    -0.03  -0.16  -0.06
  12   1    -0.02   0.18   0.14    -0.01   0.13   0.10    -0.01   0.49   0.33
  13   1    -0.08  -0.18  -0.03    -0.08  -0.19  -0.04    -0.14  -0.23  -0.01
  14   1    -0.06  -0.18  -0.02    -0.07  -0.20  -0.03    -0.10  -0.25   0.03
  15   1     0.03   0.23   0.10     0.10   0.07  -0.09    -0.15  -0.28   0.02
                     19                     20                     21
                        a                      a                      a 
 Frequencies --  1026.1012              1121.1637              1188.9805
 Red. masses --     4.4424                 4.9003                 2.5384
 Frc consts  --     0.0000                 0.0000                 0.0000
 IR Inten    --     6.2913                 0.9014                18.2761
 Raman Activ --     0.0000                 0.0000                 0.0000
 Depolar     --     0.0000                 0.0000                 0.0000
 Atom AN      X      Y      Z        X      Y      Z        X      Y      Z
   1   6     0.02  -0.01   0.01    -0.09  -0.35  -0.10    -0.06  -0.02   0.07
   2   6     0.02  -0.01   0.02    -0.12   0.08   0.22    -0.04  -0.06   0.02
   3   1    -0.02   0.01  -0.01     0.06  -0.35  -0.31    -0.15   0.37   0.44
   4   6     0.32  -0.15   0.24    -0.04   0.01   0.07     0.01   0.12   0.06
   5   6    -0.01   0.00  -0.00     0.12   0.26   0.01    -0.03  -0.03   0.02
   6   1    -0.03   0.01  -0.02    -0.07  -0.04   0.07    -0.17  -0.36  -0.00
   7   6     0.01  -0.01   0.01     0.02  -0.11  -0.10    -0.00  -0.07  -0.04
   8   1    -0.00   0.00  -0.00     0.42   0.23  -0.42     0.19   0.08  -0.21
   9   6     0.04  -0.02   0.03    -0.04   0.11   0.13     0.06   0.03  -0.07
  10   8    -0.00   0.00  -0.00     0.01   0.03   0.01     0.07   0.08  -0.04
  11   6    -0.26   0.13  -0.19     0.02  -0.03  -0.04    -0.06  -0.25  -0.08
  12   1    -0.17   0.08  -0.12    -0.00  -0.05  -0.03     0.00   0.05   0.03
  13   1    -0.08   0.53   0.17     0.02   0.04   0.01     0.02   0.05   0.01
  14   1    -0.15  -0.42  -0.35     0.01   0.04   0.01     0.01   0.05   0.01
  15   1    -0.05   0.02  -0.03     0.01   0.09   0.04     0.22   0.45  -0.01
                     22                     23                     24
                        a                      a                      a 
 Frequencies --  1191.5809              1246.0393              1297.1075
 Red. masses --     5.8800                 7.6069                 6.5019
 Frc consts  --     0.0000                 0.0000                 0.0000
 IR Inten    --    13.0424                 1.5568                 2.2972
 Raman Activ --     0.0000                 0.0000                 0.0000
 Depolar     --     0.0000                 0.0000                 0.0000
 Atom AN      X      Y      Z        X      Y      Z        X      Y      Z
   1   6     0.05   0.10  -0.00    -0.01   0.04   0.04     0.04  -0.29  -0.24
   2   6     0.04  -0.11  -0.12    -0.07  -0.16  -0.00    -0.01   0.11   0.08
   3   1    -0.01   0.12   0.10    -0.04   0.11   0.12    -0.12   0.27   0.34
   4   6    -0.03  -0.23  -0.11    -0.01   0.05   0.05    -0.05  -0.01   0.06
   5   6    -0.02   0.01   0.03     0.04  -0.09  -0.12    -0.18  -0.02   0.23
   6   1    -0.21  -0.51  -0.04     0.06   0.12  -0.00     0.16   0.38   0.03
   7   6     0.04  -0.06  -0.09    -0.16   0.42   0.48     0.08  -0.16  -0.21
   8   1     0.14   0.06  -0.15     0.29   0.09  -0.33     0.02   0.03  -0.02
   9   6     0.06   0.24   0.07     0.01  -0.18  -0.13     0.10   0.34   0.09
  10   8    -0.07  -0.09   0.03     0.04  -0.02  -0.06    -0.03  -0.04   0.02
  11   6     0.03   0.43   0.23     0.10  -0.06  -0.18     0.07  -0.08  -0.15
  12   1    -0.00  -0.08  -0.05     0.00  -0.02  -0.02    -0.00  -0.02  -0.01
  13   1    -0.01  -0.07  -0.03     0.02   0.05   0.01     0.04   0.07   0.01
  14   1    -0.02  -0.07  -0.03     0.02   0.05   0.00     0.03   0.08  -0.00
  15   1    -0.18  -0.36   0.02    -0.14  -0.36  -0.04    -0.15  -0.30   0.01
                     25                     26                     27
                        a                      a                      a 
 Frequencies --  1392.9037              1395.2704              1471.4253
 Red. masses --     8.6246                 3.5019                10.5577
 Frc consts  --     0.0000                 0.0000                 0.0000
 IR Inten    --    63.6873                 6.1467                65.3860
 Raman Activ --     0.0000                 0.0000                 0.0000
 Depolar     --     0.0000                 0.0000                 0.0000
 Atom AN      X      Y      Z        X      Y      Z        X      Y      Z
   1   6    -0.14  -0.13   0.11    -0.02  -0.02   0.01     0.02  -0.11  -0.09
   2   6    -0.10   0.16   0.23    -0.02   0.03   0.05     0.22   0.40  -0.03
   3   1    -0.06  -0.01   0.07    -0.01   0.02   0.04     0.03  -0.13  -0.13
   4   6    -0.05  -0.02   0.05     0.02   0.39   0.22     0.07   0.09  -0.05
   5   6     0.32   0.14  -0.35     0.05   0.02  -0.05    -0.13  -0.24   0.02
   6   1    -0.18  -0.29   0.06    -0.03  -0.04   0.01    -0.07  -0.17  -0.02
   7   6     0.11   0.16  -0.04     0.03   0.02  -0.02    -0.00   0.20   0.14
   8   1    -0.22  -0.08   0.25    -0.04  -0.01   0.04     0.01  -0.05  -0.04
   9   6     0.03   0.11   0.04     0.01   0.04   0.02     0.27   0.26  -0.20
  10   8    -0.17  -0.18   0.12    -0.03  -0.03   0.02    -0.04  -0.09  -0.00
  11   6     0.16  -0.15  -0.32     0.03  -0.06  -0.08    -0.34  -0.35   0.23
  12   1    -0.01   0.05   0.05     0.07  -0.37  -0.34     0.01   0.02   0.00
  13   1     0.05   0.15   0.01     0.06  -0.49  -0.07    -0.15   0.01   0.05
  14   1     0.06   0.14   0.02    -0.22  -0.36  -0.28    -0.02  -0.05   0.14
  15   1    -0.08  -0.17  -0.00    -0.02  -0.04   0.00    -0.01  -0.11  -0.06
                     28                     29                     30
                        a                      a                      a 
 Frequencies --  1502.7261              1509.8790              1542.4380
 Red. masses --     1.5955                 2.4936                10.5602
 Frc consts  --     0.0000                 0.0000                 0.0000
 IR Inten    --     0.0197                 1.6466                22.3289
 Raman Activ --     0.0000                 0.0000                 0.0000
 Depolar     --     0.0000                 0.0000                 0.0000
 Atom AN      X      Y      Z        X      Y      Z        X      Y      Z
   1   6     0.00  -0.00   0.00    -0.05   0.05   0.10    -0.17   0.37   0.47
   2   6    -0.00   0.00  -0.00     0.11   0.11  -0.08     0.07  -0.16  -0.20
   3   1    -0.00   0.00  -0.00     0.02  -0.09  -0.09     0.04  -0.15  -0.16
   4   6     0.17  -0.08   0.13    -0.14  -0.07   0.14     0.02   0.07   0.02
   5   6     0.00  -0.00  -0.00    -0.10  -0.10   0.08    -0.16  -0.03   0.19
   6   1     0.00  -0.00   0.00    -0.01  -0.06  -0.02     0.03  -0.02  -0.05
   7   6     0.00   0.00  -0.00    -0.03  -0.03   0.02     0.03  -0.15  -0.15
   8   1    -0.00   0.00  -0.00     0.02  -0.01  -0.04     0.06   0.03  -0.07
   9   6    -0.00   0.00  -0.00     0.05   0.07  -0.02     0.07   0.25   0.06
  10   8    -0.00  -0.00   0.00     0.03   0.02  -0.03     0.01   0.01  -0.00
  11   6     0.02  -0.01   0.02    -0.03  -0.09  -0.01     0.13  -0.28  -0.36
  12   1    -0.54   0.26  -0.40    -0.06   0.26   0.24     0.01  -0.06  -0.06
  13   1    -0.33  -0.31   0.09     0.55  -0.09  -0.20    -0.12   0.07   0.05
  14   1     0.20   0.37  -0.18     0.05   0.15  -0.58     0.01   0.01   0.14
  15   1     0.00  -0.00   0.00    -0.01  -0.04  -0.01    -0.06  -0.13   0.00
                     31                     32                     33
                        a                      a                      a 
 Frequencies --  1554.7061              1626.5378              2946.2808
 Red. masses --    11.9428                11.8122                 1.7562
 Frc consts  --     0.0000                 0.0000                 0.0000
 IR Inten    --   174.0466               591.2009               141.5556
 Raman Activ --     0.0000                 0.0000                 0.0000
 Depolar     --     0.0000                 0.0000                 0.0000
 Atom AN      X      Y      Z        X      Y      Z        X      Y      Z
   1   6    -0.11  -0.18   0.03    -0.08  -0.10   0.04    -0.03  -0.03   0.02
   2   6     0.20   0.40  -0.01     0.20   0.31  -0.07     0.13  -0.06  -0.21
   3   1    -0.03  -0.03   0.03    -0.02  -0.02   0.01     0.13   0.14  -0.08
   4   6    -0.01  -0.01   0.01    -0.01  -0.01   0.01     0.00  -0.00  -0.01
   5   6    -0.06  -0.16  -0.02    -0.27  -0.22   0.23     0.01   0.03   0.01
   6   1    -0.07  -0.16  -0.01    -0.02  -0.07  -0.02    -0.47   0.20   0.77
   7   6    -0.36  -0.36   0.26     0.33   0.37  -0.21    -0.00   0.00   0.00
   8   1    -0.07  -0.08   0.05     0.07   0.01  -0.09    -0.02  -0.14  -0.07
   9   6    -0.10  -0.08   0.08    -0.22  -0.34   0.08     0.00   0.00  -0.00
  10   8     0.26   0.28  -0.17    -0.16  -0.17   0.10     0.00   0.00  -0.00
  11   6     0.23   0.17  -0.20     0.22   0.19  -0.17    -0.00  -0.00   0.00
  12   1     0.01  -0.07  -0.06     0.01  -0.04  -0.03    -0.01  -0.00   0.00
  13   1    -0.06   0.03   0.03    -0.02   0.02   0.01     0.01  -0.00   0.02
  14   1    -0.00   0.00   0.07     0.00   0.01   0.03    -0.02   0.01  -0.00
  15   1    -0.05  -0.06   0.03     0.04   0.12   0.02    -0.00   0.00   0.00
                     34                     35                     36
                        a                      a                      a 
 Frequencies --  2959.7951              2973.8308              2988.4135
 Red. masses --     1.9295                 1.7686                 1.5121
 Frc consts  --     0.0000                 0.0000                 0.0000
 IR Inten    --    80.2783                38.0342                34.2694
 Raman Activ --     0.0000                 0.0000                 0.0000
 Depolar     --     0.0000                 0.0000                 0.0000
 Atom AN      X      Y      Z        X      Y      Z        X      Y      Z
   1   6     0.00  -0.00   0.00    -0.02  -0.02   0.01     0.09   0.10  -0.06
   2   6    -0.00   0.00  -0.00    -0.01   0.00   0.01     0.02  -0.01  -0.03
   3   1     0.00  -0.00   0.00     0.06   0.06  -0.04    -0.33  -0.36   0.22
   4   6     0.22  -0.10   0.16     0.15   0.01  -0.21    -0.08  -0.12   0.02
   5   6    -0.00  -0.00  -0.00    -0.00  -0.00  -0.00     0.00   0.02   0.01
   6   1    -0.00   0.00  -0.00     0.02  -0.01  -0.04    -0.05   0.02   0.08
   7   6     0.00   0.00  -0.00    -0.00  -0.00   0.00     0.00   0.00  -0.00
   8   1     0.00   0.00   0.00     0.00   0.02   0.01    -0.01  -0.08  -0.04
   9   6    -0.00   0.00  -0.00    -0.02   0.01   0.03     0.01  -0.00  -0.01
  10   8    -0.00   0.00  -0.00     0.00   0.00   0.00    -0.00  -0.00   0.00
  11   6     0.00  -0.00   0.00     0.00  -0.00  -0.01    -0.00  -0.00   0.00
  12   1     0.04  -0.02   0.03    -0.25  -0.23   0.19     0.45   0.38  -0.37
  13   1    -0.20   0.07  -0.64     0.24  -0.08   0.56     0.08  -0.05   0.27
  14   1    -0.60   0.31   0.05    -0.54   0.29  -0.02    -0.27   0.11   0.01
  15   1     0.00  -0.00   0.00     0.07  -0.03  -0.12    -0.03   0.01   0.05
                     37                     38                     39
                        a                      a                      a 
 Frequencies --  2996.6061              3005.2242              3015.4744
 Red. masses --     1.7105                 1.8106                 1.8258
 Frc consts  --     0.0000                 0.0000                 0.0000
 IR Inten    --   302.1631               226.3531                40.2112
 Raman Activ --     0.0000                 0.0000                 0.0000
 Depolar     --     0.0000                 0.0000                 0.0000
 Atom AN      X      Y      Z        X      Y      Z        X      Y      Z
   1   6    -0.12  -0.13   0.08     0.01   0.00  -0.01    -0.06  -0.06   0.04
   2   6    -0.02   0.00   0.03    -0.01   0.01   0.02    -0.03   0.01   0.06
   3   1     0.43   0.47  -0.29    -0.02  -0.02   0.02     0.19   0.21  -0.13
   4   6    -0.08  -0.08   0.05    -0.02  -0.00   0.02    -0.00  -0.02  -0.00
   5   6    -0.01  -0.07  -0.04     0.02   0.12   0.06     0.02   0.19   0.09
   6   1     0.05  -0.02  -0.08     0.03  -0.01  -0.05     0.10  -0.04  -0.16
   7   6    -0.00  -0.00   0.00    -0.00   0.00   0.01     0.01   0.01  -0.01
   8   1     0.03   0.26   0.13    -0.05  -0.43  -0.21    -0.08  -0.68  -0.33
   9   6    -0.02   0.01   0.04    -0.12   0.05   0.19     0.06  -0.03  -0.10
  10   8     0.00   0.00  -0.00     0.00  -0.00  -0.00    -0.00  -0.00   0.00
  11   6    -0.01  -0.01   0.00    -0.00   0.01   0.01    -0.00  -0.01  -0.01
  12   1     0.35   0.30  -0.28     0.03   0.03  -0.02     0.05   0.05  -0.04
  13   1     0.02  -0.02   0.10    -0.03   0.01  -0.07     0.02  -0.01   0.06
  14   1    -0.10   0.03   0.01     0.06  -0.04   0.00    -0.06   0.03   0.00
  15   1     0.09  -0.04  -0.14     0.42  -0.18  -0.68    -0.23   0.10   0.37
