      -----------------------------------------------------------      
     |                   =====================                   |     
     |                           x T B                           |     
     |                   =====================                   |     
     |                         S. Grimme                         |     
     |          Mulliken Center for Theoretical Chemistry        |     
     |                    University of Bonn                     |     
      -----------------------------------------------------------      

   * xtb version 6.7.1 (edcfbbe) compiled by 'albert@albert-system' on 2024-07-22

   xtb is free software: you can redistribute it and/or modify it under
   the terms of the GNU Lesser General Public License as published by
   the Free Software Foundation, either version 3 of the License, or
   (at your option) any later version.
   
   xtb is distributed in the hope that it will be useful,
   but WITHOUT ANY WARRANTY; without even the implied warranty of
   MERCHANTABILITY or FITNESS FOR A PARTICULAR PURPOSE.  See the
   GNU Lesser General Public License for more details.
   
   Cite this work as:
   * C. Bannwarth, E. Caldeweyher, S. Ehlert, A. Hansen, P. Pracht,
     J. Seibert, S. Spicher, S. Grimme, WIREs Comput. Mol. Sci., 2020, 11,
     e01493. DOI: 10.1002/wcms.1493
   
   for GFN2-xTB:
   * C. Bannwarth, S. Ehlert and S. Grimme., J. Chem. Theory Comput., 2019,
     15, 1652-1671. DOI: 10.1021/acs.jctc.8b01176
   for GFN1-xTB:
   * S. Grimme, C. Bannwarth, P. Shushkov, J. Chem. Theory Comput., 2017,
     13, 1989-2009. DOI: 10.1021/acs.jctc.7b00118
   for GFN0-xTB:
   * P. Pracht, E. Caldeweyher, S. Ehlert, S. Grimme, ChemRxiv, 2019, preprint.
     DOI: 10.26434/chemrxiv.8326202.v1
   for GFN-FF:
   * S. Spicher and S. Grimme, Angew. Chem. Int. Ed., 2020, 59, 15665-15673.
     DOI: 10.1002/anie.202004239
   
   for ALPB and GBSA implicit solvation:
   * S. Ehlert, M. Stahn, S. Spicher, S. Grimme, J. Chem. Theory Comput.,
     2021, 17, 4250-4261. DOI: 10.1021/acs.jctc.1c00471
   
   for ddCOSMO and CPCM-X implicit solvation:
   * M. Stahn, S. Ehlert, S. Grimme, J. Phys. Chem. A,
     2023, XX, XXXX-XXXX. DOI: 10.1021/acs.jpca.3c04382
   
   for DFT-D4:
   * E. Caldeweyher, C. Bannwarth and S. Grimme, J. Chem. Phys., 2017,
     147, 034112. DOI: 10.1063/1.4993215
   * E. Caldeweyher, S. Ehlert, A. Hansen, H. Neugebauer, S. Spicher,
     C. Bannwarth and S. Grimme, J. Chem. Phys., 2019, 150, 154122.
     DOI: 10.1063/1.5090222
   * E. Caldeweyher, J.-M. Mewes, S. Ehlert and S. Grimme, Phys. Chem. Chem. Phys.
     2020, 22, 8499-8512. DOI: 10.1039/D0CP00502A
   
   for sTDA-xTB:
   * S. Grimme and C. Bannwarth, J. Chem. Phys., 2016, 145, 054103.
     DOI: 10.1063/1.4959605
   
   in the mass-spec context:
   * V. Asgeirsson, C. Bauer and S. Grimme, Chem. Sci., 2017, 8, 4879.
     DOI: 10.1039/c7sc00601b
   * J. Koopman and S. Grimme, ACS Omega 2019, 4, 12, 15120-15133.
     DOI: 10.1021/acsomega.9b02011
   
   for metadynamics refer to:
   * S. Grimme, J. Chem. Theory Comput., 2019, 155, 2847-2862
     DOI: 10.1021/acs.jctc.9b00143
   
   for SPH calculations refer to:
   * S. Spicher and S. Grimme, J. Chem. Theory Comput., 2021, 17, 1701-1714
     DOI: 10.1021/acs.jctc.0c01306
   
   for ONIOM refer to:
   * C. Plett, A. Katbashev, S. Ehlert, S. Grimme, M. Bursch,
     Phys. Chem. Chem. Phys., 2023, 25, 17860-17868. DOI: 10.1039/D3CP02178E
   
   for DIPRO refer to:
   * J. Kohn, N. Gildemeister, S. Grimme, D. Fazzi, A. Hansen,
     J. Chem. Phys., 2023, just accepted.
   
   for PTB refer to:
   * S. Grimme, M. Mueller, A. Hansen, J. Chem. Phys., 2023, 158, 124111.
     DOI: 10.1063/5.0137838
   
   with help from (in alphabetical order)
   P. Atkinson, C. Bannwarth, F. Bohle, G. Brandenburg, E. Caldeweyher
   M. Checinski, S. Dohm, S. Ehlert, S. Ehrlich, I. Gerasimov, C. Hölzer
   A. Katbashev, J. Kohn, J. Koopman, C. Lavigne, S. Lehtola, F. März, M. Müller,
   F. Musil, H. Neugebauer, J. Pisarek, C. Plett, P. Pracht, F. Pultar,
   J. Seibert, P. Shushkov, S. Spicher, M. Stahn, M. Steiner, T. Strunk,
   J. Stückrath, T. Rose, and J. Unsleber
   
 * started run on 2025/10/18 at 02:45:59.688     
   ID    Z sym.   atoms
    1    6 C      1, 2, 4, 5, 7, 9, 11
    2    1 H      3, 6, 8, 12-15
    3    8 O      10

           -------------------------------------------------
          |                Calculation Setup                |
           -------------------------------------------------

          program call               : xtb xyz.xyz --charge -1 --ohess
          hostname                   : m003
          coordinate file            : xyz.xyz
          omp threads                :                     2


           -------------------------------------------------
          |                 G F N 2 - x T B                 |
           -------------------------------------------------

        Reference                      10.1021/acs.jctc.8b01176
      * Hamiltonian:
        H0-scaling (s, p, d)           1.850000    2.230000    2.230000
        zeta-weighting                 0.500000
      * Dispersion:
        s8                             2.700000
        a1                             0.520000
        a2                             5.000000
        s9                             5.000000
      * Repulsion:
        kExp                           1.500000    1.000000
        rExp                           1.000000
      * Coulomb:
        alpha                          2.000000
        third order                    shell-resolved
        anisotropic                    true
        a3                             3.000000
        a5                             4.000000
        cn-shift                       1.200000
        cn-exp                         4.000000
        max-rad                        5.000000


          ...................................................
          :                      SETUP                      :
          :.................................................:
          :  # basis functions                  39          :
          :  # atomic orbitals                  39          :
          :  # shells                           23          :
          :  # electrons                        42          :
          :  max. iterations                   250          :
          :  Hamiltonian                  GFN2-xTB          :
          :  restarted?                      false          :
          :  GBSA solvation                  false          :
          :  PC potential                    false          :
          :  electronic temp.          300.0000000     K    :
          :  accuracy                    1.0000000          :
          :  -> integral cutoff          0.2500000E+02      :
          :  -> integral neglect         0.1000000E-07      :
          :  -> SCF convergence          0.1000000E-05 Eh   :
          :  -> wf. convergence          0.1000000E-03 e    :
          :  Broyden damping             0.4000000          :
          :  net charge                         -1          :
          :  unpaired electrons                  0          :
          ...................................................

 iter      E             dE          RMSdq      gap      omega  full diag
   1    -23.0057960 -0.230058E+02  0.447E+00    3.35       0.0  T
   2    -23.0676297 -0.618337E-01  0.230E+00    2.53       1.0  T
   3    -23.0644625  0.316722E-02  0.163E+00    2.77       1.0  T
   4    -23.0851359 -0.206734E-01  0.587E-01    2.63       1.0  T
   5    -23.0865858 -0.144988E-02  0.102E-01    2.64       1.0  T
   6    -23.0865995 -0.137470E-04  0.679E-02    2.65       1.0  T
   7    -23.0866210 -0.214530E-04  0.205E-02    2.65       1.3  T
   8    -23.0866246 -0.364812E-05  0.767E-03    2.65       3.4  T
   9    -23.0866248 -0.153560E-06  0.492E-03    2.65       5.3  T
  10    -23.0866250 -0.242282E-06  0.181E-03    2.65      14.3  T
  11    -23.0866250 -0.484101E-08  0.645E-04    2.65      40.0  T
  12    -23.0866250 -0.340352E-08  0.261E-04    2.65      99.0  T

   *** convergence criteria satisfied after 12 iterations ***

         #    Occupation            Energy/Eh            Energy/eV
      -------------------------------------------------------------
         1        2.0000           -0.4623666             -12.5816
       ...           ...                  ...                  ...
        15        2.0000           -0.2779316              -7.5629
        16        2.0000           -0.2529949              -6.8843
        17        2.0000           -0.2376196              -6.4660
        18        2.0000           -0.2363413              -6.4312
        19        2.0000           -0.1957444              -5.3265
        20        2.0000           -0.1521774              -4.1410
        21        2.0000           -0.1435895              -3.9073 (HOMO)
        22                         -0.0461992              -1.2571 (LUMO)
        23                         -0.0127967              -0.3482
        24                          0.0884906               2.4080
        25                          0.2383560               6.4860
        26                          0.2803657               7.6291
       ...                                ...                  ...
        39                          0.8121325              22.0993
      -------------------------------------------------------------
                  HL-Gap            0.0973902 Eh            2.6501 eV
             Fermi-level           -0.0948943 Eh           -2.5822 eV

 SCC (total)                   0 d,  0 h,  0 min,  0.036 sec
 SCC setup                      ...        0 min,  0.000 sec (  0.703%)
 Dispersion                     ...        0 min,  0.000 sec (  0.556%)
 classical contributions        ...        0 min,  0.000 sec (  0.108%)
 integral evaluation            ...        0 min,  0.001 sec (  3.478%)
 iterations                     ...        0 min,  0.032 sec ( 87.818%)
 molecular gradient             ...        0 min,  0.002 sec (  6.825%)
 printout                       ...        0 min,  0.000 sec (  0.400%)

         :::::::::::::::::::::::::::::::::::::::::::::::::::::
         ::                     SUMMARY                     ::
         :::::::::::::::::::::::::::::::::::::::::::::::::::::
         :: total energy             -22.789919825641 Eh    ::
         :: gradient norm              0.158368166918 Eh/a0 ::
         :: HOMO-LUMO gap              2.650122977789 eV    ::
         ::.................................................::
         :: SCC energy               -23.086600686512 Eh    ::
         :: -> isotropic ES            0.151955200463 Eh    ::
         :: -> anisotropic ES          0.018854143166 Eh    ::
         :: -> anisotropic XC          0.008627170995 Eh    ::
         :: -> dispersion             -0.012243224088 Eh    ::
         :: repulsion energy           0.296680860871 Eh    ::
         :: add. restraining           0.000000000000 Eh    ::
         :: total charge              -1.000000000000 e     ::
         :::::::::::::::::::::::::::::::::::::::::::::::::::::

      ----------------------------------------------------------- 
     |                   =====================                   |
     |                        A N C O P T                        |
     |                   =====================                   |
     |               Approximate Normal Coordinate               |
     |                Rational Function Optimizer                |
      ----------------------------------------------------------- 
      ----------------------------------------------------------- 
     |                   =====================                   |
     |                        A N C O P T                        |
     |                   =====================                   |
     |               Approximate Normal Coordinate               |
     |                Rational Function Optimizer                |
      ----------------------------------------------------------- 

          ...................................................
          :                      SETUP                      :
          :.................................................:
          :   optimization level            normal          :
          :   max. optcycles                   200          :
          :   ANC micro-cycles                  20          :
          :   degrees of freedom                39          :
          :.................................................:
          :   RF solver                   davidson          :
          :   write xtbopt.log                true          :
          :   linear?                        false          :
          :   energy convergence         0.5000000E-05 Eh   :
          :   grad. convergence          0.1000000E-02 Eh/α :
          :   maxmium RF displ.          1.0000000          :
          :   Hlow (freq-cutoff)         0.1000000E-01      :
          :   Hmax (freq-cutoff)         5.0000000          :
          :   S6 in model hess.         20.0000000          :
          ...................................................

generating ANC from exact Hessian ...
Using Lindh-Hessian (1995)
 Shifting diagonal of input Hessian by   6.011347125257538E-003
 Lowest  eigenvalues of input Hessian
    0.000000    0.000000    0.000000    0.000000    0.000000    0.000000
    0.010000    0.012955    0.016786    0.020334    0.020662    0.025081
    0.043569    0.044095    0.061708    0.073159    0.081044    0.084283
 Highest eigenvalues
    1.326009    1.439665    1.537159    1.561664    1.715380    2.086911
 

........................................................................
.............................. CYCLE    1 ..............................
........................................................................

 iter      E             dE          RMSdq      gap      omega  full diag
   1    -23.0866250 -0.230866E+02  0.908E-05    2.65       0.0  T
   2    -23.0866250 -0.482210E-10  0.534E-05    2.65     483.5  T
   3    -23.0866250 -0.308482E-10  0.254E-05    2.65    1016.8  T
     SCC iter.                  ...        0 min,  0.002 sec
     gradient                   ...        0 min,  0.002 sec
 * total energy  :   -22.7899198 Eh     change       -0.5727436E-09 Eh
   gradient norm :     0.1583681 Eh/α   predicted     0.0000000E+00 (-100.00%)
   displ. norm   :     0.3203110 α      lambda       -0.3424541E-01
   maximum displ.:     0.2364280 α      in ANC's #23, #24, #14, ...

........................................................................
.............................. CYCLE    2 ..............................
........................................................................

 iter      E             dE          RMSdq      gap      omega  full diag
   1    -23.1457407 -0.231457E+02  0.426E-01    3.14       0.0  T
   2    -23.1463178 -0.577151E-03  0.324E-01    3.02       1.0  T
   3    -23.1465147 -0.196927E-03  0.169E-01    3.06       1.0  T
   4    -23.1465910 -0.762910E-04  0.477E-02    3.05       1.0  T
   5    -23.1466223 -0.312493E-04  0.851E-03    3.05       3.0  T
   6    -23.1466225 -0.255045E-06  0.456E-03    3.05       5.7  T
   7    -23.1466225 -0.233007E-07  0.139E-03    3.05      18.6  T
   8    -23.1466226 -0.854158E-08  0.562E-04    3.05      45.9  T
   9    -23.1466226 -0.177086E-08  0.189E-04    3.05     136.8  T
     SCC iter.                  ...        0 min,  0.003 sec
     gradient                   ...        0 min,  0.002 sec
 * total energy  :   -22.8126426 Eh     change       -0.2272277E-01 Eh
   gradient norm :     0.0483097 Eh/α   predicted    -0.1887948E-01 ( -16.91%)
   displ. norm   :     0.1750321 α      lambda       -0.4685802E-02
   maximum displ.:     0.1095986 α      in ANC's #8, #23, #15, ...

........................................................................
.............................. CYCLE    3 ..............................
........................................................................

 iter      E             dE          RMSdq      gap      omega  full diag
   1    -23.1692391 -0.231692E+02  0.214E-01    3.29       0.0  T
   2    -23.1693044 -0.653060E-04  0.146E-01    3.25       1.0  T
   3    -23.1692912  0.132182E-04  0.722E-02    3.27       1.0  T
   4    -23.1693389 -0.476751E-04  0.122E-02    3.26       2.1  T
   5    -23.1693407 -0.182660E-05  0.366E-03    3.26       7.1  T
   6    -23.1693407 -0.170993E-07  0.166E-03    3.26      15.5  T
   7    -23.1693407 -0.993039E-08  0.713E-04    3.26      36.2  T
   8    -23.1693407 -0.684018E-09  0.248E-04    3.26     104.1  T
     SCC iter.                  ...        0 min,  0.003 sec
     gradient                   ...        0 min,  0.002 sec
 * total energy  :   -22.8146967 Eh     change       -0.2054134E-02 Eh
   gradient norm :     0.0118168 Eh/α   predicted    -0.2414678E-02 (  17.55%)
   displ. norm   :     0.0278610 α      lambda       -0.2010601E-03
   maximum displ.:     0.0115714 α      in ANC's #20, #24, #23, ...

........................................................................
.............................. CYCLE    4 ..............................
........................................................................

 iter      E             dE          RMSdq      gap      omega  full diag
   1    -23.1658616 -0.231659E+02  0.359E-02    3.23       0.0  T
   2    -23.1658665 -0.485779E-05  0.250E-02    3.24       1.0  T
   3    -23.1658673 -0.779486E-06  0.132E-02    3.23       2.0  T
   4    -23.1658676 -0.356738E-06  0.410E-03    3.24       6.3  T
   5    -23.1658679 -0.272100E-06  0.662E-04    3.24      39.0  T
   6    -23.1658679 -0.160381E-08  0.343E-04    3.24      75.2  T
     SCC iter.                  ...        0 min,  0.002 sec
     gradient                   ...        0 min,  0.002 sec
 * total energy  :   -22.8148047 Eh     change       -0.1079754E-03 Eh
   gradient norm :     0.0032323 Eh/α   predicted    -0.1006078E-03 (  -6.82%)
   displ. norm   :     0.0115692 α      lambda       -0.1705338E-04
   maximum displ.:     0.0041607 α      in ANC's #9, #12, #10, ...

........................................................................
.............................. CYCLE    5 ..............................
........................................................................

 iter      E             dE          RMSdq      gap      omega  full diag
   1    -23.1658106 -0.231658E+02  0.157E-02    3.23       0.0  T
   2    -23.1658115 -0.909677E-06  0.971E-03    3.24       2.7  T
   3    -23.1658117 -0.184920E-06  0.548E-03    3.24       4.7  T
   4    -23.1658118 -0.857360E-07  0.147E-03    3.24      17.6  T
   5    -23.1658118 -0.287147E-07  0.359E-04    3.24      72.0  T
   6    -23.1658118 -0.947395E-09  0.156E-04    3.24     166.0  T
     SCC iter.                  ...        0 min,  0.002 sec
     gradient                   ...        0 min,  0.002 sec
 * total energy  :   -22.8148133 Eh     change       -0.8597554E-05 Eh
   gradient norm :     0.0011400 Eh/α   predicted    -0.8526359E-05 (  -0.83%)
   displ. norm   :     0.0107761 α      lambda       -0.4298104E-05
   maximum displ.:     0.0049415 α      in ANC's #6, #9, #14, ...

........................................................................
.............................. CYCLE    6 ..............................
........................................................................

 iter      E             dE          RMSdq      gap      omega  full diag
   1    -23.1661867 -0.231662E+02  0.152E-02    3.24       0.0  T
   2    -23.1661870 -0.374311E-06  0.896E-03    3.24       2.9  T
   3    -23.1661870  0.272979E-07  0.473E-03    3.24       5.5  T
   4    -23.1661871 -0.120941E-06  0.779E-04    3.24      33.2  T
   5    -23.1661871 -0.791138E-08  0.288E-04    3.24      89.8  T
     SCC iter.                  ...        0 min,  0.002 sec
     gradient                   ...        0 min,  0.002 sec
 * total energy  :   -22.8148135 Eh     change       -0.1887620E-06 Eh
   gradient norm :     0.0010919 Eh/α   predicted    -0.2146898E-05 (1037.36%)
   displ. norm   :     0.0053165 α      lambda       -0.2119107E-05
   maximum displ.:     0.0026384 α      in ANC's #6, #9, #10, ...

........................................................................
.............................. CYCLE    7 ..............................
........................................................................

 iter      E             dE          RMSdq      gap      omega  full diag
   1    -23.1660921 -0.231661E+02  0.793E-03    3.24       0.0  T
   2    -23.1660922 -0.960828E-07  0.475E-03    3.24       5.4  T
   3    -23.1660922  0.151500E-07  0.258E-03    3.24      10.0  T
   4    -23.1660922 -0.483830E-07  0.452E-04    3.24      57.1  T
   5    -23.1660922 -0.287425E-08  0.139E-04    3.24     186.2  T
     SCC iter.                  ...        0 min,  0.002 sec
     gradient                   ...        0 min,  0.002 sec
 * total energy  :   -22.8148151 Eh     change       -0.1561970E-05 Eh
   gradient norm :     0.0001018 Eh/α   predicted    -0.1060991E-05 ( -32.07%)
   displ. norm   :     0.0006205 α      lambda       -0.2010058E-07
   maximum displ.:     0.0003974 α      in ANC's #4, #14, #24, ...

   *** GEOMETRY OPTIMIZATION CONVERGED AFTER 7 ITERATIONS ***

------------------------------------------------------------------------
 total energy gain   :        -0.0248952 Eh      -15.6220 kcal/mol
 total RMSD          :         0.1231481 a0        0.0652 Å
 total power (kW/mol):        -9.3374875 (step)-1594.6731 (real)
------------------------------------------------------------------------

 ANCopt (total)                0 d,  0 h,  0 min,  0.041 sec
 optimizer setup                ...        0 min,  0.000 sec (  0.841%)
 model hessian                  ...        0 min,  0.003 sec (  6.759%)
 ANC generation                 ...        0 min,  0.000 sec (  0.922%)
 coordinate transformation      ...        0 min,  0.000 sec (  0.144%)
 single point calculation       ...        0 min,  0.035 sec ( 86.415%)
 optimization log               ...        0 min,  0.000 sec (  0.987%)
 hessian update                 ...        0 min,  0.000 sec (  0.164%)
 rational function              ...        0 min,  0.001 sec (  2.988%)

================
 final structure:
================
15
 xtb: 6.7.1 (edcfbbe)
C           -5.23226830331011       -6.37895867579336        2.97482350341517
C           -5.06943754866262       -5.12913145262254        3.56110752834316
H           -5.90276701073514       -7.11149733469132        3.41296193051760
C           -4.67471889888274       -8.02339940709056        1.15434724905145
C           -4.22713928498510       -4.19056212390533        3.02259511665727
H           -5.62571292666489       -4.89574227394571        4.46817443306263
C           -3.46962689244207       -4.43859532761132        1.83258567891711
H           -4.11661682640298       -3.22136364971029        3.49861744976168
C           -3.67238382465534       -5.73795871608731        1.26841741885295
O           -2.69107432407746       -3.58628052787192        1.32486864669469
C           -4.51998674324604       -6.67429613916907        1.81558187083729
H           -5.37873067204742       -8.64956957591457        1.70362354749690
H           -5.03977067665721       -7.91334242372085        0.13112342900929
H           -3.71606013007164       -8.54424878141531        1.10863311363760
H           -3.12249893715924       -5.98056959045052        0.36395908374520
 
 Bond Distances (Angstroems)
 ---------------------------
C1-C2=1.3901         C1-H3=1.0854         C1-C11=1.3923        C2-C1=1.3901         C2-C5=1.3713         C2-H6=1.0893         
H3-C1=1.0854         C4-C11=1.5104        C4-H12=1.0906        C4-H13=1.0920        C4-H14=1.0920        C5-C2=1.3713         
C5-C7=1.4323         C5-H8=1.0854         H6-C2=1.0893         C7-C5=1.4323         C7-C9=1.4310         C7-O10=1.2611        
H8-C5=1.0854         C9-C7=1.4310         C9-C11=1.3764        C9-H15=1.0859        O10-C7=1.2611        C11-C1=1.3923        
C11-C4=1.5104        C11-C9=1.3764        H12-C4=1.0906        H13-C4=1.0920        H14-C4=1.0920        H15-C9=1.0859        
 C  H  Rav=1.0887 sigma=0.0028  Rmin=1.0854  Rmax=1.0920     7
 C  C  Rav=1.4148 sigma=0.0450  Rmin=1.3713  Rmax=1.5104     7
 O  C  Rav=1.2611 sigma=0.0000  Rmin=1.2611  Rmax=1.2611     1
 
 selected bond angles (degree)
 --------------------
H3-C1-C2=120.59                C11-C1-C2=118.81               C11-C1-H3=120.59               C5-C2-C1=121.45                
H6-C2-C1=118.95                H6-C2-C5=119.61                H12-C4-C11=111.01              H13-C4-C11=110.76              
H13-C4-H12=108.30              H14-C4-C11=110.76              H14-C4-H12=108.30              H14-C4-H13=107.60              
C7-C5-C2=122.18                H8-C5-C2=120.10                H8-C5-C7=117.72                C9-C7-C5=114.20                
O10-C7-C5=122.95               O10-C7-C9=122.85               C11-C9-C7=123.25               H15-C9-C7=117.35               
H15-C9-C11=119.40              
 
 selected dihedral angles (degree)
 ---------------------------------
C5-C2-C1-H3=180.00            C5-C2-C1-C11=  0.00           H6-C2-C1-H3=  0.00            H6-C2-C1-C11=180.00           
C7-C5-C2-C1=  0.00            C7-C5-C2-H6=180.00            H8-C5-C2-C1=180.00            H8-C5-C2-H6=  0.00            
C9-C7-C5-C2=  0.00            C9-C7-C5-H8=180.00            O10-C7-C5-C2=180.00           O10-C7-C5-H8=  0.00           
C11-C9-C7-C5=  0.00           C11-C9-C7-O10=180.00          H15-C9-C7-C5=179.99           H15-C9-C7-O10=  0.00          
           -------------------------------------------------
          |                Final Singlepoint                |
           -------------------------------------------------

          ...................................................
          :                      SETUP                      :
          :.................................................:
          :  # basis functions                  39          :
          :  # atomic orbitals                  39          :
          :  # shells                           23          :
          :  # electrons                        42          :
          :  max. iterations                   250          :
          :  Hamiltonian                  GFN2-xTB          :
          :  restarted?                      false          :
          :  GBSA solvation                  false          :
          :  PC potential                    false          :
          :  electronic temp.          300.0000000     K    :
          :  accuracy                    1.0000000          :
          :  -> integral cutoff          0.2500000E+02      :
          :  -> integral neglect         0.1000000E-07      :
          :  -> SCF convergence          0.1000000E-05 Eh   :
          :  -> wf. convergence          0.1000000E-03 e    :
          :  Broyden damping             0.4000000          :
          :  net charge                         -1          :
          :  unpaired electrons                  0          :
          ...................................................

 iter      E             dE          RMSdq      gap      omega  full diag
   1    -23.1660922 -0.231661E+02  0.592E-05    3.24       0.0  T
   2    -23.1660922 -0.768452E-11  0.340E-05    3.24     760.5  T
   3    -23.1660922 -0.369127E-11  0.211E-05    3.24    1225.9  T

   *** convergence criteria satisfied after 3 iterations ***

         #    Occupation            Energy/Eh            Energy/eV
      -------------------------------------------------------------
         1        2.0000           -0.4640411             -12.6272
       ...           ...                  ...                  ...
        15        2.0000           -0.2800320              -7.6201
        16        2.0000           -0.2470294              -6.7220
        17        2.0000           -0.2466389              -6.7114
        18        2.0000           -0.2425855              -6.6011
        19        2.0000           -0.2083114              -5.6684
        20        2.0000           -0.1525979              -4.1524
        21        2.0000           -0.1466553              -3.9907 (HOMO)
        22                         -0.0275187              -0.7488 (LUMO)
        23                         -0.0021982              -0.0598
        24                          0.1098775               2.9899
        25                          0.2610767               7.1043
        26                          0.2804534               7.6315
       ...                                ...                  ...
        39                          0.8761853              23.8422
      -------------------------------------------------------------
                  HL-Gap            0.1191366 Eh            3.2419 eV
             Fermi-level           -0.0870870 Eh           -2.3698 eV

 SCC (total)                   0 d,  0 h,  0 min,  0.004 sec
 SCC setup                      ...        0 min,  0.000 sec (  1.929%)
 Dispersion                     ...        0 min,  0.000 sec (  1.446%)
 classical contributions        ...        0 min,  0.000 sec (  0.302%)
 integral evaluation            ...        0 min,  0.001 sec ( 20.855%)
 iterations                     ...        0 min,  0.001 sec ( 26.154%)
 molecular gradient             ...        0 min,  0.002 sec ( 46.731%)
 printout                       ...        0 min,  0.000 sec (  1.929%)

         :::::::::::::::::::::::::::::::::::::::::::::::::::::
         ::                     SUMMARY                     ::
         :::::::::::::::::::::::::::::::::::::::::::::::::::::
         :: total energy             -22.814815053989 Eh    ::
         :: gradient norm              0.000103016067 Eh/a0 ::
         :: HOMO-LUMO gap              3.241872372969 eV    ::
         ::.................................................::
         :: SCC energy               -23.166070102572 Eh    ::
         :: -> isotropic ES            0.152265082256 Eh    ::
         :: -> anisotropic ES          0.017342891710 Eh    ::
         :: -> anisotropic XC          0.007336186984 Eh    ::
         :: -> dispersion             -0.012509900160 Eh    ::
         :: repulsion energy           0.351255048584 Eh    ::
         :: add. restraining           0.000000000000 Eh    ::
         :: total charge              -1.000000000000 e     ::
         :::::::::::::::::::::::::::::::::::::::::::::::::::::

           ------------------------------------------------- 
          |                Numerical Hessian                |
           ------------------------------------------------- 
step length          :   0.00500
SCC accuracy         :   0.30000
Hessian scale factor :   1.00000
frozen atoms in %    :   0.00000    0
RMS gradient         :   0.00010
estimated CPU  time      0.02 min
estimated wall time      0.01 min

writing file <hessian>.

 projected vibrational frequencies (cm⁻¹)
eigval :       -0.00    -0.00    -0.00     0.00     0.00     0.00
eigval :      -44.30   189.07   197.64   298.18   402.57   458.41
eigval :      497.70   520.42   540.49   655.46   743.85   748.53
eigval :      795.98   847.95   904.07   945.42   977.69  1017.77
eigval :     1026.10  1121.16  1188.98  1191.58  1246.04  1297.11
eigval :     1392.90  1395.27  1471.43  1502.73  1509.88  1542.44
eigval :     1554.71  1626.54  2946.28  2959.80  2973.83  2988.41
eigval :     2996.61  3005.22  3015.47
           -------------------------------------------------
          |                Property Printout                |
           -------------------------------------------------

    * Orbital Energies and Occupations

         #    Occupation            Energy/Eh            Energy/eV
      -------------------------------------------------------------
         1        2.0000           -0.4640411             -12.6272
       ...           ...                  ...                  ...
         9        2.0000           -0.3440120              -9.3610
        10        2.0000           -0.3385052              -9.2112
        11        2.0000           -0.3171859              -8.6311
        12        2.0000           -0.2991156              -8.1394
        13        2.0000           -0.2926607              -7.9637
        14        2.0000           -0.2874236              -7.8212
        15        2.0000           -0.2800322              -7.6201
        16        2.0000           -0.2470295              -6.7220
        17        2.0000           -0.2466390              -6.7114
        18        2.0000           -0.2425856              -6.6011
        19        2.0000           -0.2083115              -5.6684
        20        2.0000           -0.1525981              -4.1524
        21        2.0000           -0.1466554              -3.9907 (HOMO)
        22                         -0.0275187              -0.7488 (LUMO)
        23                         -0.0021982              -0.0598
        24                          0.1098774               2.9899
        25                          0.2610767               7.1043
        26                          0.2804534               7.6315
        27                          0.3109921               8.4625
        28                          0.3230890               8.7917
        29                          0.3349860               9.1154
        30                          0.3514978               9.5647
        31                          0.3654762               9.9451
        32                          0.3806247              10.3573
       ...                                ...                  ...
        39                          0.8761852              23.8422
      -------------------------------------------------------------
                  HL-Gap            0.1191367 Eh            3.2419 eV
             Fermi-level           -0.0870871 Eh           -2.3698 eV

     #   Z          covCN         q      C6AA      α(0)
     1   6 C        2.920    -0.093    30.340     9.033
     2   6 C        2.911    -0.050    29.253     8.869
     3   1 H        0.925    -0.043     3.915     3.094
     4   6 C        3.756    -0.085    22.178     6.715
     5   6 C        2.917    -0.102    30.574     9.067
     6   1 H        0.925    -0.040     3.848     3.068
     7   6 C        2.828     0.181    24.119     8.047
     8   1 H        0.925    -0.024     3.505     2.928
     9   6 C        2.923    -0.108    30.719     9.089
    10   8 O        0.857    -0.615    26.491     6.901
    11   6 C        2.961    -0.016    28.409     8.742
    12   1 H        0.924     0.002     3.015     2.715
    13   1 H        0.924     0.007     2.946     2.684
    14   1 H        0.924     0.007     2.946     2.684
    15   1 H        0.925    -0.021     3.453     2.906

 Mol. C6AA /au·bohr⁶  :       3005.720175
 Mol. C8AA /au·bohr⁸  :      70732.941762
 Mol. α(0) /au        :         86.542639


Wiberg/Mayer (AO) data.
largest (>0.10) Wiberg bond orders for each atom

 ---------------------------------------------------------------------------
     #   Z sym  total        # sym  WBO       # sym  WBO       # sym  WBO
 ---------------------------------------------------------------------------
     1   6 C    3.963 --     2 C    1.384    11 C    1.371     3 H    0.969
     2   6 C    3.986 --     5 C    1.519     1 C    1.384     6 H    0.969
     3   1 H    0.998 --     1 C    0.969
     4   6 C    3.993 --    11 C    1.005    12 H    0.988    13 H    0.981
                            14 H    0.981
     5   6 C    3.976 --     2 C    1.519     7 C    1.202     8 H    0.972
                            10 O    0.103
     6   1 H    0.998 --     2 C    0.969
     7   6 C    3.971 --    10 O    1.466     9 C    1.210     5 C    1.202
     8   1 H    0.999 --     5 C    0.972
     9   6 C    3.972 --    11 C    1.489     7 C    1.210    15 H    0.971
                            10 O    0.107
    10   8 O    1.786 --     7 C    1.466     9 C    0.107     5 C    0.103
    11   6 C    3.980 --     9 C    1.489     1 C    1.371     4 C    1.005
    12   1 H    1.000 --     4 C    0.988
    13   1 H    1.000 --     4 C    0.981
    14   1 H    1.000 --     4 C    0.981
    15   1 H    1.000 --     9 C    0.971
 ---------------------------------------------------------------------------

Topologies differ in total number of bonds
Writing topology from bond orders to xtbtopo.mol

molecular dipole:
                 x           y           z       tot (Debye)
 q only:        6.869       8.807      -3.616
   full:        6.653       8.511      -3.515      28.874
molecular quadrupole (traceless):
                xx          xy          yy          xz          yz          zz
 q only:       -0.738     -98.151     -51.169      42.675      49.858      51.907
  q+dip:       -2.405     -91.482     -46.635      38.471      48.861      49.040
   full:       -1.751     -92.236     -47.111      39.792      48.296      48.862

           -------------------------------------------------
          |                Geometry Summary                 |
           -------------------------------------------------

      molecular mass/u    :      107.1301415
   center of mass at/Å    :       -4.1719302      -5.5201104       2.0883454
  moments of inertia/u·Å² :        0.1344327E+03   0.2715242E+03   0.4028264E+03
rotational constants/cm⁻¹ :        0.1253983E+00   0.6208520E-01   0.4184838E-01

 * 13 selected distances

     #   Z          #   Z                                           value/Å
     1   6 C        2   6 C                                       1.3900760
     1   6 C        3   1 H                                       1.0854248 (min)
     2   6 C        5   6 C                                       1.3712676
     2   6 C        6   1 H                                       1.0893500
     5   6 C        7   6 C                                       1.4322948 (max)
     5   6 C        8   1 H                                       1.0854300
     7   6 C        9   6 C                                       1.4309933
     1   6 C       11   6 C                                       1.3922682
     9   6 C       11   6 C                                       1.3764257
     4   6 C       12   1 H                                       1.0906082
     4   6 C       13   1 H                                       1.0919535
     4   6 C       14   1 H                                       1.0919710
     9   6 C       15   1 H                                       1.0859459

 * 2 distinct bonds (by element types)

   Z      Z             #   av. dist./Å        max./Å        min./Å
   1 H    6 C           7     1.0886691     1.0919710     1.0854248
   6 C    6 C           6     1.3988876     1.4322948     1.3712676

           -------------------------------------------------
          |               Frequency Printout                |
           -------------------------------------------------
 projected vibrational frequencies (cm⁻¹)
eigval :       -0.00    -0.00    -0.00     0.00     0.00     0.00
eigval :      -44.30   189.07   197.64   298.18   402.57   458.41
eigval :      497.70   520.42   540.49   655.46   743.85   748.53
eigval :      795.98   847.95   904.07   945.42   977.69  1017.77
eigval :     1026.10  1121.16  1188.98  1191.58  1246.04  1297.11
eigval :     1392.90  1395.27  1471.43  1502.73  1509.88  1542.44
eigval :     1554.71  1626.54  2946.28  2959.80  2973.83  2988.41
eigval :     2996.61  3005.22  3015.47
 reduced masses (amu)
   1: 12.01   2: 11.32   3: 11.53   4: 11.59   5: 11.27   6: 11.71   7:  1.31   8: 11.50
   9:  9.29  10: 10.06  11:  9.24  12: 11.47  13: 11.71  14: 11.89  15: 10.16  16:  9.62
  17: 11.66  18:  3.39  19:  5.44  20:  3.10  21:  2.94  22:  8.94  23:  9.69  24:  5.31
  25:  4.44  26:  4.90  27:  2.54  28:  5.88  29:  7.61  30:  6.50  31:  8.62  32:  3.50
  33: 10.56  34:  1.60  35:  2.49  36: 10.56  37: 11.94  38: 11.81  39:  1.76  40:  1.93
  41:  1.77  42:  1.51  43:  1.71  44:  1.81  45:  1.83
 IR intensities (km·mol⁻¹)
   1:  5.28   2:  6.43   3:  5.25   4:  7.66   5:  4.89   6:  7.01   7:  0.25   8:  3.73
   9:  2.95  10:  2.11  11:  0.09  12:  4.45  13:  3.77  14:  1.94  15:  0.57  16:  8.65
  17:  1.16  18: 21.52  19: 15.37  20:  0.39  21:  0.13  22:  2.93  23: 16.46  24:  0.88
  25:  6.29  26:  0.90  27: 18.28  28: 13.04  29:  1.56  30:  2.30  31: 63.69  32:  6.15
  33: 65.39  34:  0.02  35:  1.65  36: 22.33  37:174.05  38:591.20  39:141.56  40: 80.28
  41: 38.03  42: 34.27  43:302.16  44:226.35  45: 40.21
 Raman intensities (Ä⁴*amu⁻¹)
   1:  0.00   2:  0.00   3:  0.00   4:  0.00   5:  0.00   6:  0.00   7:  0.00   8:  0.00
   9:  0.00  10:  0.00  11:  0.00  12:  0.00  13:  0.00  14:  0.00  15:  0.00  16:  0.00
  17:  0.00  18:  0.00  19:  0.00  20:  0.00  21:  0.00  22:  0.00  23:  0.00  24:  0.00
  25:  0.00  26:  0.00  27:  0.00  28:  0.00  29:  0.00  30:  0.00  31:  0.00  32:  0.00
  33:  0.00  34:  0.00  35:  0.00  36:  0.00  37:  0.00  38:  0.00  39:  0.00  40:  0.00
  41:  0.00  42:  0.00  43:  0.00  44:  0.00  45:  0.00
 output can be read by thermo (or use thermo option).
 writing <g98.out> molden fake output.
 recommended (thermochemical) frequency scaling factor: 1.0
           -------------------------------------------------
          |             Thermodynamic Functions             |
           -------------------------------------------------

Refinement of some symmetry elements was terminated before convergence was reached.
Some symmetry elements may remain unidentified.
Molecule has the following symmetry elements: (sigma) 
It seems to be the Cs point group
cs  symmetry found (for desy threshold:  0.10E+00) used in thermo

          ...................................................
          :                      SETUP                      :
          :.................................................:
          :  # frequencies                          38      :
          :  # imaginary freq.                       1      :
          :  linear?                             false      :
          :  only rotor calc.                    false      :
          :  symmetry                               cs      :
          :  rotational number                       1      :
          :  scaling factor                  1.0000000      :
          :  rotor cutoff                   50.0000000 cm⁻¹ :
          :  imag. cutoff                  -20.0000000 cm⁻¹ :
          :.................................................:

    mode    ω/cm⁻¹     T·S(HO)/kcal·mol⁻¹    T·S(FR)/kcal·mol⁻¹   T·S(vib)
   ------------------------------------------------------------------------
       1    189.07    -0.66693 ( 99.51%)    -0.66242 (  0.49%)    -0.66691
       2    197.64    -0.64249 ( 99.59%)    -0.64929 (  0.41%)    -0.64251
       3    298.18    -0.42549 ( 99.92%)    -0.52750 (  0.08%)    -0.42557
   ------------------------------------------------------------------------

   temp. (K)  partition function   enthalpy   heat capacity  entropy
                                   cal/mol     cal/K/mol   cal/K/mol   J/K/mol
 298.15  VIB   7.41                 2232.966     19.108     11.470
         ROT  0.293E+06              888.752      2.981     27.996
         INT  0.217E+07             3121.718     22.089     39.466
         TR   0.107E+28             1481.254      4.968     39.905
         TOT                        4602.9722    27.0572    79.3712   332.0893

       T/K    H(0)-H(T)+PV         H(T)/Eh          T*S/Eh         G(T)/Eh
   ------------------------------------------------------------------------
    298.15    0.733530E-02    0.122824E+00    0.377118E-01    0.851122E-01
   ------------------------------------------------------------------------

         :::::::::::::::::::::::::::::::::::::::::::::::::::::
         ::                  THERMODYNAMIC                  ::
         :::::::::::::::::::::::::::::::::::::::::::::::::::::
         :: total free energy         -22.729702860094 Eh   ::
         ::.................................................::
         :: total energy              -22.814815053990 Eh   ::
         :: zero point energy           0.115488730655 Eh   ::
         :: G(RRHO) w/o ZPVE           -0.030376536759 Eh   ::
         :: G(RRHO) contrib.            0.085112193896 Eh   ::
         :::::::::::::::::::::::::::::::::::::::::::::::::::::
imag cut-off (cm-1) :    5.00
 found            1  significant imaginary frequency
 writing imag mode distorted coords to xtbhess.xyz
 for further optimization.

optimized geometry written to: xtbopt.xyz


           -------------------------------------------------
          | TOTAL ENERGY              -22.814815053990 Eh   |
          | TOTAL ENTHALPY            -22.691991020171 Eh   |
          | TOTAL FREE ENERGY         -22.729702860094 Eh   |
          | GRADIENT NORM               0.000103011518 Eh/α |
          | HOMO-LUMO GAP               3.241874393658 eV   |
           -------------------------------------------------

------------------------------------------------------------------------
 * finished run on 2025/10/18 at 02:46:00.334     
------------------------------------------------------------------------
 total:
 * wall-time:     0 d,  0 h,  0 min,  0.645 sec
 *  cpu-time:     0 d,  0 h,  0 min,  1.027 sec
 * ratio c/w:     1.592 speedup
 SCF:
 * wall-time:     0 d,  0 h,  0 min,  0.036 sec
 *  cpu-time:     0 d,  0 h,  0 min,  0.051 sec
 * ratio c/w:     1.423 speedup
 ANC optimizer:
 * wall-time:     0 d,  0 h,  0 min,  0.115 sec
 *  cpu-time:     0 d,  0 h,  0 min,  0.161 sec
 * ratio c/w:     1.400 speedup
 analytical hessian:
 * wall-time:     0 d,  0 h,  0 min,  0.362 sec
 *  cpu-time:     0 d,  0 h,  0 min,  0.671 sec
 * ratio c/w:     1.855 speedup

