15
 energy: -22.789919826213 gnorm: 0.158368081368 xtb: 6.7.1 (edcfbbe)
C           -5.26693600000000       -6.40375400000000        3.00469900000000
C           -5.10631100000000       -5.09693100000000        3.63195700000000
H           -5.93815700000000       -7.12476300000000        3.44856800000000
C           -4.67231700000000       -8.05716300000000        1.13165400000000
C           -4.20494500000000       -4.11079200000000        3.04794500000000
H           -5.65247300000000       -4.84888900000000        4.52990200000000
C           -3.47754000000000       -4.44992100000000        1.84527800000000
H           -4.08324100000000       -3.13855100000000        3.50608800000000
C           -3.62221200000000       -5.73777000000000        1.20166500000000
O           -2.70985700000000       -3.60351100000000        1.34275900000000
C           -4.52499200000000       -6.73026300000000        1.78765000000000
H           -5.37543700000000       -8.70239100000000        1.66843300000000
H           -5.04297500000000       -7.94129300000000        0.10776300000000
H           -3.70878900000000       -8.57608000000000        1.09245300000000
H           -3.07261100000000       -5.95344400000000        0.29460600000000
15
 energy: -22.812642595986 gnorm: 0.048309750900 xtb: 6.7.1 (edcfbbe)
C           -5.23475279050259       -6.37399100109989        2.98158283081070
C           -5.07994056855785       -5.11352311885041        3.58515391490016
H           -5.90783019873067       -7.10023202616686        3.42467237120767
C           -4.67398851955897       -8.03603503372348        1.14686708357436
C           -4.22212370036659       -4.16389912440069        3.03668713208152
H           -5.63387978104612       -4.87426847314872        4.48842133282599
C           -3.47989945506610       -4.44692582715095        1.84238886635649
H           -4.10404656520485       -3.19285158684789        3.50161088330632
C           -3.66086398902629       -5.74103437509083        1.24977844092739
O           -2.69914494318932       -3.59424230094820        1.33591066666030
C           -4.52262381392969       -6.69318562269503        1.80745237000974
H           -5.37542669827117       -8.68338486299309        1.68041013178741
H           -5.03821917640330       -7.93283281828697        0.11978846518532
H           -3.71525556422723       -8.56190466207816        1.09634144404949
H           -3.11079723591925       -5.96720516651882        0.34435406631714
15
 energy: -22.814696730175 gnorm: 0.011816861686 xtb: 6.7.1 (edcfbbe)
C           -5.22860557757700       -6.37380076813307        2.97274054885170
C           -5.06825033191965       -5.12805213538599        3.55927725685910
H           -5.90069041146546       -7.10551815141007        3.41390089697170
C           -4.67454657073357       -8.02148966846091        1.15595805145383
C           -4.22895071747212       -4.19152192157187        3.02521318512886
H           -5.62514205322692       -4.89555211258412        4.46607466861839
C           -3.47235638411093       -4.44447799322620        1.83712898544940
H           -4.11442424079385       -3.22073199773860        3.49574450895356
C           -3.67602143996565       -5.74121765897934        1.26927971393941
O           -2.69254311164464       -3.59023459804021        1.32746342065112
C           -4.52105343815799       -6.67322687371168        1.81632154538878
H           -5.37748089478645       -8.65610359911999        1.69969658185437
H           -5.03849993732309       -7.91412228554084        0.13049666835148
H           -3.71480993609802       -8.54327260905887        1.10789786668999
H           -3.12541795472466       -5.97619362703823        0.36422610083831
15
 energy: -22.814804705554 gnorm: 0.003232297216 xtb: 6.7.1 (edcfbbe)
C           -5.23187271430154       -6.37842566754163        2.97470986595141
C           -5.06963262696281       -5.12900084436588        3.56139699611078
H           -5.90304552889065       -7.11065109646482        3.41418383928115
C           -4.67492585679526       -8.02291598777997        1.15505678574052
C           -4.22743413368080       -4.18977882783052        3.02340521070554
H           -5.62670490990338       -4.89639215934853        4.46809421391048
C           -3.47217505246519       -4.43962314205762        1.83270124816942
H           -4.11354148461834       -3.22032455921616        3.49689186605828
C           -3.67308802713649       -5.73860901825095        1.26765177476009
O           -2.69048810404608       -3.58751991372297        1.32582858733340
C           -4.52056298813110       -6.67488634920858        1.81560927536608
H           -5.37856071162296       -8.65244543072714        1.70244911223439
H           -5.03968147654910       -7.91376367158592        0.13091836753473
H           -3.71558291109345       -8.54385725332386        1.10861223082549
H           -3.12149647380286       -5.97732207857544        0.36391062601823
15
 energy: -22.814813303108 gnorm: 0.001139977914 xtb: 6.7.1 (edcfbbe)
C           -5.23248425009504       -6.37895840574363        2.97479816727803
C           -5.06973407801341       -5.12894933138789        3.56139849629843
H           -5.90304889819528       -7.11143409968516        3.41335450477135
C           -4.67469616418390       -8.02332983844825        1.15441019806812
C           -4.22715800879862       -4.19028361427956        3.02283195392681
H           -5.62602380288816       -4.89612975390191        4.46864537359435
C           -3.46886250012227       -4.43953169579846        1.83361406820742
H           -4.11614956817922       -3.22065731062517        3.49732998321950
C           -3.67245637837666       -5.73809421609962        1.26815978487890
O           -2.69099387579623       -3.58654964761943        1.32489831042202
C           -4.52028462624676       -6.67466280178815        1.81533717658096
H           -5.37865836298920       -8.65005666309722        1.70350531659142
H           -5.03975881526255       -7.91366137806076        0.13099106131743
H           -3.71588157108502       -8.54422987557068        1.10865741457162
H           -3.12260209976768       -5.97898736789409        0.36348819027363
15
 energy: -22.814813491870 gnorm: 0.001091902224 xtb: 6.7.1 (edcfbbe)
C           -5.23222170574744       -6.37912708802418        2.97490739894909
C           -5.06926343048022       -5.12914839206120        3.56116780702092
H           -5.90260193320837       -7.11169937922694        3.41265968744527
C           -4.67463486244758       -8.02347126539169        1.15408721933062
C           -4.22720711587291       -4.19081436733910        3.02236882938001
H           -5.62577183833577       -4.89558821477780        4.46812235059771
C           -3.47064532878843       -4.43762790082135        1.83138401103492
H           -4.11657716140862       -3.22200640915703        3.49942284802191
C           -3.67239816735817       -5.73777848599936        1.26859342771950
O           -2.69093861818253       -3.58617998796335        1.32480062614125
C           -4.51968652541143       -6.67427208357108        1.81560350769772
H           -5.37873285462495       -8.64858118211686        1.70406722451360
H           -5.03987675523344       -7.91329360660007        0.13114595942232
H           -3.71621033947594       -8.54435932931245        1.10855044270747
H           -3.12202636342418       -5.98156830763752        0.36453866001767
15
 energy: -22.814815053840 gnorm: 0.000101842789 xtb: 6.7.1 (edcfbbe)
C           -5.23226830331011       -6.37895867579336        2.97482350341517
C           -5.06943754866262       -5.12913145262254        3.56110752834316
H           -5.90276701073514       -7.11149733469132        3.41296193051760
C           -4.67471889888274       -8.02339940709056        1.15434724905145
C           -4.22713928498510       -4.19056212390533        3.02259511665727
H           -5.62571292666489       -4.89574227394571        4.46817443306263
C           -3.46962689244207       -4.43859532761132        1.83258567891711
H           -4.11661682640298       -3.22136364971029        3.49861744976168
C           -3.67238382465534       -5.73795871608731        1.26841741885295
O           -2.69107432407746       -3.58628052787192        1.32486864669469
C           -4.51998674324604       -6.67429613916907        1.81558187083729
H           -5.37873067204742       -8.64956957591457        1.70362354749690
H           -5.03977067665721       -7.91334242372085        0.13112342900929
H           -3.71606013007164       -8.54424878141531        1.10863311363760
H           -3.12249893715924       -5.98056959045052        0.36395908374520
