15
 energy: -22.814815053989 gnorm: 0.000103016067 xtb: 6.7.1 (edcfbbe)
C           -5.23229131919702       -6.37892608761133        2.97485290083754
C           -5.06945197395766       -5.12909869379143        3.56113417601449
H           -5.90279233277214       -7.11146047108730        3.41299494693980
C           -4.67475687971977       -8.02337291550251        1.15437757036362
C           -4.22715067573288       -4.19053471522354        3.02261718604460
H           -5.62572296365836       -4.89570501935327        4.46820261515347
C           -3.46964373582958       -4.43857396218789        1.83260553699604
H           -4.11662148081175       -3.22133598893050        3.49863744177878
C           -3.67240944080561       -5.73793727366033        1.26844025250831
O           -2.69108847704714       -3.58626412507729        1.32488429954638
C           -4.52001535205586       -6.67426930371721        1.81560929739791
H           -5.37877001414502       -8.64953843946201        1.70365741914269
H           -5.03981165296494       -7.91331580657160        0.13115483251468
H           -3.71610099765827       -8.54422738913030        1.10866099765339
H           -3.12252898078993       -5.98055260577145        0.36398042138295
