 Entering Gaussian System
 *********************************************
 Gaussian 98:
 frequency output generated by the xtb code
 *********************************************
                         Standard orientation:
 --------------------------------------------------------------------
  Center     Atomic     Atomic              Coordinates (Angstroms)
  Number     Number      Type              X           Y           Z
 --------------------------------------------------------------------
    1          6             0       -5.261034   -6.500959    2.933876
    2          6             0       -5.083720   -5.249722    3.500836
    3          6             0       -2.944638   -6.286330   -0.065858
    4          1             0       -4.684709   -7.787949    1.323138
    5          6             0       -4.227520   -4.336186    2.930448
    6          1             0       -5.622499   -4.982298    4.403183
    7          6             0       -3.490873   -4.618458    1.750527
    8          1             0       -4.089521   -3.355780    3.376036
    9          6             0       -3.692640   -5.917419    1.185796
   10          8             0       -2.692957   -3.753800    1.227352
   11          6             0       -4.556596   -6.811743    1.779259
   12          1             0       -5.933137   -7.220582    3.379803
   13          1             0       -2.327692   -5.435586   -0.353939
   14          1             0       -2.300879   -7.150784    0.100716
   15          1             0       -3.631378   -6.518286   -0.880721
 --------------------------------------------------------------------
     1 basis functions        1 primitive gaussians
     1 alpha electrons        1 beta electrons
 
 Harmonic frequencies (cm**-1), IR intensities (km*mol⁻¹),
 Raman scattering activities (A**4/amu), Raman depolarization ratios,
 reduced masses (AMU), force constants (mDyne/A) and normal coordinates:
                      1                      2                      3
                        a                      a                      a 
 Frequencies --    69.7566               151.3080               253.4658
 Red. masses --     1.2797                10.7146                10.2238
 Frc consts  --     0.0000                 0.0000                 0.0000
 IR Inten    --     0.0131                 8.6253                 1.3386
 Raman Activ --     0.0000                 0.0000                 0.0000
 Depolar     --     0.0000                 0.0000                 0.0000
 Atom AN      X      Y      Z        X      Y      Z        X      Y      Z
   1   6    -0.05   0.02  -0.04     0.19  -0.09   0.14     0.23  -0.11   0.17
   2   6     0.02  -0.01   0.02    -0.21   0.10  -0.15     0.21  -0.10   0.16
   3   6     0.01  -0.01   0.01    -0.32   0.15  -0.23     0.17  -0.08   0.12
   4   1    -0.04   0.02  -0.03     0.10  -0.05   0.08    -0.08   0.04  -0.06
   5   6     0.05  -0.02   0.04    -0.28   0.13  -0.20    -0.28   0.13  -0.21
   6   1     0.01  -0.01   0.01    -0.12   0.06  -0.09     0.16  -0.08   0.12
   7   6     0.03  -0.01   0.02     0.05  -0.02   0.04    -0.19   0.09  -0.14
   8   1     0.03  -0.01   0.02    -0.15   0.07  -0.11    -0.08   0.04  -0.06
   9   6    -0.02   0.01  -0.02     0.02  -0.01   0.02    -0.32   0.15  -0.23
  10   8     0.03  -0.01   0.02     0.37  -0.18   0.27     0.24  -0.12   0.18
  11   6    -0.07   0.04  -0.06     0.23  -0.11   0.17    -0.23   0.11  -0.17
  12   1    -0.03   0.01  -0.02     0.11  -0.05   0.08     0.17  -0.08   0.13
  13   1    -0.41   0.19  -0.30    -0.16   0.08  -0.12     0.10  -0.05   0.08
  14   1     0.43   0.35   0.18    -0.03   0.07  -0.15     0.02  -0.02   0.18
  15   1     0.01  -0.56   0.16    -0.17   0.02   0.00     0.16  -0.06  -0.05
                      4                      5                      6
                        a                      a                      a 
 Frequencies --   288.6548               404.3864               431.6258
 Red. masses --    10.1554                 9.2468                11.7738
 Frc consts  --     0.0000                 0.0000                 0.0000
 IR Inten    --    14.2143                 0.0452                11.6529
 Raman Activ --     0.0000                 0.0000                 0.0000
 Depolar     --     0.0000                 0.0000                 0.0000
 Atom AN      X      Y      Z        X      Y      Z        X      Y      Z
   1   6    -0.05   0.04   0.09     0.03  -0.01   0.02     0.06   0.27   0.10
   2   6     0.01   0.06   0.03     0.19  -0.09   0.14    -0.03   0.24   0.19
   3   6     0.21   0.55   0.06    -0.02   0.01  -0.02     0.23  -0.06  -0.36
   4   1    -0.05  -0.04   0.04    -0.24   0.11  -0.18    -0.08  -0.02   0.10
   5   6     0.03   0.04  -0.01    -0.27   0.13  -0.20     0.02  -0.06  -0.06
   6   1     0.01   0.03   0.01     0.07  -0.03   0.05     0.00   0.09   0.05
   7   6    -0.07  -0.14   0.01     0.18  -0.08   0.13    -0.10  -0.30  -0.06
   8   1     0.02   0.02  -0.02    -0.22   0.11  -0.16     0.09   0.02  -0.12
   9   6    -0.11  -0.14   0.06     0.44  -0.21   0.32     0.09  -0.25  -0.28
  10   8     0.01  -0.43  -0.29    -0.08   0.04  -0.06    -0.28   0.07   0.42
  11   6    -0.10  -0.12   0.06    -0.28   0.13  -0.21    -0.03   0.03   0.05
  12   1    -0.02   0.03   0.05    -0.03   0.01  -0.02     0.02   0.07   0.03
  13   1    -0.01   0.28   0.19    -0.05   0.02  -0.04     0.04   0.03  -0.04
  14   1     0.15   0.21  -0.06     0.02  -0.01  -0.16     0.10   0.00  -0.13
  15   1     0.15   0.21  -0.07    -0.12   0.06   0.08     0.10   0.00  -0.13
                      7                      8                      9
                        a                      a                      a 
 Frequencies --   509.4501               521.8581               562.9713
 Red. masses --    10.0004                12.0073                11.6864
 Frc consts  --     0.0000                 0.0000                 0.0000
 IR Inten    --     0.7117                13.0392                 2.7414
 Raman Activ --     0.0000                 0.0000                 0.0000
 Depolar     --     0.0000                 0.0000                 0.0000
 Atom AN      X      Y      Z        X      Y      Z        X      Y      Z
   1   6     0.39  -0.19   0.29     0.25   0.18  -0.21    -0.19  -0.06   0.22
   2   6    -0.31   0.15  -0.23    -0.08   0.07   0.15    -0.30  -0.13   0.32
   3   6     0.03  -0.01   0.02     0.03  -0.11  -0.11     0.14  -0.01  -0.20
   4   1    -0.16   0.08  -0.12     0.04   0.02  -0.05     0.02   0.12   0.05
   5   6     0.19  -0.09   0.13    -0.14   0.26   0.36    -0.16  -0.34   0.00
   6   1    -0.23   0.11  -0.17    -0.08  -0.10   0.04    -0.05   0.03   0.09
   7   6     0.29  -0.14   0.21    -0.21  -0.01   0.28     0.09   0.07  -0.08
   8   1    -0.06   0.03  -0.04    -0.03   0.07   0.09    -0.07  -0.10   0.02
   9   6    -0.11   0.05  -0.08     0.11   0.12  -0.08     0.16   0.15  -0.12
  10   8    -0.14   0.07  -0.10    -0.13  -0.47  -0.14     0.18  -0.06  -0.28
  11   6    -0.24   0.11  -0.17     0.20   0.10  -0.21     0.06   0.43   0.19
  12   1     0.13  -0.06   0.09     0.08   0.01  -0.10    -0.02  -0.11  -0.04
  13   1     0.04  -0.02   0.03     0.05  -0.09  -0.12     0.05  -0.02  -0.08
  14   1    -0.01  -0.00   0.08    -0.05  -0.06   0.02     0.03  -0.01  -0.04
  15   1     0.07  -0.03  -0.04    -0.04  -0.06   0.02     0.03  -0.01  -0.04
                     10                     11                     12
                        a                      a                      a 
 Frequencies --   668.9420               755.1897               774.6996
 Red. masses --    10.7352                 3.6210                10.6388
 Frc consts  --     0.0000                 0.0000                 0.0000
 IR Inten    --    10.8225                27.2013                 2.7883
 Raman Activ --     0.0000                 0.0000                 0.0000
 Depolar     --     0.0000                 0.0000                 0.0000
 Atom AN      X      Y      Z        X      Y      Z        X      Y      Z
   1   6     0.18  -0.08   0.13    -0.19   0.09  -0.14     0.18   0.16  -0.14
   2   6    -0.22   0.10  -0.16    -0.13   0.06  -0.09    -0.01   0.05   0.05
   3   6     0.04  -0.02   0.03     0.01  -0.01   0.01    -0.22   0.15   0.40
   4   1     0.03  -0.01   0.02     0.20  -0.10   0.15     0.07   0.09  -0.04
   5   6     0.17  -0.08   0.13    -0.10   0.05  -0.07     0.05  -0.36  -0.29
   6   1     0.07  -0.03   0.05     0.26  -0.12   0.19     0.02   0.06   0.01
   7   6    -0.48   0.23  -0.35     0.23  -0.11   0.17    -0.03  -0.26  -0.13
   8   1     0.19  -0.09   0.14     0.21  -0.10   0.15     0.10  -0.07  -0.18
   9   6     0.31  -0.15   0.23     0.02  -0.01   0.02     0.06   0.14   0.02
  10   8     0.11  -0.05   0.09    -0.07   0.03  -0.05    -0.18  -0.18   0.13
  11   6    -0.21   0.10  -0.16    -0.10   0.05  -0.07     0.18   0.29  -0.06
  12   1     0.08  -0.04   0.06     0.53  -0.25   0.39     0.07  -0.02  -0.11
  13   1    -0.04   0.02  -0.03    -0.02   0.01  -0.01    -0.04   0.01   0.06
  14   1     0.04  -0.01  -0.13     0.01  -0.01  -0.05    -0.10   0.02   0.15
  15   1    -0.10   0.04   0.08    -0.03   0.02   0.03    -0.10   0.02   0.15
                     13                     14                     15
                        a                      a                      a 
 Frequencies --   825.8582               845.3262               883.8109
 Red. masses --     4.1661                11.7387                 3.5331
 Frc consts  --     0.0000                 0.0000                 0.0000
 IR Inten    --     3.7032                23.0469                 0.8095
 Raman Activ --     0.0000                 0.0000                 0.0000
 Depolar     --     0.0000                 0.0000                 0.0000
 Atom AN      X      Y      Z        X      Y      Z        X      Y      Z
   1   6    -0.21   0.10  -0.15     0.26   0.26  -0.18    -0.09   0.04  -0.07
   2   6     0.11  -0.05   0.08    -0.28   0.09   0.44    -0.13   0.06  -0.10
   3   6    -0.01   0.00  -0.00    -0.10  -0.01   0.13    -0.02   0.01  -0.01
   4   1     0.07  -0.03   0.05    -0.08  -0.12   0.02    -0.61   0.29  -0.45
   5   6     0.28  -0.14   0.21    -0.12  -0.17   0.06     0.04  -0.02   0.03
   6   1    -0.19   0.09  -0.14    -0.12  -0.07   0.12     0.17  -0.08   0.12
   7   6    -0.15   0.07  -0.11     0.11   0.06  -0.11    -0.08   0.04  -0.06
   8   1    -0.50   0.24  -0.37    -0.01  -0.03  -0.01     0.02  -0.01   0.01
   9   6     0.03  -0.01   0.02    -0.08  -0.16   0.00     0.00  -0.00   0.00
  10   8     0.05  -0.02   0.03     0.25   0.28  -0.16     0.02  -0.01   0.01
  11   6    -0.03   0.01  -0.02    -0.03  -0.37  -0.19     0.31  -0.15   0.23
  12   1     0.33  -0.16   0.24     0.07   0.04  -0.08     0.19  -0.09   0.14
  13   1     0.01  -0.00   0.00    -0.06   0.05   0.11     0.02  -0.01   0.01
  14   1    -0.00   0.00   0.02     0.02   0.02  -0.01    -0.01   0.01   0.05
  15   1     0.01  -0.01  -0.01     0.01   0.02  -0.01     0.04  -0.02  -0.04
                     16                     17                     18
                        a                      a                      a 
 Frequencies --   900.9695               991.5775              1036.4791
 Red. masses --     2.7189                 4.8666                 4.3078
 Frc consts  --     0.0000                 0.0000                 0.0000
 IR Inten    --     0.0495                 7.9144                 1.4184
 Raman Activ --     0.0000                 0.0000                 0.0000
 Depolar     --     0.0000                 0.0000                 0.0000
 Atom AN      X      Y      Z        X      Y      Z        X      Y      Z
   1   6    -0.07   0.03  -0.05     0.06   0.01  -0.07     0.01  -0.00   0.01
   2   6     0.24  -0.11   0.18     0.03  -0.09  -0.09    -0.00   0.00  -0.00
   3   6     0.02  -0.01   0.01    -0.23  -0.34   0.09     0.32  -0.15   0.23
   4   1    -0.12   0.06  -0.09     0.03   0.09   0.02    -0.06   0.03  -0.05
   5   6    -0.14   0.07  -0.10    -0.01   0.10   0.08     0.03  -0.01   0.02
   6   1    -0.55   0.26  -0.40    -0.03  -0.10  -0.02    -0.00  -0.00  -0.00
   7   6    -0.06   0.03  -0.05    -0.00   0.01   0.01     0.02  -0.01   0.02
   8   1     0.35  -0.17   0.26    -0.04   0.01   0.07    -0.05   0.03  -0.04
   9   6     0.04  -0.02   0.03     0.00  -0.13  -0.08    -0.26   0.12  -0.19
  10   8     0.00  -0.00   0.00     0.01   0.02   0.00    -0.00   0.00  -0.00
  11   6     0.00  -0.00   0.00     0.09   0.30   0.07     0.04  -0.02   0.03
  12   1     0.21  -0.10   0.15     0.05  -0.07  -0.11    -0.01   0.00  -0.01
  13   1    -0.01   0.00  -0.01    -0.26   0.24   0.51    -0.16   0.08  -0.11
  14   1     0.01  -0.01  -0.03     0.24   0.09  -0.21     0.15  -0.09  -0.54
  15   1    -0.02   0.01   0.02     0.20   0.11  -0.25    -0.38   0.21   0.37
                     19                     20                     21
                        a                      a                      a 
 Frequencies --  1088.2879              1124.0494              1173.6261
 Red. masses --     6.6905                 6.4724                 1.7397
 Frc consts  --     0.0000                 0.0000                 0.0000
 IR Inten    --     1.1068                15.7143                 4.8600
 Raman Activ --     0.0000                 0.0000                 0.0000
 Depolar     --     0.0000                 0.0000                 0.0000
 Atom AN      X      Y      Z        X      Y      Z        X      Y      Z
   1   6     0.22   0.37  -0.06     0.04  -0.03  -0.07     0.02   0.06   0.02
   2   6     0.13  -0.16  -0.28     0.01  -0.12  -0.09    -0.01  -0.06  -0.02
   3   6     0.05   0.00  -0.06    -0.00   0.19   0.13     0.01  -0.03  -0.03
   4   1    -0.23  -0.06   0.27    -0.25  -0.04   0.31     0.20   0.09  -0.22
   5   6    -0.11  -0.33  -0.07    -0.00   0.25   0.17    -0.05  -0.05   0.04
   6   1     0.03  -0.06  -0.09    -0.19  -0.42  -0.02    -0.25  -0.54  -0.00
   7   6    -0.02   0.15   0.13     0.05  -0.24  -0.22     0.02  -0.10  -0.10
   8   1    -0.33  -0.21   0.32     0.02   0.08   0.02     0.16   0.05  -0.19
   9   6    -0.05  -0.01   0.06     0.04  -0.21  -0.19     0.02   0.14   0.06
  10   8    -0.02  -0.04  -0.00     0.08   0.13  -0.03     0.01   0.01  -0.01
  11   6    -0.06   0.06   0.12    -0.07   0.20   0.23    -0.02   0.03   0.05
  12   1     0.02   0.25   0.14     0.06  -0.15  -0.18    -0.14   0.43   0.46
  13   1     0.02  -0.02  -0.04     0.06  -0.05  -0.10    -0.01   0.01   0.02
  14   1    -0.00  -0.01  -0.01    -0.12  -0.03   0.13     0.03   0.01  -0.03
  15   1     0.00  -0.01  -0.00    -0.10  -0.04   0.14     0.02   0.01  -0.03
                     22                     23                     24
                        a                      a                      a 
 Frequencies --  1202.9758              1248.9129              1318.1275
 Red. masses --     6.2632                 7.0067                 8.2556
 Frc consts  --     0.0000                 0.0000                 0.0000
 IR Inten    --    37.2836                11.4692                34.4555
 Raman Activ --     0.0000                 0.0000                 0.0000
 Depolar     --     0.0000                 0.0000                 0.0000
 Atom AN      X      Y      Z        X      Y      Z        X      Y      Z
   1   6    -0.11  -0.05   0.11     0.11   0.04  -0.12    -0.08   0.27   0.28
   2   6     0.02   0.08   0.02     0.07   0.20   0.03    -0.05  -0.11   0.00
   3   6    -0.11   0.09   0.21     0.09  -0.02  -0.13     0.04   0.07  -0.01
   4   1     0.16   0.04  -0.19     0.27   0.12  -0.28     0.26   0.10  -0.28
   5   6    -0.09   0.09   0.17    -0.03   0.02   0.05     0.23   0.04  -0.29
   6   1     0.09   0.20   0.01    -0.05  -0.09   0.01    -0.13  -0.27   0.00
   7   6     0.04  -0.20  -0.19     0.14  -0.23  -0.34    -0.06   0.23   0.23
   8   1    -0.33  -0.09   0.39    -0.26  -0.09   0.30    -0.08  -0.04   0.08
   9   6     0.20  -0.18  -0.38    -0.20   0.11   0.35    -0.14  -0.43  -0.08
  10   8     0.03   0.06  -0.00    -0.06  -0.02   0.06    -0.01  -0.00   0.01
  11   6     0.11   0.00  -0.14    -0.17  -0.02   0.21     0.09   0.05  -0.09
  12   1    -0.10   0.19   0.26     0.09  -0.17  -0.23     0.05  -0.14  -0.16
  13   1    -0.03   0.02   0.05     0.05  -0.04  -0.09     0.02  -0.00  -0.02
  14   1    -0.07   0.00   0.09     0.04   0.00  -0.07    -0.09  -0.04   0.07
  15   1    -0.07   0.00   0.09     0.05  -0.00  -0.06    -0.07  -0.05   0.08
                     25                     26                     27
                        a                      a                      a 
 Frequencies --  1348.2468              1386.3369              1459.3592
 Red. masses --     9.3885                 3.7244                 9.9654
 Frc consts  --     0.0000                 0.0000                 0.0000
 IR Inten    --   412.1506                11.0307               161.7316
 Raman Activ --     0.0000                 0.0000                 0.0000
 Depolar     --     0.0000                 0.0000                 0.0000
 Atom AN      X      Y      Z        X      Y      Z        X      Y      Z
   1   6    -0.13  -0.09   0.12    -0.03  -0.05   0.00    -0.13   0.04   0.20
   2   6    -0.06   0.13   0.16    -0.00   0.07   0.05     0.27   0.37  -0.13
   3   6    -0.11  -0.02   0.13     0.19  -0.14  -0.35    -0.09  -0.07   0.08
   4   1    -0.19  -0.13   0.18    -0.07  -0.04   0.06     0.02  -0.04  -0.05
   5   6     0.20   0.10  -0.22     0.06   0.02  -0.06    -0.13  -0.24   0.02
   6   1    -0.17  -0.27   0.05    -0.04  -0.07   0.02    -0.09  -0.25  -0.04
   7   6     0.28   0.27  -0.21     0.04  -0.00  -0.06    -0.24  -0.13   0.24
   8   1    -0.15  -0.04   0.18    -0.06  -0.02   0.06    -0.03  -0.07  -0.01
   9   6     0.15   0.22  -0.06     0.03   0.15   0.05     0.28   0.24  -0.22
  10   8    -0.26  -0.27   0.17    -0.05  -0.04   0.04     0.13   0.10  -0.11
  11   6     0.06  -0.14  -0.17     0.01  -0.06  -0.05    -0.13  -0.22   0.03
  12   1    -0.04  -0.05   0.02    -0.01  -0.02   0.01     0.04  -0.20  -0.18
  13   1     0.02  -0.05  -0.06    -0.18   0.28   0.43    -0.00  -0.03  -0.02
  14   1     0.08   0.03  -0.13    -0.12  -0.01   0.45     0.10   0.09   0.04
  15   1     0.11   0.02  -0.10    -0.37   0.10   0.27    -0.00   0.14  -0.04
                     28                     29                     30
                        a                      a                      a 
 Frequencies --  1484.9324              1495.4999              1504.0470
 Red. masses --     2.8276                 1.6047                10.2030
 Frc consts  --     0.0000                 0.0000                 0.0000
 IR Inten    --    40.6446                 1.2417               472.2465
 Raman Activ --     0.0000                 0.0000                 0.0000
 Depolar     --     0.0000                 0.0000                 0.0000
 Atom AN      X      Y      Z        X      Y      Z        X      Y      Z
   1   6     0.01  -0.06  -0.05     0.00   0.00  -0.00     0.09   0.09  -0.06
   2   6     0.09   0.17  -0.02     0.00  -0.00  -0.00     0.06  -0.03  -0.10
   3   6     0.08   0.19   0.02     0.17  -0.08   0.13    -0.04  -0.01   0.04
   4   1     0.03   0.00  -0.04     0.01   0.00  -0.00     0.14   0.04  -0.16
   5   6    -0.08  -0.11   0.04    -0.01  -0.00   0.00    -0.23  -0.11   0.23
   6   1    -0.02  -0.05  -0.01     0.00   0.00  -0.00     0.05   0.07  -0.03
   7   6     0.04   0.13   0.03     0.01   0.01  -0.01     0.32   0.45  -0.15
   8   1     0.02  -0.01  -0.04     0.00   0.00  -0.00     0.15   0.05  -0.17
   9   6     0.09   0.04  -0.10     0.02  -0.02   0.01     0.12  -0.15  -0.26
  10   8    -0.03  -0.05   0.01    -0.00  -0.01   0.01    -0.17  -0.21   0.10
  11   6    -0.09  -0.05   0.09    -0.01   0.00   0.00    -0.24  -0.10   0.26
  12   1     0.01  -0.03  -0.03     0.00   0.00  -0.00     0.04  -0.03  -0.08
  13   1    -0.11   0.19   0.27    -0.55   0.26  -0.41     0.03  -0.03  -0.02
  14   1    -0.38  -0.34  -0.30    -0.34  -0.23   0.18     0.07   0.09   0.16
  15   1     0.12  -0.58   0.06     0.22   0.30  -0.26    -0.10   0.15   0.05
                     31                     32                     33
                        a                      a                      a 
 Frequencies --  1542.8019              1606.0896              2963.3500
 Red. masses --    11.0408                11.4854                 1.9384
 Frc consts  --     0.0000                 0.0000                 0.0000
 IR Inten    --    10.7892               235.1427                97.9403
 Raman Activ --     0.0000                 0.0000                 0.0000
 Depolar     --     0.0000                 0.0000                 0.0000
 Atom AN      X      Y      Z        X      Y      Z        X      Y      Z
   1   6     0.11  -0.45  -0.44    -0.14  -0.12   0.11     0.00  -0.00   0.00
   2   6     0.03   0.37   0.20     0.24   0.38  -0.09     0.00  -0.00  -0.00
   3   6    -0.01   0.01   0.01     0.03   0.01  -0.04    -0.22   0.10  -0.16
   4   1     0.02   0.06   0.01    -0.09  -0.02   0.10    -0.00   0.00  -0.00
   5   6     0.13  -0.06  -0.22    -0.28  -0.23   0.24     0.00  -0.00   0.00
   6   1    -0.07  -0.06   0.05    -0.04  -0.10  -0.02    -0.00   0.00   0.00
   7   6    -0.11   0.16   0.25     0.13   0.11  -0.11    -0.00   0.00  -0.00
   8   1    -0.08  -0.05   0.08     0.05  -0.01  -0.08    -0.00  -0.00  -0.00
   9   6    -0.04  -0.24  -0.10    -0.29  -0.28   0.21    -0.00   0.00  -0.00
  10   8     0.02   0.01  -0.02    -0.01  -0.01   0.01     0.00  -0.00   0.00
  11   6    -0.10   0.16   0.24     0.34   0.20  -0.33     0.00  -0.00   0.00
  12   1    -0.05   0.11   0.14    -0.03  -0.04   0.02    -0.00  -0.00  -0.00
  13   1     0.03  -0.04  -0.07     0.02  -0.02  -0.04    -0.04   0.02  -0.03
  14   1     0.04   0.05   0.06     0.00   0.01   0.03     0.38  -0.55   0.10
  15   1    -0.03   0.08   0.01    -0.02   0.02   0.01     0.43   0.17   0.50
                     34                     35                     36
                        a                      a                      a 
 Frequencies --  2979.3932              2986.5624              2997.7818
 Red. masses --     1.5618                 1.7409                 1.8093
 Frc consts  --     0.0000                 0.0000                 0.0000
 IR Inten    --   137.5304               170.5033               525.4587
 Raman Activ --     0.0000                 0.0000                 0.0000
 Depolar     --     0.0000                 0.0000                 0.0000
 Atom AN      X      Y      Z        X      Y      Z        X      Y      Z
   1   6     0.00  -0.00  -0.00     0.00  -0.00  -0.01     0.01   0.01  -0.01
   2   6    -0.00   0.00   0.00     0.07  -0.04  -0.12     0.05  -0.02  -0.08
   3   6    -0.03  -0.20  -0.08    -0.01  -0.03  -0.01     0.00  -0.01  -0.01
   4   1    -0.01  -0.10  -0.05     0.00  -0.00  -0.00     0.10   0.78   0.36
   5   6    -0.01  -0.03  -0.01     0.03   0.19   0.08    -0.01  -0.06  -0.03
   6   1     0.01  -0.01  -0.02    -0.27   0.14   0.45    -0.17   0.08   0.28
   7   6     0.00   0.00  -0.00     0.01   0.01  -0.00    -0.00   0.00   0.00
   8   1     0.02   0.11   0.05    -0.10  -0.71  -0.32     0.03   0.22   0.10
   9   6     0.00  -0.01  -0.01    -0.00  -0.00   0.00     0.00  -0.01  -0.01
  10   8    -0.00  -0.00   0.00    -0.00  -0.00  -0.00    -0.00  -0.00  -0.00
  11   6     0.00   0.03   0.02    -0.00  -0.00   0.00    -0.03  -0.22  -0.10
  12   1     0.00   0.00  -0.00     0.01   0.01  -0.00    -0.05  -0.05   0.03
  13   1     0.07   0.08  -0.05     0.02   0.02  -0.01    -0.01  -0.01   0.00
  14   1    -0.41   0.51  -0.13    -0.05   0.06  -0.01    -0.04   0.04  -0.01
  15   1     0.44   0.11   0.50     0.05   0.01   0.06     0.04   0.01   0.04
                     37                     38                     39
                        a                      a                      a 
 Frequencies --  3007.7706              3009.8491              3049.1392
 Red. masses --     1.7669                 1.6364                 1.8744
 Frc consts  --     0.0000                 0.0000                 0.0000
 IR Inten    --   142.4158                71.2907               277.7945
 Raman Activ --     0.0000                 0.0000                 0.0000
 Depolar     --     0.0000                 0.0000                 0.0000
 Atom AN      X      Y      Z        X      Y      Z        X      Y      Z
   1   6    -0.04  -0.04   0.03     0.03   0.04  -0.02     0.16   0.17  -0.11
   2   6     0.08  -0.04  -0.13    -0.05   0.03   0.08     0.04  -0.02  -0.07
   3   6     0.08   0.11  -0.03     0.11   0.13  -0.07    -0.00   0.00   0.00
   4   1    -0.04  -0.28  -0.13     0.02   0.15   0.07    -0.02  -0.19  -0.09
   5   6    -0.01  -0.10  -0.05     0.01   0.07   0.03    -0.01  -0.04  -0.02
   6   1    -0.28   0.14   0.48     0.18  -0.09  -0.30    -0.12   0.06   0.20
   7   6    -0.01  -0.01   0.00     0.00   0.01  -0.00    -0.00  -0.01   0.00
   8   1     0.05   0.34   0.16    -0.03  -0.24  -0.11     0.02   0.14   0.06
   9   6     0.00   0.01   0.00     0.01  -0.00  -0.01    -0.00  -0.00   0.00
  10   8     0.00   0.00  -0.00    -0.00  -0.00   0.00     0.00   0.00  -0.00
  11   6     0.01   0.07   0.04    -0.00  -0.04  -0.02     0.01   0.06   0.03
  12   1     0.17   0.19  -0.12    -0.13  -0.14   0.09    -0.55  -0.59   0.37
  13   1    -0.30  -0.41   0.14    -0.45  -0.63   0.20     0.01   0.02  -0.01
  14   1     0.01   0.02  -0.01    -0.05   0.11  -0.03     0.02  -0.02   0.00
  15   1     0.01   0.02  -0.00     0.09   0.04   0.08    -0.02  -0.01  -0.02
