15
 energy: -22.904480236840 gnorm: 0.000294429515 xtb: 6.7.1 (edcfbbe)
C           -5.26103328823922       -6.50095889482324        2.93387606691835
C           -5.08371960624166       -5.24972103920360        3.50083604118972
C           -2.94463760327215       -6.28632931770776       -0.06585814266691
H           -4.68470862206422       -7.78794854989075        1.32313745613839
C           -4.22751955435108       -4.33618518198608        2.93044765650489
H           -5.62249863117734       -4.98229729753488        4.40318278274609
C           -3.49087254421915       -4.61845800789990        1.75052715589356
H           -4.08952037255152       -3.35578018741831        3.37603596674023
C           -3.69263979147556       -5.91741799687376        1.18579621526976
O           -2.69295665619845       -3.75379976370530        1.22735194192114
C           -4.55659509114899       -6.81174234581735        1.77925862137688
H           -5.93313658455944       -7.22058137179020        3.37980300609047
H           -2.32769173793626       -5.43558557036819       -0.35393878173065
H           -2.30087910785378       -7.15078308741841        0.10071630933663
H           -3.63137789854707       -6.51828499456338       -0.88072100387994
