15
 energy: -22.901076615588 gnorm: 0.055723250624 xtb: 6.7.1 (edcfbbe)
C           -5.25717000000000       -6.50659100000000        2.92514700000000
C           -5.09435300000000       -5.26126200000000        3.50793700000000
C           -2.94598000000000       -6.29266600000000       -0.06802900000000
H           -4.66742600000000       -7.77936500000000        1.30509000000000
C           -4.22294300000000       -4.32969000000000        2.92832400000000
H           -5.63387400000000       -4.99633000000000        4.40978700000000
C           -3.47459100000000       -4.57474600000000        1.75637300000000
H           -4.11300800000000       -3.35661500000000        3.40712500000000
C           -3.66814200000000       -5.86195600000000        1.18820400000000
O           -2.69616100000000       -3.68220700000000        1.27754700000000
C           -4.54657200000000       -6.80559800000000        1.76954400000000
H           -5.92758100000000       -7.23638500000000        3.36261700000000
H           -2.28091200000000       -5.52569900000000       -0.47428200000000
H           -2.33543600000000       -7.17755800000000        0.14183700000000
H           -3.67528100000000       -6.53956900000000       -0.84713100000000
15
 energy: -22.903859190703 gnorm: 0.019217122610 xtb: 6.7.1 (edcfbbe)
C           -5.25277230531215       -6.50004046981381        2.92338708154606
C           -5.08790175072529       -5.25427004557159        3.50378207874622
C           -2.95044809983700       -6.29888374420164       -0.06594367581518
H           -4.66175258709808       -7.76875514935172        1.30426476924378
C           -4.22935848303324       -4.33357156672870        2.93458125566601
H           -5.62666942773193       -4.98911983210970        4.40481582906114
C           -3.48300246571419       -4.59286181345752        1.75606079421311
H           -4.11056823887619       -3.35885146085868        3.40255058701475
C           -3.67790599991354       -5.88417676574155        1.18709536891005
O           -2.69465905814934       -3.70979249341700        1.25726413012937
C           -4.54384266972878       -6.79841716445398        1.77049797245677
H           -5.92275993873066       -7.22915134701976        3.36051886750087
H           -2.30648241460047       -5.48806390872281       -0.41520782659840
H           -2.32959615558697       -7.17734078408195        0.12490526436648
H           -3.66171040496217       -6.54294045446957       -0.85848249644105
15
 energy: -22.904392239866 gnorm: 0.005897846377 xtb: 6.7.1 (edcfbbe)
C           -5.25719928928014       -6.50021730037447        2.92920375870249
C           -5.08456989720581       -5.25051563878554        3.50168166986738
C           -2.94789543670703       -6.29266710498877       -0.06535241758925
H           -4.67095232303500       -7.77476708114475        1.31293903266028
C           -4.23039584173137       -4.33622867150510        2.93431221568340
H           -5.62295008735196       -4.98380480291496        4.40325530285853
C           -3.48896690500427       -4.61040465997184        1.75267760579443
H           -4.09885255496838       -3.35756767800548        3.38767124542735
C           -3.68811379934578       -5.90610671991593        1.18677837081477
O           -2.69275537988502       -3.73895380586847        1.23585108400175
C           -4.55012825911167       -6.80264755959073        1.77630056742969
H           -5.92802496670006       -7.22511467445541        3.37008407164187
H           -2.31996998819874       -5.45269831790886       -0.37430592427107
H           -2.31482348176360       -7.16366889843571        0.11000977682634
H           -3.64383178971117       -6.53087408613397       -0.87101635984796
15
 energy: -22.904463609392 gnorm: 0.003428281942 xtb: 6.7.1 (edcfbbe)
C           -5.26013477950435       -6.50124144268359        2.93251462291032
C           -5.08397700807228       -5.24995367963229        3.50114329247507
C           -2.94592961394544       -6.28874431980430       -0.06554590830859
H           -4.67871579542903       -7.78219322140197        1.31878783941728
C           -4.22901003273510       -4.33633499784597        2.93235708682616
H           -5.62257511001324       -4.98275628463650        4.40325380015773
C           -3.49018646208276       -4.61573558791307        1.75110993381243
H           -4.09269429750478       -3.35622315214385        3.38010811155151
C           -3.69110497164888       -5.91331976456167        1.18629310820559
O           -2.69243941820341       -3.74854595736849        1.22953995175326
C           -4.55429812070795       -6.80766875675293        1.77878621356187
H           -5.93158349727187       -7.22317416866221        3.37608982224720
H           -2.32451709344660       -5.44164316163961       -0.36138833591966
H           -2.30625310912011       -7.15578745186186        0.10416482533904
H           -3.63601069031420       -6.52291505309167       -0.87712436402921
15
 energy: -22.904479360746 gnorm: 0.001036144544 xtb: 6.7.1 (edcfbbe)
C           -5.26123368257021       -6.50137879765422        2.93392994556648
C           -5.08368886526378       -5.24978485751703        3.50082374379316
C           -2.94480651019783       -6.28662350843871       -0.06574683578100
H           -4.68371048145495       -7.78714786617497        1.32235637462006
C           -4.22779770265253       -4.33621839909624        2.93080167943750
H           -5.62251745199590       -4.98242297927971        4.40320636785729
C           -3.49077631675950       -4.61813063935906        1.75044480161708
H           -4.08956635412891       -3.35569705811039        3.37619934642747
C           -3.69241360789647       -5.91682236296941        1.18585826756288
O           -2.69279486475403       -3.75306862376421        1.22742491230853
C           -4.55643883650379       -6.81109582351962        1.77951405828683
H           -5.93315965518077       -7.22132462160806        3.37938922181462
H           -2.32715009807015       -5.43650876183582       -0.35490260475679
H           -2.30148203314888       -7.15139666095885        0.10115037047157
H           -3.63189353942230       -6.51861603971368       -0.88035964922568
15
 energy: -22.904480236799 gnorm: 0.000295235728 xtb: 6.7.1 (edcfbbe)
C           -5.26100949035332       -6.50099156197778        2.93384635618243
C           -5.08370433888902       -5.24975376749784        3.50080913319178
C           -2.94460445818223       -6.28634462073637       -0.06587939301716
H           -4.68467246298923       -7.78797538813109        1.32310751097544
C           -4.22750707924688       -4.33621243173092        2.93042533162527
H           -5.62248791382579       -4.98233442176245        4.40315446078037
C           -3.49085447245296       -4.61847934122044        1.75050690975895
H           -4.08951458623523       -3.35580749231521        3.37601583467809
C           -3.69261294708391       -5.91743940098269        1.18577299774792
O           -2.69294128556202       -3.75381600605305        1.22733599014721
C           -4.55656563564349       -6.81176930935406        1.77923082719561
H           -5.93311057530441       -7.22061833634365        3.37976969329692
H           -2.32766204175126       -5.43559714029695       -0.35395639371334
H           -2.30084201796177       -7.15079531045344        0.10069579739141
H           -3.63134069451848       -6.51830247114406       -0.88074505624090
