 Entering Gaussian System
 *********************************************
 Gaussian 98:
 frequency output generated by the xtb code
 *********************************************
                         Standard orientation:
 --------------------------------------------------------------------
  Center     Atomic     Atomic              Coordinates (Angstroms)
  Number     Number      Type              X           Y           Z
 --------------------------------------------------------------------
    1          1             0       -5.137178   -2.513255   -0.911291
    2          6             0       -4.220626   -2.389008   -2.886473
    3          8             0       -2.957896   -2.239395   -2.468425
    4          1             0       -6.778133   -0.704782   -1.181950
    5          6             0       -5.246042   -1.981610   -1.848808
    6          6             0       -6.120871   -1.002362   -1.983420
    7          1             0       -6.205953   -0.459835   -2.911393
    8          1             0       -4.432042   -1.805992   -3.837460
    9          1             0       -4.449134   -3.475575   -3.168146
 --------------------------------------------------------------------
     1 basis functions        1 primitive gaussians
     1 alpha electrons        1 beta electrons
 
 Harmonic frequencies (cm**-1), IR intensities (km*mol⁻¹),
 Raman scattering activities (A**4/amu), Raman depolarization ratios,
 reduced masses (AMU), force constants (mDyne/A) and normal coordinates:
                      1                      2                      3
                        a                      a                      a 
 Frequencies --    85.3302               315.4130               402.9501
 Red. masses --    10.0086                 7.9082                 7.4019
 Frc consts  --     0.0000                 0.0000                 0.0000
 IR Inten    --    13.5044                36.3063                 8.3486
 Raman Activ --     0.0000                 0.0000                 0.0000
 Depolar     --     0.0000                 0.0000                 0.0000
 Atom AN      X      Y      Z        X      Y      Z        X      Y      Z
   1   1    -0.17  -0.19  -0.07     0.36   0.21   0.00     0.11   0.03   0.14
   2   6    -0.07  -0.32  -0.02    -0.04  -0.13  -0.34    -0.20   0.22  -0.01
   3   8    -0.19   0.47   0.06    -0.30   0.06   0.40    -0.26   0.06   0.03
   4   1     0.13   0.09   0.02     0.27   0.10   0.21     0.08   0.20  -0.18
   5   6    -0.17  -0.34  -0.13     0.23   0.08  -0.25     0.10  -0.24   0.35
   6   6     0.39   0.19   0.06     0.04  -0.03   0.14     0.33  -0.15  -0.26
   7   1     0.24   0.15   0.06    -0.32  -0.16  -0.02     0.18  -0.26  -0.21
   8   1    -0.08  -0.20  -0.06     0.07  -0.04  -0.11    -0.09   0.27   0.13
   9   1     0.13  -0.14   0.09     0.04  -0.04  -0.10    -0.05   0.12  -0.25
                      4                      5                      6
                        a                      a                      a 
 Frequencies --   651.7655               858.3036               901.6451
 Red. masses --     7.5651                 4.5871                 5.9104
 Frc consts  --     0.0000                 0.0000                 0.0000
 IR Inten    --     5.4617                 9.3723                12.8932
 Raman Activ --     0.0000                 0.0000                 0.0000
 Depolar     --     0.0000                 0.0000                 0.0000
 Atom AN      X      Y      Z        X      Y      Z        X      Y      Z
   1   1     0.02   0.19   0.12     0.17   0.17   0.05     0.14  -0.10  -0.02
   2   6     0.14  -0.03   0.08    -0.02   0.10   0.13     0.16  -0.07  -0.45
   3   8     0.34  -0.02  -0.12    -0.06  -0.02  -0.02     0.05  -0.01   0.08
   4   1     0.24   0.35   0.13    -0.40  -0.52  -0.17    -0.39   0.24  -0.29
   5   6    -0.51  -0.29  -0.05    -0.11  -0.17  -0.16    -0.14   0.04   0.24
   6   6    -0.07   0.20   0.07     0.38   0.27   0.10    -0.13   0.13   0.30
   7   1    -0.28  -0.21  -0.11    -0.30  -0.22  -0.10     0.25  -0.27  -0.14
   8   1     0.04   0.12   0.11    -0.03  -0.03  -0.00     0.11  -0.14  -0.18
   9   1     0.13   0.03  -0.14    -0.04   0.00   0.07     0.06  -0.05   0.03
                      7                      8                      9
                        a                      a                      a 
 Frequencies --   943.8893              1017.2357              1071.9756
 Red. masses --     5.5932                 2.1429                13.2175
 Frc consts  --     0.0000                 0.0000                 0.0000
 IR Inten    --    25.7389                18.2956               436.0725
 Raman Activ --     0.0000                 0.0000                 0.0000
 Depolar     --     0.0000                 0.0000                 0.0000
 Atom AN      X      Y      Z        X      Y      Z        X      Y      Z
   1   1     0.15  -0.22  -0.19     0.51   0.47   0.21    -0.09   0.04   0.04
   2   6    -0.06   0.52   0.18     0.02   0.09   0.02     0.73   0.05   0.20
   3   8    -0.02  -0.12  -0.02    -0.00  -0.03  -0.01    -0.59  -0.06  -0.20
   4   1     0.17   0.23   0.03    -0.04  -0.03  -0.02     0.02   0.05   0.01
   5   6    -0.05  -0.12  -0.22    -0.18  -0.19  -0.09    -0.02   0.01   0.02
   6   6     0.05  -0.13   0.05    -0.09  -0.09  -0.04    -0.02   0.00   0.03
   7   1     0.05  -0.20  -0.09     0.43   0.39   0.19    -0.01  -0.01   0.00
   8   1     0.03  -0.27  -0.19    -0.01  -0.05  -0.04     0.06  -0.01  -0.06
   9   1    -0.12  -0.02   0.47     0.02  -0.01   0.06     0.01  -0.06  -0.08
                     10                     11                     12
                        a                      a                      a 
 Frequencies --  1116.2580              1253.5679              1269.6233
 Red. masses --     7.2122                 3.4458                 2.2277
 Frc consts  --     0.0000                 0.0000                 0.0000
 IR Inten    --    22.4889                 7.7726                18.0162
 Raman Activ --     0.0000                 0.0000                 0.0000
 Depolar     --     0.0000                 0.0000                 0.0000
 Atom AN      X      Y      Z        X      Y      Z        X      Y      Z
   1   1     0.25  -0.10  -0.21    -0.43   0.34   0.17     0.39  -0.34  -0.21
   2   6    -0.09  -0.26   0.43    -0.03   0.15  -0.05    -0.01   0.07   0.09
   3   8    -0.02   0.08  -0.09    -0.00  -0.12   0.06    -0.06  -0.13  -0.01
   4   1    -0.15   0.19  -0.13    -0.08   0.10  -0.07    -0.02  -0.02  -0.00
   5   6     0.13   0.12  -0.44     0.15   0.04  -0.29     0.01   0.03   0.13
   6   6    -0.10  -0.01   0.23     0.01  -0.12   0.22    -0.09   0.16  -0.13
   7   1     0.24  -0.18  -0.08     0.16  -0.15  -0.03    -0.13   0.12   0.02
   8   1     0.05   0.22   0.21    -0.49  -0.02   0.05    -0.35  -0.03   0.03
   9   1    -0.08   0.05  -0.21     0.38  -0.04   0.05     0.65  -0.07  -0.10
                     13                     14                     15
                        a                      a                      a 
 Frequencies --  1352.3571              1405.1826              1488.1883
 Red. masses --     2.6186                 2.3327                 1.8926
 Frc consts  --     0.0000                 0.0000                 0.0000
 IR Inten    --   124.4335                 4.0079               116.6849
 Raman Activ --     0.0000                 0.0000                 0.0000
 Depolar     --     0.0000                 0.0000                 0.0000
 Atom AN      X      Y      Z        X      Y      Z        X      Y      Z
   1   1     0.14  -0.11  -0.07     0.07  -0.04  -0.06     0.03  -0.01  -0.01
   2   6     0.27  -0.08  -0.15     0.11  -0.04  -0.06     0.03  -0.09  -0.21
   3   8     0.08   0.04   0.13     0.04   0.00   0.04    -0.13  -0.02  -0.06
   4   1    -0.06   0.15  -0.09     0.28  -0.46   0.38     0.02  -0.04   0.03
   5   6     0.01  -0.09  -0.03    -0.22   0.19   0.04    -0.03   0.02  -0.01
   6   6    -0.02   0.03  -0.04    -0.08   0.09  -0.04     0.01  -0.00  -0.01
   7   1    -0.16   0.13   0.06     0.45  -0.35  -0.24     0.03  -0.02  -0.01
   8   1    -0.66   0.09   0.18    -0.23  -0.00   0.01     0.18   0.54   0.37
   9   1    -0.51   0.04   0.14    -0.08   0.02  -0.04     0.19  -0.11   0.64
                     16                     17                     18
                        a                      a                      a 
 Frequencies --  1699.2992              2170.4625              2405.8081
 Red. masses --    11.1808                 1.7425                 1.3778
 Frc consts  --     0.0000                 0.0000                 0.0000
 IR Inten    --    14.4277               954.1102               584.7860
 Raman Activ --     0.0000                 0.0000                 0.0000
 Depolar     --     0.0000                 0.0000                 0.0000
 Atom AN      X      Y      Z        X      Y      Z        X      Y      Z
   1   1     0.06   0.01  -0.12    -0.01   0.00   0.02    -0.01   0.01   0.01
   2   6     0.03  -0.06  -0.02     0.02  -0.23   0.07    -0.04  -0.02   0.14
   3   8     0.02  -0.00   0.00    -0.04  -0.01  -0.01     0.09   0.01   0.04
   4   1     0.02   0.05  -0.14     0.00   0.00   0.01     0.00   0.00  -0.01
   5   6    -0.49   0.50   0.01     0.02  -0.05   0.01    -0.00  -0.01   0.02
   6   6     0.44  -0.48   0.06    -0.01   0.01  -0.01    -0.00   0.00  -0.00
   7   1    -0.09   0.03   0.14    -0.01   0.00  -0.00    -0.00   0.00   0.01
   8   1    -0.05   0.01  -0.01    -0.07   0.16  -0.43    -0.12   0.52  -0.68
   9   1     0.05   0.04  -0.04     0.12   0.81   0.21    -0.07  -0.47  -0.01
                     19                     20                     21
                        a                      a                      a 
 Frequencies --  3032.7750              3072.1158              3092.3955
 Red. masses --     1.7861                 1.5762                 2.0374
 Frc consts  --     0.0000                 0.0000                 0.0000
 IR Inten    --   135.0475                67.9415               132.3160
 Raman Activ --     0.0000                 0.0000                 0.0000
 Depolar     --     0.0000                 0.0000                 0.0000
 Atom AN      X      Y      Z        X      Y      Z        X      Y      Z
   1   1    -0.10   0.47  -0.81    -0.02   0.09  -0.15    -0.00   0.03  -0.05
   2   6     0.00  -0.00   0.00     0.01  -0.00  -0.00     0.00  -0.00  -0.00
   3   8    -0.00   0.00  -0.00    -0.00  -0.00  -0.00    -0.00   0.00  -0.00
   4   1    -0.12   0.05   0.14     0.51  -0.22  -0.64     0.27  -0.13  -0.30
   5   6     0.04  -0.14   0.22     0.01  -0.03   0.05    -0.00  -0.01   0.03
   6   6     0.02  -0.01  -0.02    -0.16   0.13   0.07    -0.05  -0.09   0.29
   7   1     0.01   0.01  -0.03     0.01  -0.21   0.40    -0.07   0.44  -0.73
   8   1    -0.00   0.00   0.01     0.00  -0.00   0.00     0.00  -0.00  -0.00
   9   1     0.00   0.00   0.00    -0.00   0.01   0.00    -0.00   0.00   0.00
