9
 energy: -13.259094585255 gnorm: 0.042682222657 xtb: 6.7.1 (edcfbbe)
H           -5.14562153509839       -2.52278020133592       -0.89995796475081
C           -4.20511022772094       -2.40139104233660       -2.89773986918889
O           -2.92510388047487       -2.22512117620631       -2.45152126743565
H           -6.79352111457673       -0.70218222987493       -1.17278389402067
C           -5.22876966379146       -1.98995818712381       -1.85747680596197
C           -6.12219974556513       -0.99687697148897       -1.98407811706733
H           -6.20717251114880       -0.43697991749469       -2.92178544193582
H           -4.46347057616158       -1.82268259893626       -3.83597802177202
H           -4.45673997227424       -3.47404075683771       -3.17623072252412
9
 energy: -13.261304980121 gnorm: 0.009911722447 xtb: 6.7.1 (edcfbbe)
H           -5.14851106356235       -2.50817187267786       -0.90517058663523
C           -4.22620782754484       -2.39442746463369       -2.89396713721741
O           -2.95677217775819       -2.23238504039846       -2.46760787243390
H           -6.77821671837742       -0.70571770692345       -1.17650253957254
C           -5.24688766348487       -1.98579935497344       -1.85385298309059
C           -6.12025324613566       -1.00199104165211       -1.98034347195070
H           -6.20416038951805       -0.45039324186935       -2.90703684234070
H           -4.43111597552506       -1.81553611446586       -3.84444097302664
H           -4.43558416490569       -3.47759124404099       -3.16862969838958
9
 energy: -13.261397771818 gnorm: 0.004854288097 xtb: 6.7.1 (edcfbbe)
H           -5.14587470924745       -2.51398968222595       -0.91382225028962
C           -4.22541358680123       -2.39307944364619       -2.88965471593458
O           -2.95935876024846       -2.23281875102902       -2.46790288492680
H           -6.77206033313416       -0.70281837389296       -1.17923803287486
C           -5.24738750267389       -1.98390998316839       -1.85339442327838
C           -6.11759929917580       -1.00040965312892       -1.98174984690765
H           -6.20858116439356       -0.45801422450295       -2.90914172548896
H           -4.43255482378700       -1.80965929408868       -3.83686937285738
H           -4.43887904735058       -3.47731367595212       -3.16577885209906
9
 energy: -13.261420854228 gnorm: 0.002552934949 xtb: 6.7.1 (edcfbbe)
H           -5.13947238717442       -2.51367318506298       -0.91439223898875
C           -4.22466347694913       -2.39167502872079       -2.88792656357984
O           -2.96129684721022       -2.23125939238599       -2.46773559726748
H           -6.77500520431464       -0.70501947137745       -1.18174969069124
C           -5.24890682780645       -1.98452029245382       -1.85239173870410
C           -6.12055259176435       -1.00273320070140       -1.98367956055631
H           -6.20206437535787       -0.45348511758957       -2.90670980573794
H           -4.43459434106326       -1.81202816164080       -3.83812042779040
H           -4.44115317517179       -3.47761923170240       -3.16484648134123
9
 energy: -13.261432662166 gnorm: 0.001408251464 xtb: 6.7.1 (edcfbbe)
H           -5.13690026591799       -2.51449435402131       -0.91353918160903
C           -4.22257343826175       -2.38974540028237       -2.88688323277638
O           -2.96008630904829       -2.23560862768466       -2.46800641483901
H           -6.77976970210769       -0.70760713651849       -1.18336133327776
C           -5.24637190328455       -1.98158820747519       -1.84943814794600
C           -6.11835856572273       -0.99969794421969       -1.98234778414182
H           -6.20374831873495       -0.45622621449215       -2.90877561476296
H           -4.43336501270497       -1.81089676047781       -3.83927352649956
H           -4.44653571102921       -3.47614843646352       -3.16592686880476
9
 energy: -13.261436993945 gnorm: 0.000780732150 xtb: 6.7.1 (edcfbbe)
H           -5.13716124963817       -2.51327989432755       -0.91131304551264
C           -4.22060289472730       -2.38902473032805       -2.88649191003824
O           -2.95787559236539       -2.23940587996674       -2.46843931659928
H           -6.77812499442167       -0.70481574148289       -1.18197430334109
C           -5.24602421555872       -1.98163361728339       -1.84882960680299
C           -6.12085795723587       -1.00239026848626       -1.98344322176214
H           -6.20593978831274       -0.45986210270495       -2.91141558743709
H           -4.43201845132303       -1.80600813522625       -3.83747804408306
H           -4.44910408322924       -3.47559271182911       -3.16816706908076
