 Entering Gaussian System
 *********************************************
 Gaussian 98:
 frequency output generated by the xtb code
 *********************************************
                         Standard orientation:
 --------------------------------------------------------------------
  Center     Atomic     Atomic              Coordinates (Angstroms)
  Number     Number      Type              X           Y           Z
 --------------------------------------------------------------------
    1          8             0       -3.010456   -4.539494    2.753294
    2          8             0       -4.159679   -5.193488    2.577345
 --------------------------------------------------------------------
     1 basis functions        1 primitive gaussians
     1 alpha electrons        1 beta electrons
 
 Harmonic frequencies (cm**-1), IR intensities (km*mol⁻¹),
 Raman scattering activities (A**4/amu), Raman depolarization ratios,
 reduced masses (AMU), force constants (mDyne/A) and normal coordinates:
                      1
                        a 
 Frequencies --  1339.8438
 Red. masses --    15.9994
 Frc consts  --     0.0000
 IR Inten    --     0.0000
 Raman Activ --     0.0000
 Depolar     --     0.0000
 Atom AN      X      Y      Z        X      Y      Z        X      Y      Z
   1   8    -0.61  -0.35  -0.09
   2   8     0.61   0.35   0.09
