      -----------------------------------------------------------      
     |                   =====================                   |     
     |                           x T B                           |     
     |                   =====================                   |     
     |                         S. Grimme                         |     
     |          Mulliken Center for Theoretical Chemistry        |     
     |                    University of Bonn                     |     
      -----------------------------------------------------------      

   * xtb version 6.7.1 (edcfbbe) compiled by 'albert@albert-system' on 2024-07-22

   xtb is free software: you can redistribute it and/or modify it under
   the terms of the GNU Lesser General Public License as published by
   the Free Software Foundation, either version 3 of the License, or
   (at your option) any later version.
   
   xtb is distributed in the hope that it will be useful,
   but WITHOUT ANY WARRANTY; without even the implied warranty of
   MERCHANTABILITY or FITNESS FOR A PARTICULAR PURPOSE.  See the
   GNU Lesser General Public License for more details.
   
   Cite this work as:
   * C. Bannwarth, E. Caldeweyher, S. Ehlert, A. Hansen, P. Pracht,
     J. Seibert, S. Spicher, S. Grimme, WIREs Comput. Mol. Sci., 2020, 11,
     e01493. DOI: 10.1002/wcms.1493
   
   for GFN2-xTB:
   * C. Bannwarth, S. Ehlert and S. Grimme., J. Chem. Theory Comput., 2019,
     15, 1652-1671. DOI: 10.1021/acs.jctc.8b01176
   for GFN1-xTB:
   * S. Grimme, C. Bannwarth, P. Shushkov, J. Chem. Theory Comput., 2017,
     13, 1989-2009. DOI: 10.1021/acs.jctc.7b00118
   for GFN0-xTB:
   * P. Pracht, E. Caldeweyher, S. Ehlert, S. Grimme, ChemRxiv, 2019, preprint.
     DOI: 10.26434/chemrxiv.8326202.v1
   for GFN-FF:
   * S. Spicher and S. Grimme, Angew. Chem. Int. Ed., 2020, 59, 15665-15673.
     DOI: 10.1002/anie.202004239
   
   for ALPB and GBSA implicit solvation:
   * S. Ehlert, M. Stahn, S. Spicher, S. Grimme, J. Chem. Theory Comput.,
     2021, 17, 4250-4261. DOI: 10.1021/acs.jctc.1c00471
   
   for ddCOSMO and CPCM-X implicit solvation:
   * M. Stahn, S. Ehlert, S. Grimme, J. Phys. Chem. A,
     2023, XX, XXXX-XXXX. DOI: 10.1021/acs.jpca.3c04382
   
   for DFT-D4:
   * E. Caldeweyher, C. Bannwarth and S. Grimme, J. Chem. Phys., 2017,
     147, 034112. DOI: 10.1063/1.4993215
   * E. Caldeweyher, S. Ehlert, A. Hansen, H. Neugebauer, S. Spicher,
     C. Bannwarth and S. Grimme, J. Chem. Phys., 2019, 150, 154122.
     DOI: 10.1063/1.5090222
   * E. Caldeweyher, J.-M. Mewes, S. Ehlert and S. Grimme, Phys. Chem. Chem. Phys.
     2020, 22, 8499-8512. DOI: 10.1039/D0CP00502A
   
   for sTDA-xTB:
   * S. Grimme and C. Bannwarth, J. Chem. Phys., 2016, 145, 054103.
     DOI: 10.1063/1.4959605
   
   in the mass-spec context:
   * V. Asgeirsson, C. Bauer and S. Grimme, Chem. Sci., 2017, 8, 4879.
     DOI: 10.1039/c7sc00601b
   * J. Koopman and S. Grimme, ACS Omega 2019, 4, 12, 15120-15133.
     DOI: 10.1021/acsomega.9b02011
   
   for metadynamics refer to:
   * S. Grimme, J. Chem. Theory Comput., 2019, 155, 2847-2862
     DOI: 10.1021/acs.jctc.9b00143
   
   for SPH calculations refer to:
   * S. Spicher and S. Grimme, J. Chem. Theory Comput., 2021, 17, 1701-1714
     DOI: 10.1021/acs.jctc.0c01306
   
   for ONIOM refer to:
   * C. Plett, A. Katbashev, S. Ehlert, S. Grimme, M. Bursch,
     Phys. Chem. Chem. Phys., 2023, 25, 17860-17868. DOI: 10.1039/D3CP02178E
   
   for DIPRO refer to:
   * J. Kohn, N. Gildemeister, S. Grimme, D. Fazzi, A. Hansen,
     J. Chem. Phys., 2023, just accepted.
   
   for PTB refer to:
   * S. Grimme, M. Mueller, A. Hansen, J. Chem. Phys., 2023, 158, 124111.
     DOI: 10.1063/5.0137838
   
   with help from (in alphabetical order)
   P. Atkinson, C. Bannwarth, F. Bohle, G. Brandenburg, E. Caldeweyher
   M. Checinski, S. Dohm, S. Ehlert, S. Ehrlich, I. Gerasimov, C. Hölzer
   A. Katbashev, J. Kohn, J. Koopman, C. Lavigne, S. Lehtola, F. März, M. Müller,
   F. Musil, H. Neugebauer, J. Pisarek, C. Plett, P. Pracht, F. Pultar,
   J. Seibert, P. Shushkov, S. Spicher, M. Stahn, M. Steiner, T. Strunk,
   J. Stückrath, T. Rose, and J. Unsleber
   
 * started run on 2025/10/18 at 05:02:52.464     
   ID    Z sym.   atoms
    1    8 O      1, 2

           -------------------------------------------------
          |                Calculation Setup                |
           -------------------------------------------------

          program call               : xtb xyz.xyz --alpb water --charge -1 --ohess
          hostname                   : m003
          coordinate file            : xyz.xyz
          omp threads                :                     2


           -------------------------------------------------
          |                 G F N 2 - x T B                 |
           -------------------------------------------------

        Reference                      10.1021/acs.jctc.8b01176
      * Hamiltonian:
        H0-scaling (s, p, d)           1.850000    2.230000    2.230000
        zeta-weighting                 0.500000
      * Dispersion:
        s8                             2.700000
        a1                             0.520000
        a2                             5.000000
        s9                             5.000000
      * Repulsion:
        kExp                           1.500000    1.000000
        rExp                           1.000000
      * Coulomb:
        alpha                          2.000000
        third order                    shell-resolved
        anisotropic                    true
        a3                             3.000000
        a5                             4.000000
        cn-shift                       1.200000
        cn-exp                         4.000000
        max-rad                        5.000000

      * Solvation model:               ALPB
        Solvent                        water
        Parameter file                 internal GFN2-xTB/ALPB
        Dielectric constant                8.0200E+01
        Reference state                gsolv [1 M gas/solution]
        Free energy shift                  1.0808E-03 Eh       6.7819E-01 kcal/mol
        Temperature                        2.9815E+02 K
        Density                            1.0000E+00 kg/L
        Solvent mass                       1.8000E+01 g/mol
        Interaction kernel             P16
        Born radius scaling (c1)           1.4744E+00
        Born radii integrator          GBOBC
        Born offset                        0.0000E+00 a0       0.0000E+00 AA
        H-bond correction              true
        Ion screening                  false
        Surface tension                    1.0000E-05 Eh       1.5569E+01 dyn/cm
        Grid points                               230 per atom

          ...................................................
          :                      SETUP                      :
          :.................................................:
          :  # basis functions                   8          :
          :  # atomic orbitals                   8          :
          :  # shells                            4          :
          :  # electrons                        13          :
          :  max. iterations                   250          :
          :  Hamiltonian                  GFN2-xTB          :
          :  restarted?                      false          :
          :  GBSA solvation                   true          :
          :  PC potential                    false          :
          :  electronic temp.          300.0000000     K    :
          :  accuracy                    1.0000000          :
          :  -> integral cutoff          0.2500000E+02      :
          :  -> integral neglect         0.1000000E-07      :
          :  -> SCF convergence          0.1000000E-05 Eh   :
          :  -> wf. convergence          0.1000000E-03 e    :
          :  Broyden damping             0.4000000          :
          :  net charge                         -1          :
          :  unpaired electrons                  0          :
          ...................................................

 iter      E             dE          RMSdq      gap      omega  full diag
   1     -8.2938835 -0.829388E+01  0.626E+00   11.96       0.0  T
   2     -8.2938924 -0.890549E-05  0.375E+00   11.95       1.0  T
   3     -8.2938949 -0.252943E-05  0.282E-02   11.93       2.5  T
   4     -8.2938949 -0.767606E-09  0.133E-02   11.93       5.3  T
   5     -8.2938949 -0.201414E-09  0.199E-05   11.93    3557.8  T
   6     -8.2938949  0.000000E+00  0.113E-07   11.93  100000.0  T

   *** convergence criteria satisfied after 6 iterations ***

         #    Occupation            Energy/Eh            Energy/eV
      -------------------------------------------------------------
         1        2.0000           -0.6641671             -18.0729
         2        2.0000           -0.6229238             -16.9506
         3        2.0000           -0.5093321             -13.8596
         4        2.0000           -0.4946849             -13.4611
         5        2.0000           -0.4946849             -13.4611
         6        1.5000           -0.3301185              -8.9830
         7        1.5000           -0.3301185              -8.9830 (HOMO)
         8                          0.1084359               2.9507 (LUMO)
      -------------------------------------------------------------
                  HL-Gap            0.4385545 Eh           11.9337 eV
             Fermi-level           -0.2204799 Eh           -5.9996 eV

 SCC (total)                   0 d,  0 h,  0 min,  0.024 sec
 SCC setup                      ...        0 min,  0.000 sec (  0.721%)
 Dispersion                     ...        0 min,  0.000 sec (  0.120%)
 classical contributions        ...        0 min,  0.000 sec (  0.087%)
 integral evaluation            ...        0 min,  0.000 sec (  0.608%)
 iterations                     ...        0 min,  0.023 sec ( 97.382%)
 molecular gradient             ...        0 min,  0.000 sec (  0.730%)
 printout                       ...        0 min,  0.000 sec (  0.258%)

         :::::::::::::::::::::::::::::::::::::::::::::::::::::
         ::                     SUMMARY                     ::
         :::::::::::::::::::::::::::::::::::::::::::::::::::::
         :: total energy              -8.289971986333 Eh    ::
         :: total w/o Gsasa/hb        -8.295099721871 Eh    ::
         :: gradient norm              0.087135934171 Eh/a0 ::
         :: HOMO-LUMO gap             11.933674044825 eV    ::
         ::.................................................::
         :: SCC energy                -8.293894887384 Eh    ::
         :: -> isotropic ES            0.222006275156 Eh    ::
         :: -> anisotropic ES         -0.017660399269 Eh    ::
         :: -> anisotropic XC         -0.009680804696 Eh    ::
         :: -> dispersion             -0.000306033726 Eh    ::
         :: -> Gsolv                  -0.125957427315 Eh    ::
         ::    -> Gelec               -0.131085162854 Eh    ::
         ::    -> Gsasa                0.006549594082 Eh    ::
         ::    -> Ghb                 -0.002502618241 Eh    ::
         ::    -> Gshift               0.001080759698 Eh    ::
         :: repulsion energy           0.003922901052 Eh    ::
         :: add. restraining           0.000000000000 Eh    ::
         :: total charge              -1.000000000000 e     ::
         :::::::::::::::::::::::::::::::::::::::::::::::::::::

      ----------------------------------------------------------- 
     |                   =====================                   |
     |                        A N C O P T                        |
     |                   =====================                   |
     |               Approximate Normal Coordinate               |
     |                Rational Function Optimizer                |
      ----------------------------------------------------------- 
      ----------------------------------------------------------- 
     |                   =====================                   |
     |                        A N C O P T                        |
     |                   =====================                   |
     |               Approximate Normal Coordinate               |
     |                Rational Function Optimizer                |
      ----------------------------------------------------------- 

          ...................................................
          :                      SETUP                      :
          :.................................................:
          :   optimization level            normal          :
          :   max. optcycles                   200          :
          :   ANC micro-cycles                  20          :
          :   degrees of freedom                 1          :
          :.................................................:
          :   RF solver                   davidson          :
          :   write xtbopt.log                true          :
          :   linear (good luck)              true          :
          :   energy convergence         0.5000000E-05 Eh   :
          :   grad. convergence          0.1000000E-02 Eh/α :
          :   maxmium RF displ.          1.0000000          :
          :   Hlow (freq-cutoff)         0.1000000E-01      :
          :   Hmax (freq-cutoff)         5.0000000          :
          :   S6 in model hess.         20.0000000          :
          ...................................................

generating ANC from exact Hessian ...
Using Lindh-Hessian (1995)
 Shifting diagonal of input Hessian by   0.000000000000000E+000
 Lowest  eigenvalues of input Hessian
    0.000000    0.000000    0.000000    0.000000    0.000000    1.552494
 Highest eigenvalues
    0.000000    0.000000    0.000000    0.000000    0.000000    1.552494
 

........................................................................
.............................. CYCLE    1 ..............................
........................................................................

 iter      E             dE          RMSdq      gap      omega  full diag
   1     -8.2938949 -0.829389E+01  0.493E-08   11.93       0.0  T
   2     -8.2938949 -0.177636E-14  0.426E-08   11.93  100000.0  T
   3     -8.2938949 -0.355271E-14  0.135E-08   11.93  100000.0  T
     SCC iter.                  ...        0 min,  0.000 sec
     gradient                   ...        0 min,  0.000 sec
 * total energy  :    -8.2899720 Eh     change        0.7105427E-14 Eh
   gradient norm :     0.0871359 Eh/α   predicted     0.0000000E+00 (-100.00%)
   displ. norm   :     0.0559507 α      lambda       -0.4875315E-02
   maximum displ.:     0.0559507 α      in ANC's #1, #1, #1, ...

........................................................................
.............................. CYCLE    2 ..............................
........................................................................

 iter      E             dE          RMSdq      gap      omega  full diag
   1     -8.2952619 -0.829526E+01  0.529E-01   10.42       0.0  T
   2     -8.2952620 -0.943779E-07  0.317E-01   10.42       1.0  T
   3     -8.2952621 -0.547306E-07  0.415E-03   10.42      17.0  T
   4     -8.2952621 -0.225118E-10  0.148E-03   10.42      47.9  T
   5     -8.2952621 -0.320810E-11  0.570E-09   10.42  100000.0  T
   6     -8.2952621 -0.177636E-14  0.367E-09   10.42  100000.0  T
     SCC iter.                  ...        0 min,  0.000 sec
     gradient                   ...        0 min,  0.000 sec
 * total energy  :    -8.2927241 Eh     change       -0.2752127E-02 Eh
   gradient norm :     0.0141686 Eh/α   predicted    -0.2445288E-02 ( -11.15%)
   displ. norm   :     0.0108631 α      lambda       -0.1539117E-03
   maximum displ.:     0.0108631 α      in ANC's #1, #1, #1, ...

........................................................................
.............................. CYCLE    3 ..............................
........................................................................

 iter      E             dE          RMSdq      gap      omega  full diag
   1     -8.2951418 -0.829514E+01  0.970E-02   10.16       0.0  T
   2     -8.2951418 -0.354034E-08  0.582E-02   10.16       1.2  T
   3     -8.2951418 -0.207937E-08  0.809E-04   10.16      87.4  T
   4     -8.2951418 -0.950351E-12  0.226E-04   10.16     312.2  T
     SCC iter.                  ...        0 min,  0.000 sec
     gradient                   ...        0 min,  0.000 sec
 * total energy  :    -8.2928111 Eh     change       -0.8695971E-04 Eh
   gradient norm :     0.0019379 Eh/α   predicted    -0.7696675E-04 ( -11.49%)
   displ. norm   :     0.0025817 α      lambda       -0.3333163E-05
   maximum displ.:     0.0025817 α      in ANC's #1, #1, #1, ...

........................................................................
.............................. CYCLE    4 ..............................
........................................................................

 iter      E             dE          RMSdq      gap      omega  full diag
   1     -8.2950964 -0.829510E+01  0.228E-02   10.10       0.0  T
   2     -8.2950964 -0.200908E-09  0.137E-02   10.10       5.2  T
   3     -8.2950964 -0.118266E-09  0.193E-04   10.10     366.3  T
   4     -8.2950964 -0.621725E-13  0.523E-06   10.10   13508.2  T
     SCC iter.                  ...        0 min,  0.000 sec
     gradient                   ...        0 min,  0.000 sec
 * total energy  :    -8.2928124 Eh     change       -0.1354201E-05 Eh
   gradient norm :     0.0008839 Eh/α   predicted    -0.1667691E-05 (  23.15%)
   displ. norm   :     0.0008087 α      lambda       -0.4758302E-06
   maximum displ.:     0.0008087 α      in ANC's #1, #1, #1, ...

   *** GEOMETRY OPTIMIZATION CONVERGED AFTER 4 ITERATIONS ***

------------------------------------------------------------------------
 total energy gain   :        -0.0028404 Eh       -1.7824 kcal/mol
 total RMSD          :         0.0490701 a0        0.0260 Å
 total power (kW/mol):        -1.8643943 (step)-2673.9055 (real)
------------------------------------------------------------------------

 ANCopt (total)                0 d,  0 h,  0 min,  0.003 sec
 optimizer setup                ...        0 min,  0.000 sec (  6.069%)
 model hessian                  ...        0 min,  0.000 sec (  0.783%)
 ANC generation                 ...        0 min,  0.000 sec (  1.575%)
 coordinate transformation      ...        0 min,  0.000 sec (  0.843%)
 single point calculation       ...        0 min,  0.002 sec ( 76.941%)
 optimization log               ...        0 min,  0.000 sec (  3.567%)
 hessian update                 ...        0 min,  0.000 sec (  0.775%)
 rational function              ...        0 min,  0.000 sec (  2.954%)

================
 final structure:
================
2
 xtb: 6.7.1 (edcfbbe)
O           -3.01044196636736       -4.53951403550879        2.75327518196087
O           -4.15966003363264       -5.19351396449121        2.57732081803913
 
 Bond Distances (Angstroems)
 ---------------------------
O1-O2=1.3339         O2-O1=1.3339         
 O  O  Rav=1.3339 sigma=0.0000  Rmin=1.3339  Rmax=1.3339     1
 
 selected bond angles (degree)
 --------------------

 
 selected dihedral angles (degree)
 ---------------------------------

           -------------------------------------------------
          |                Final Singlepoint                |
           -------------------------------------------------

          ...................................................
          :                      SETUP                      :
          :.................................................:
          :  # basis functions                   8          :
          :  # atomic orbitals                   8          :
          :  # shells                            4          :
          :  # electrons                        13          :
          :  max. iterations                   250          :
          :  Hamiltonian                  GFN2-xTB          :
          :  restarted?                      false          :
          :  GBSA solvation                   true          :
          :  PC potential                    false          :
          :  electronic temp.          300.0000000     K    :
          :  accuracy                    1.0000000          :
          :  -> integral cutoff          0.2500000E+02      :
          :  -> integral neglect         0.1000000E-07      :
          :  -> SCF convergence          0.1000000E-05 Eh   :
          :  -> wf. convergence          0.1000000E-03 e    :
          :  Broyden damping             0.4000000          :
          :  net charge                         -1          :
          :  unpaired electrons                  0          :
          ...................................................

 iter      E             dE          RMSdq      gap      omega  full diag
   1     -8.2950964 -0.829510E+01  0.394E-10   10.10       0.0  T
   2     -8.2950964  0.532907E-14  0.344E-10   10.10  100000.0  T
   3     -8.2950964 -0.106581E-13  0.552E-11   10.10  100000.0  T

   *** convergence criteria satisfied after 3 iterations ***

         #    Occupation            Energy/Eh            Energy/eV
      -------------------------------------------------------------
         1        2.0000           -0.6587876             -17.9265
         2        2.0000           -0.6232440             -16.9593
         3        2.0000           -0.5109804             -13.9045
         4        2.0000           -0.4877257             -13.2717
         5        2.0000           -0.4877257             -13.2717
         6        1.5000           -0.3440144              -9.3611
         7        1.5000           -0.3440144              -9.3611 (HOMO)
         8                          0.0270765               0.7368 (LUMO)
      -------------------------------------------------------------
                  HL-Gap            0.3710909 Eh           10.0979 eV
             Fermi-level           -0.2512416 Eh           -6.8366 eV

 SCC (total)                   0 d,  0 h,  0 min,  0.001 sec
 SCC setup                      ...        0 min,  0.000 sec ( 14.213%)
 Dispersion                     ...        0 min,  0.000 sec (  2.291%)
 classical contributions        ...        0 min,  0.000 sec (  1.061%)
 integral evaluation            ...        0 min,  0.000 sec ( 14.383%)
 iterations                     ...        0 min,  0.000 sec ( 31.650%)
 molecular gradient             ...        0 min,  0.000 sec ( 24.905%)
 printout                       ...        0 min,  0.000 sec (  7.297%)

         :::::::::::::::::::::::::::::::::::::::::::::::::::::
         ::                     SUMMARY                     ::
         :::::::::::::::::::::::::::::::::::::::::::::::::::::
         :: total energy              -8.292812427494 Eh    ::
         :: total w/o Gsasa/hb        -8.297975653737 Eh    ::
         :: gradient norm              0.000888783959 Eh/a0 ::
         :: HOMO-LUMO gap             10.097897561328 eV    ::
         ::.................................................::
         :: SCC energy                -8.295096362437 Eh    ::
         :: -> isotropic ES            0.218719984799 Eh    ::
         :: -> anisotropic ES         -0.015788252810 Eh    ::
         :: -> anisotropic XC         -0.006935232244 Eh    ::
         :: -> dispersion             -0.000306034456 Eh    ::
         :: -> Gsolv                  -0.125157421877 Eh    ::
         ::    -> Gelec               -0.130320648120 Eh    ::
         ::    -> Gsasa                0.006607031960 Eh    ::
         ::    -> Ghb                 -0.002524565415 Eh    ::
         ::    -> Gshift               0.001080759698 Eh    ::
         :: repulsion energy           0.002283934942 Eh    ::
         :: add. restraining           0.000000000000 Eh    ::
         :: total charge              -1.000000000000 e     ::
         :::::::::::::::::::::::::::::::::::::::::::::::::::::

           ------------------------------------------------- 
          |                Numerical Hessian                |
           ------------------------------------------------- 
step length          :   0.00500
SCC accuracy         :   0.30000
Hessian scale factor :   1.00000
frozen atoms in %    :   0.00000    0
RMS gradient         :   0.00089

writing file <hessian>.

 vibrational frequencies (cm⁻¹)
eigval :        0.00     0.00     0.00     0.00     0.00  1339.84
           -------------------------------------------------
          |                Property Printout                |
           -------------------------------------------------

    * Orbital Energies and Occupations

         #    Occupation            Energy/Eh            Energy/eV
      -------------------------------------------------------------
         1        2.0000           -0.6587876             -17.9265
         2        2.0000           -0.6232440             -16.9593
         3        2.0000           -0.5109804             -13.9045
         4        2.0000           -0.4877257             -13.2717
         5        2.0000           -0.4877257             -13.2717
         6        1.5000           -0.3440144              -9.3611
         7        1.5000           -0.3440144              -9.3611 (HOMO)
         8                          0.0270765               0.7368 (LUMO)
      -------------------------------------------------------------
                  HL-Gap            0.3710909 Eh           10.0979 eV
             Fermi-level           -0.2512416 Eh           -6.8366 eV

     #   Z          covCN         q      C6AA      α(0)
     1   8 O        0.967    -0.500    23.724     6.533
     2   8 O        0.967    -0.500    23.724     6.533

 Mol. C6AA /au·bohr⁶  :         94.896327
 Mol. C8AA /au·bohr⁸  :       1915.059558
 Mol. α(0) /au        :         13.066279


Wiberg/Mayer (AO) data.
largest (>0.10) Wiberg bond orders for each atom

 ---------------------------------------------------------------------------
     #   Z sym  total        # sym  WBO       # sym  WBO       # sym  WBO
 ---------------------------------------------------------------------------
     1   8 O    1.250 --     2 O    1.250
     2   8 O    1.250 --     1 O    1.250
 ---------------------------------------------------------------------------

Topologies differ in total number of bonds
Writing topology from bond orders to xtbtopo.mol

molecular dipole:
                 x           y           z       tot (Debye)
 q only:        6.775       9.196      -5.037
   full:        6.775       9.196      -5.037      31.730
molecular quadrupole (traceless):
                xx          xy          yy          xz          yz          zz
 q only:        8.098     -94.461     -48.718      50.913      69.325      40.619
  q+dip:        7.318     -95.268     -48.540      50.696      69.202      41.222
   full:        7.641     -94.933     -48.614      50.786      69.253      40.973

           -------------------------------------------------
          |                Geometry Summary                 |
           -------------------------------------------------

      molecular mass/u    :       31.9988098
   center of mass at/Å    :       -3.5850675      -4.8664910       2.6653193
  moments of inertia/u·Å² :       -0.5588592E-15   0.1423450E+02   0.1423450E+02
rotational constants/cm⁻¹ :       -0.3016436E+17   0.1184280E+01   0.1184280E+01

           -------------------------------------------------
          |               Frequency Printout                |
           -------------------------------------------------
 vibrational frequencies (cm⁻¹)
eigval :        0.00     0.00     0.00     0.00     0.00  1339.84
 reduced masses (amu)
   1: 16.00   2: 16.00   3: 16.00   4: 16.00   5: 16.00   6: 16.00
 IR intensities (km·mol⁻¹)
   1:  0.00   2: 30.47   3: 30.47   4: 30.47   5:  0.00   6:  0.00
 Raman intensities (Ä⁴*amu⁻¹)
   1:  0.00   2:  0.00   3:  0.00   4:  0.00   5:  0.00   6:  0.00
 output can be read by thermo (or use thermo option).
 writing <g98.out> molden fake output.
 recommended (thermochemical) frequency scaling factor: 1.0
           -------------------------------------------------
          |             Thermodynamic Functions             |
           -------------------------------------------------

Molecule has the following symmetry elements: (i) (Cinf) (C2) 2*(sigma) 
It seems to be the Dinfh point group
din symmetry found (for desy threshold:  0.10E+00) used in thermo

          ...................................................
          :                      SETUP                      :
          :.................................................:
          :  # frequencies                           1      :
          :  # imaginary freq.                       0      :
          :  linear?                              true      :
          :  only rotor calc.                    false      :
          :  symmetry                              din      :
          :  rotational number                       2      :
          :  scaling factor                  1.0000000      :
          :  rotor cutoff                   50.0000000 cm⁻¹ :
          :  imag. cutoff                  -20.0000000 cm⁻¹ :
          :.................................................:

    mode    ω/cm⁻¹     T·S(HO)/kcal·mol⁻¹    T·S(FR)/kcal·mol⁻¹   T·S(vib)
   ------------------------------------------------------------------------
   ------------------------------------------------------------------------

   temp. (K)  partition function   enthalpy   heat capacity  entropy
                                   cal/mol     cal/K/mol   cal/K/mol   J/K/mol
 298.15  VIB   1.00                    5.970      0.130      0.023
         ROT   87.5                  592.502      1.987     10.873
         INT   87.6                  598.472      2.117     10.896
         TR   0.175E+27             1481.254      4.968     36.305
         TOT                        2079.7255     7.0851    47.2015   197.4909

       T/K    H(0)-H(T)+PV         H(T)/Eh          T*S/Eh         G(T)/Eh
   ------------------------------------------------------------------------
    298.15    0.331425E-02    0.636664E-02    0.224269E-01   -0.160603E-01
   ------------------------------------------------------------------------

         :::::::::::::::::::::::::::::::::::::::::::::::::::::
         ::                  THERMODYNAMIC                  ::
         :::::::::::::::::::::::::::::::::::::::::::::::::::::
         :: total free energy          -8.308872719974 Eh   ::
         ::.................................................::
         :: total energy               -8.292812427078 Eh   ::
         :: zero point energy           0.003052388888 Eh   ::
         :: G(RRHO) w/o ZPVE           -0.019112681785 Eh   ::
         :: G(RRHO) contrib.           -0.016060292897 Eh   ::
         :::::::::::::::::::::::::::::::::::::::::::::::::::::

optimized geometry written to: xtbopt.xyz


           -------------------------------------------------
          | TOTAL ENERGY               -8.292812427078 Eh   |
          | TOTAL ENTHALPY             -8.286445784617 Eh   |
          | TOTAL FREE ENERGY          -8.308872719974 Eh   |
          | GRADIENT NORM               0.000888781512 Eh/α |
          | HOMO-LUMO GAP              10.097897561326 eV   |
           -------------------------------------------------

------------------------------------------------------------------------
 * finished run on 2025/10/18 at 05:02:52.613     
------------------------------------------------------------------------
 total:
 * wall-time:     0 d,  0 h,  0 min,  0.148 sec
 *  cpu-time:     0 d,  0 h,  0 min,  0.165 sec
 * ratio c/w:     1.111 speedup
 SCF:
 * wall-time:     0 d,  0 h,  0 min,  0.024 sec
 *  cpu-time:     0 d,  0 h,  0 min,  0.028 sec
 * ratio c/w:     1.151 speedup
 ANC optimizer:
 * wall-time:     0 d,  0 h,  0 min,  0.038 sec
 *  cpu-time:     0 d,  0 h,  0 min,  0.042 sec
 * ratio c/w:     1.106 speedup
 analytical hessian:
 * wall-time:     0 d,  0 h,  0 min,  0.007 sec
 *  cpu-time:     0 d,  0 h,  0 min,  0.012 sec
 * ratio c/w:     1.644 speedup

