2
 energy: -8.292812427494 gnorm: 0.000888783959 xtb: 6.7.1 (edcfbbe)
O           -3.01045612435141       -4.53949346748098        2.75329361331139
O           -4.15967823012379       -5.19348768625679        2.57734440236401
