2
 energy: -8.289971986333 gnorm: 0.087135934603 xtb: 6.7.1 (edcfbbe)
O           -3.03281300000000       -4.55224500000000        2.74985000000000
O           -4.13728900000000       -5.18078300000000        2.58074600000000
2
 energy: -8.292724113588 gnorm: 0.014168938641 xtb: 6.7.1 (edcfbbe)
O           -3.01477618102320       -4.54198056136481        2.75261157946053
O           -4.15532581897680       -5.19104743863519        2.57798442053947
2
 energy: -8.292811073293 gnorm: 0.001940105884 xtb: 6.7.1 (edcfbbe)
O           -3.01127424251673       -4.53998766932824        2.75314775390814
O           -4.15882775748327       -5.19304033067176        2.57744824609186
2
 energy: -8.292812427494 gnorm: 0.000888793288 xtb: 6.7.1 (edcfbbe)
O           -3.01044196636736       -4.53951403550879        2.75327518196087
O           -4.15966003363264       -5.19351396449121        2.57732081803913
