
                                 *****************
                                 * O   R   C   A *
                                 *****************

                                            #,                                       
                                            ###                                      
                                            ####                                     
                                            #####                                    
                                            ######                                   
                                           ########,                                 
                                     ,,################,,,,,                         
                               ,,#################################,,                 
                          ,,##########################################,,             
                       ,#########################################, ''#####,          
                    ,#############################################,,   '####,        
                  ,##################################################,,,,####,       
                ,###########''''           ''''###############################       
              ,#####''   ,,,,##########,,,,          '''####'''          '####       
            ,##' ,,,,###########################,,,                        '##       
           ' ,,###''''                  '''############,,,                           
         ,,##''                                '''############,,,,        ,,,,,,###''
      ,#''                                            '''#######################'''  
     '                                                          ''''####''''         
             ,#######,   #######,   ,#######,      ##                                
            ,#'     '#,  ##    ##  ,#'     '#,    #''#        ######   ,####,        
            ##       ##  ##   ,#'  ##            #'  '#       #        #'  '#        
            ##       ##  #######   ##           ,######,      #####,   #    #        
            '#,     ,#'  ##    ##  '#,     ,#' ,#      #,         ##   #,  ,#        
             '#######'   ##     ##  '#######'  #'      '#     #####' # '####'        



                  #######################################################
                  #                        -***-                        #
                  #          Department of theory and spectroscopy      #
                  #    Directorship and core code : Frank Neese         #
                  #        Max Planck Institute fuer Kohlenforschung    #
                  #                Kaiser Wilhelm Platz 1               #
                  #                 D-45470 Muelheim/Ruhr               #
                  #                      Germany                        #
                  #                                                     #
                  #                  All rights reserved                #
                  #                        -***-                        #
                  #######################################################


                         Program Version 5.0.4 -  RELEASE  -


 With contributions from (in alphabetic order):
   Daniel Aravena         : Magnetic Suceptibility
   Michael Atanasov       : Ab Initio Ligand Field Theory (pilot matlab implementation)
   Alexander A. Auer      : GIAO ZORA, VPT2 properties, NMR spectrum
   Ute Becker             : Parallelization
   Giovanni Bistoni       : ED, misc. LED, open-shell LED, HFLD
   Martin Brehm           : Molecular dynamics
   Dmytro Bykov           : SCF Hessian
   Vijay G. Chilkuri      : MRCI spin determinant printing, contributions to CSF-ICE
   Dipayan Datta          : RHF DLPNO-CCSD density
   Achintya Kumar Dutta   : EOM-CC, STEOM-CC
   Dmitry Ganyushin       : Spin-Orbit,Spin-Spin,Magnetic field MRCI
   Miquel Garcia          : C-PCM and meta-GGA Hessian, CC/C-PCM, Gaussian charge scheme
   Yang Guo               : DLPNO-NEVPT2, F12-NEVPT2, CIM, IAO-localization
   Andreas Hansen         : Spin unrestricted coupled pair/coupled cluster methods
   Benjamin Helmich-Paris : MC-RPA, TRAH-SCF, COSX integrals
   Lee Huntington         : MR-EOM, pCC
   Robert Izsak           : Overlap fitted RIJCOSX, COSX-SCS-MP3, EOM
   Marcus Kettner         : VPT2
   Christian Kollmar      : KDIIS, OOCD, Brueckner-CCSD(T), CCSD density, CASPT2, CASPT2-K
   Simone Kossmann        : Meta GGA functionals, TD-DFT gradient, OOMP2, MP2 Hessian
   Martin Krupicka        : Initial AUTO-CI
   Lucas Lang             : DCDCAS
   Marvin Lechner         : AUTO-CI (C++ implementation), FIC-MRCC
   Dagmar Lenk            : GEPOL surface, SMD
   Dimitrios Liakos       : Extrapolation schemes; Compound Job, initial MDCI parallelization
   Dimitrios Manganas     : Further ROCIS development; embedding schemes
   Dimitrios Pantazis     : SARC Basis sets
   Anastasios Papadopoulos: AUTO-CI, single reference methods and gradients
   Taras Petrenko         : DFT Hessian,TD-DFT gradient, ASA, ECA, R-Raman, ABS, FL, XAS/XES, NRVS
   Peter Pinski           : DLPNO-MP2, DLPNO-MP2 Gradient
   Christoph Reimann      : Effective Core Potentials
   Marius Retegan         : Local ZFS, SOC
   Christoph Riplinger    : Optimizer, TS searches, QM/MM, DLPNO-CCSD(T), (RO)-DLPNO pert. Triples
   Tobias Risthaus        : Range-separated hybrids, TD-DFT gradient, RPA, STAB
   Michael Roemelt        : Original ROCIS implementation
   Masaaki Saitow         : Open-shell DLPNO-CCSD energy and density
   Barbara Sandhoefer     : DKH picture change effects
   Avijit Sen             : IP-ROCIS
   Kantharuban Sivalingam : CASSCF convergence, NEVPT2, FIC-MRCI
   Bernardo de Souza      : ESD, SOC TD-DFT
   Georgi Stoychev        : AutoAux, RI-MP2 NMR, DLPNO-MP2 response
   Willem Van den Heuvel  : Paramagnetic NMR
   Boris Wezisla          : Elementary symmetry handling
   Frank Wennmohs         : Technical directorship


 We gratefully acknowledge several colleagues who have allowed us to
 interface, adapt or use parts of their codes:
   Stefan Grimme, W. Hujo, H. Kruse, P. Pracht,  : VdW corrections, initial TS optimization,
                  C. Bannwarth, S. Ehlert          DFT functionals, gCP, sTDA/sTD-DF
   Ed Valeev, F. Pavosevic, A. Kumar             : LibInt (2-el integral package), F12 methods
   Garnet Chan, S. Sharma, J. Yang, R. Olivares  : DMRG
   Ulf Ekstrom                                   : XCFun DFT Library
   Mihaly Kallay                                 : mrcc  (arbitrary order and MRCC methods)
   Jiri Pittner, Ondrej Demel                    : Mk-CCSD
   Frank Weinhold                                : gennbo (NPA and NBO analysis)
   Christopher J. Cramer and Donald G. Truhlar   : smd solvation model
   Lars Goerigk                                  : TD-DFT with DH, B97 family of functionals
   V. Asgeirsson, H. Jonsson                     : NEB implementation
   FAccTs GmbH                                   : IRC, NEB, NEB-TS, DLPNO-Multilevel, CI-OPT
                                                   MM, QMMM, 2- and 3-layer-ONIOM, Crystal-QMMM,
                                                   LR-CPCM, SF, NACMEs, symmetry and pop. for TD-DFT,
                                                   nearIR, NL-DFT gradient (VV10), updates on ESD,
                                                   ML-optimized integration grids
   S Lehtola, MJT Oliveira, MAL Marques          : LibXC Library
   Liviu Ungur et al                             : ANISO software


 Your calculation uses the libint2 library for the computation of 2-el integrals
 For citations please refer to: http://libint.valeyev.net

 Your ORCA version has been built with support for libXC version: 5.1.0
 For citations please refer to: https://tddft.org/programs/libxc/

 This ORCA versions uses:
   CBLAS   interface :  Fast vector & matrix operations
   LAPACKE interface :  Fast linear algebra routines
   SCALAPACK package :  Parallel linear algebra routines
   Shared memory     :  Shared parallel matrices
   BLAS/LAPACK       :  OpenBLAS 0.3.15  USE64BITINT DYNAMIC_ARCH NO_AFFINITY Haswell SINGLE_THREADED
        Core in use  :  Haswell
   Copyright (c) 2011-2014, The OpenBLAS Project


Your calculation utilizes the atom-pairwise dispersion correction
with the Becke-Johnson damping scheme (D3BJ)
Cite in your paper:
S.Grimme, S.Ehrlich, L.Goerigk, J Comput Chem, (2011), 32, 1456–1465 
S.Grimme, J.Antony, S.Ehrlich and H.Krieg, J.Chem.Phys., 132, (2010), 154104 
   

================================================================================

----- Orbital basis set information -----
Your calculation utilizes the basis: def2-TZVP
   F. Weigend and R. Ahlrichs, Phys. Chem. Chem. Phys. 7, 3297 (2005).

----- AuxJ basis set information -----
Your calculation utilizes the auxiliary basis: def2/J
   F. Weigend, Phys. Chem. Chem. Phys. 8, 1057 (2006).

================================================================================
                                        WARNINGS
                       Please study these warnings very carefully!
================================================================================


WARNING: Geometry Optimization
  ===> : Switching off AutoStart
         For restart on a previous wavefunction, please use MOREAD

INFO   : the flag for use of the SHARK integral package has been found!

================================================================================
                                       INPUT FILE
================================================================================
NAME = inp.inp
|  1> !OPT PBE D3BJ def2-TZVP CPCM(water)
|  2> 
|  3> *xyz -1 1
|  4> C     -3.231326   -2.264946    0.638379
|  5> C     -2.713820   -3.140046   -0.320772
|  6> C     -3.407338   -4.304333   -0.653235
|  7> C     -4.619591   -4.593222   -0.025502
|  8> C     -5.138547   -3.719227    0.933874
|  9> H     -1.770771   -2.906338   -0.802894
| 10> C     -4.442656   -2.557168    1.263175
| 11> H     -3.005195   -4.982975   -1.397614
| 12> H     -2.686497   -1.359943    0.892871
| 13> H     -6.083006   -3.949829    1.419110
| 14> S     -5.078422   -1.484273    2.440002
| 15> H     -5.166425   -5.495569   -0.276789
| 16> *
| 17> 
| 18>                          ****END OF INPUT****
================================================================================

                       *****************************
                       * Geometry Optimization Run *
                       *****************************

Geometry optimization settings:
Update method            Update   .... BFGS
Choice of coordinates    CoordSys .... Z-matrix Internals
Initial Hessian          InHess   .... Almoef's Model

Convergence Tolerances:
Energy Change            TolE     ....  5.0000e-06 Eh
Max. Gradient            TolMAXG  ....  3.0000e-04 Eh/bohr
RMS Gradient             TolRMSG  ....  1.0000e-04 Eh/bohr
Max. Displacement        TolMAXD  ....  4.0000e-03 bohr
RMS Displacement         TolRMSD  ....  2.0000e-03 bohr
Strict Convergence                ....  False
------------------------------------------------------------------------------
                        ORCA OPTIMIZATION COORDINATE SETUP
------------------------------------------------------------------------------

The optimization will be done in new redundant internal coordinates
Making redundant internal coordinates   ...  (new redundants) done
Evaluating the initial hessian          ...  (Almloef) done
Evaluating the coordinates              ...  done
Calculating the B-matrix                .... done
Calculating the G-matrix                .... done
Diagonalizing the G-matrix              .... done
The first mode is                       ....   24
The number of degrees of freedom        ....   30

    -----------------------------------------------------------------
                    Redundant Internal Coordinates


    -----------------------------------------------------------------
         Definition                    Initial Value    Approx d2E/dq
    -----------------------------------------------------------------
      1. B(C   1,C   0)                  1.3977         0.607356   
      2. B(C   2,C   1)                  1.3954         0.612587   
      3. B(C   3,C   2)                  1.3954         0.612587   
      4. B(C   4,C   3)                  1.3977         0.607355   
      5. B(H   5,C   1)                  1.0846         0.367287   
      6. B(C   6,C   4)                  1.3939         0.615805   
      7. B(C   6,C   0)                  1.3939         0.615806   
      8. B(H   7,C   2)                  1.0846         0.367304   
      9. B(H   8,C   0)                  1.0866         0.364666   
     10. B(H   9,C   4)                  1.0866         0.364666   
     11. B(S  10,C   6)                  1.7147         0.511040   
     12. B(H  11,C   3)                  1.0846         0.367287   
     13. A(C   1,C   0,H   8)          119.7719         0.352431   
     14. A(C   6,C   0,H   8)          120.3551         0.353256   
     15. A(C   1,C   0,C   6)          119.8730         0.431933   
     16. A(C   0,C   1,C   2)          120.1252         0.431527   
     17. A(C   2,C   1,H   5)          120.3991         0.353371   
     18. A(C   0,C   1,H   5)          119.4756         0.352859   
     19. A(C   3,C   2,H   7)          120.0876         0.353374   
     20. A(C   1,C   2,H   7)          120.0876         0.353374   
     21. A(C   1,C   2,C   3)          119.8248         0.432192   
     22. A(C   2,C   3,C   4)          120.1252         0.431527   
     23. A(C   4,C   3,H  11)          119.4756         0.352858   
     24. A(C   2,C   3,H  11)          120.3992         0.353371   
     25. A(C   3,C   4,C   6)          119.8730         0.431933   
     26. A(C   6,C   4,H   9)          120.3551         0.353256   
     27. A(C   3,C   4,H   9)          119.7719         0.352431   
     28. A(C   0,C   6,S  10)          119.9107         0.441942   
     29. A(C   4,C   6,S  10)          119.9106         0.441942   
     30. A(C   0,C   6,C   4)          120.1787         0.433007   
     31. D(H   5,C   1,C   0,C   6)   -180.0000         0.025464   
     32. D(H   5,C   1,C   0,H   8)      0.0001         0.025464   
     33. D(C   2,C   1,C   0,H   8)   -179.9999         0.025464   
     34. D(C   2,C   1,C   0,C   6)      0.0000         0.025464   
     35. D(H   7,C   2,C   1,C   0)   -179.9999         0.025930   
     36. D(C   3,C   2,C   1,C   0)      0.0000         0.025930   
     37. D(C   3,C   2,C   1,H   5)   -180.0000         0.025930   
     38. D(H   7,C   2,C   1,H   5)      0.0001         0.025930   
     39. D(H  11,C   3,C   2,H   7)     -0.0001         0.025930   
     40. D(H  11,C   3,C   2,C   1)    180.0000         0.025930   
     41. D(C   4,C   3,C   2,H   7)    179.9999         0.025930   
     42. D(C   4,C   3,C   2,C   1)     -0.0000         0.025930   
     43. D(H   9,C   4,C   3,C   2)   -179.9999         0.025464   
     44. D(C   6,C   4,C   3,H  11)    180.0000         0.025464   
     45. D(C   6,C   4,C   3,C   2)     -0.0000         0.025464   
     46. D(H   9,C   4,C   3,H  11)      0.0001         0.025464   
     47. D(S  10,C   6,C   4,H   9)     -0.0000         0.026219   
     48. D(C   0,C   6,C   4,H   9)    180.0000         0.026219   
     49. D(C   0,C   6,C   4,C   3)      0.0000         0.026219   
     50. D(S  10,C   6,C   0,H   8)     -0.0002         0.026219   
     51. D(S  10,C   6,C   0,C   1)    179.9999         0.026219   
     52. D(S  10,C   6,C   4,C   3)   -179.9999         0.026219   
     53. D(C   4,C   6,C   0,H   8)    179.9999         0.026219   
     54. D(C   4,C   6,C   0,C   1)     -0.0000         0.026219   
    -----------------------------------------------------------------

Number of atoms                         .... 12
Number of degrees of freedom            .... 54

         *************************************************************
         *                GEOMETRY OPTIMIZATION CYCLE   1            *
         *************************************************************
---------------------------------
CARTESIAN COORDINATES (ANGSTROEM)
---------------------------------
  C     -3.231326   -2.264946    0.638379
  C     -2.713820   -3.140046   -0.320772
  C     -3.407338   -4.304333   -0.653235
  C     -4.619591   -4.593222   -0.025502
  C     -5.138547   -3.719227    0.933874
  H     -1.770771   -2.906338   -0.802894
  C     -4.442656   -2.557168    1.263175
  H     -3.005195   -4.982975   -1.397614
  H     -2.686497   -1.359943    0.892871
  H     -6.083006   -3.949829    1.419110
  S     -5.078422   -1.484273    2.440002
  H     -5.166425   -5.495569   -0.276789

----------------------------
CARTESIAN COORDINATES (A.U.)
----------------------------
  NO LB      ZA    FRAG     MASS         X           Y           Z
   0 C     6.0000    0    12.011   -6.106321   -4.280128    1.206361
   1 C     6.0000    0    12.011   -5.128377   -5.933827   -0.606171
   2 C     6.0000    0    12.011   -6.438936   -8.134011   -1.234435
   3 C     6.0000    0    12.011   -8.729762   -8.679932   -0.048192
   4 C     6.0000    0    12.011   -9.710447   -7.028320    1.764766
   5 H     1.0000    0     1.008   -3.346272   -5.492183   -1.517250
   6 C     6.0000    0    12.011   -8.395403   -4.832347    2.387055
   7 H     1.0000    0     1.008   -5.678996   -9.416458   -2.641108
   8 H     1.0000    0     1.008   -5.076744   -2.569920    1.687282
   9 H     1.0000    0     1.008  -11.495215   -7.464095    2.681729
  10 S    16.0000    0    32.060   -9.596827   -2.804869    4.610936
  11 H     1.0000    0     1.008   -9.763128  -10.385120   -0.523055

--------------------------------
INTERNAL COORDINATES (ANGSTROEM)
--------------------------------
 C      0   0   0     0.000000000000     0.00000000     0.00000000
 C      1   0   0     1.397706375043     0.00000000     0.00000000
 C      2   1   0     1.395372022459   120.12524792     0.00000000
 C      3   2   1     1.395371961027   119.82480480     0.00000000
 C      4   3   2     1.397707014841   120.12524620     0.00000000
 H      2   1   3     1.084620887015   119.47561686   180.00000000
 C      1   2   3     1.393945518232   119.87299717     0.00000000
 H      3   2   1     1.084607787292   120.08761902   180.00008144
 H      1   2   3     1.086570406055   119.77194377   180.00009592
 H      5   4   3     1.086569860055   119.77191644   180.00006314
 S      7   1   2     1.714708102188   119.91065997   179.99993796
 H      4   3   2     1.084620988334   120.39918715   179.99998016

---------------------------
INTERNAL COORDINATES (A.U.)
---------------------------
 C      0   0   0     0.000000000000     0.00000000     0.00000000
 C      1   0   0     2.641282264468     0.00000000     0.00000000
 C      2   1   0     2.636870977384   120.12524792     0.00000000
 C      3   2   1     2.636870861293   119.82480480     0.00000000
 C      4   3   2     2.641283473511   120.12524620     0.00000000
 H      2   1   3     2.049636435589   119.47561686   180.00000000
 C      1   2   3     2.634175275066   119.87299717     0.00000000
 H      3   2   1     2.049611680700   120.08761902   180.00008144
 H      1   2   3     2.053320492667   119.77194377   180.00009592
 H      5   4   3     2.053319460878   119.77191644   180.00006314
 S      7   1   2     3.240328712752   119.91065997   179.99993796
 H      4   3   2     2.049636627054   120.39918715   179.99998016

---------------------
BASIS SET INFORMATION
---------------------
There are 3 groups of distinct atoms

 Group   1 Type C   : 11s6p2d1f contracted to 5s3p2d1f pattern {62111/411/11/1}
 Group   2 Type H   : 5s1p contracted to 3s1p pattern {311/1}
 Group   3 Type S   : 14s9p3d1f contracted to 5s5p2d1f pattern {73211/51111/21/1}

Atom   0C    basis set group =>   1
Atom   1C    basis set group =>   1
Atom   2C    basis set group =>   1
Atom   3C    basis set group =>   1
Atom   4C    basis set group =>   1
Atom   5H    basis set group =>   2
Atom   6C    basis set group =>   1
Atom   7H    basis set group =>   2
Atom   8H    basis set group =>   2
Atom   9H    basis set group =>   2
Atom  10S    basis set group =>   3
Atom  11H    basis set group =>   2
---------------------------------
AUXILIARY/J BASIS SET INFORMATION
---------------------------------
There are 3 groups of distinct atoms

 Group   1 Type C   : 12s5p4d2f1g contracted to 6s4p3d1f1g pattern {711111/2111/211/2/1}
 Group   2 Type H   : 5s2p1d contracted to 3s1p1d pattern {311/2/1}
 Group   3 Type S   : 14s5p5d2f1g contracted to 8s4p3d1f1g pattern {71111111/2111/311/2/1}

Atom   0C    basis set group =>   1
Atom   1C    basis set group =>   1
Atom   2C    basis set group =>   1
Atom   3C    basis set group =>   1
Atom   4C    basis set group =>   1
Atom   5H    basis set group =>   2
Atom   6C    basis set group =>   1
Atom   7H    basis set group =>   2
Atom   8H    basis set group =>   2
Atom   9H    basis set group =>   2
Atom  10S    basis set group =>   3
Atom  11H    basis set group =>   2
------------------------------------------------------------------------------
                           ORCA GTO INTEGRAL CALCULATION
                           -- RI-GTO INTEGRALS CHOSEN --
------------------------------------------------------------------------------
------------------------------------------------------------------------------
                   ___                                                        
                  /   \      - P O W E R E D   B Y -                         
                 /     \                                                     
                 |  |  |   _    _      __       _____    __    __             
                 |  |  |  | |  | |    /  \     |  _  \  |  |  /  |          
                  \  \/   | |  | |   /    \    | | | |  |  | /  /          
                 / \  \   | |__| |  /  /\  \   | |_| |  |  |/  /          
                |  |  |   |  __  | /  /__\  \  |    /   |      \           
                |  |  |   | |  | | |   __   |  |    \   |  |\   \          
                \     /   | |  | | |  |  |  |  | |\  \  |  | \   \       
                 \___/    |_|  |_| |__|  |__|  |_| \__\ |__|  \__/        
                                                                              
                      - O R C A' S   B I G   F R I E N D -                    
                                      &                                       
                       - I N T E G R A L  F E E D E R -                       
                                                                              
 v1 FN, 2020, v2 2021                                                         
------------------------------------------------------------------------------


Reading SHARK input file inp.SHARKINP.tmp ... ok
----------------------
SHARK INTEGRAL PACKAGE
----------------------

Number of atoms                             ...     12
Number of basis functions                   ...    253
Number of shells                            ...     99
Maximum angular momentum                    ...      3
Integral batch strategy                     ... SHARK/LIBINT Hybrid
RI-J (if used) integral strategy            ... SPLIT-RIJ (Revised 2003 algorithm where possible)
Printlevel                                  ...      1
Contraction scheme used                     ... SEGMENTED contraction
Coulomb Range Separation                    ... NOT USED
Exchange Range Separation                   ... NOT USED
Finite Nucleus Model                        ... NOT USED
Auxiliary Coulomb fitting basis             ... AVAILABLE
   # of basis functions in Aux-J            ...    400
   # of shells in Aux-J                     ...    132
   Maximum angular momentum in Aux-J        ...      4
Auxiliary J/K fitting basis                 ... NOT available
Auxiliary Correlation fitting basis         ... NOT available
Auxiliary 'external' fitting basis          ... NOT available
Integral threshold                          ...     2.500000e-11
Primitive cut-off                           ...     2.500000e-12
Primitive pair pre-selection threshold      ...     2.500000e-12

Calculating pre-screening integrals         ... done (  0.1 sec) Dimension = 99
Organizing shell pair data                  ... done (  0.2 sec)
Shell pair information
Total number of shell pairs                 ...      4950
Shell pairs after pre-screening             ...      4646
Total number of primitive shell pairs       ...     15936
Primitive shell pairs kept                  ...     11390
          la=0 lb=0:   1136 shell pairs
          la=1 lb=0:   1304 shell pairs
          la=1 lb=1:    388 shell pairs
          la=2 lb=0:    677 shell pairs
          la=2 lb=1:    382 shell pairs
          la=2 lb=2:    104 shell pairs
          la=3 lb=0:    338 shell pairs
          la=3 lb=1:    191 shell pairs
          la=3 lb=2:     98 shell pairs
          la=3 lb=3:     28 shell pairs

Calculating one electron integrals          ... done (  0.0 sec)
Calculating RI/J V-Matrix + Cholesky decomp.... done (  0.2 sec)
Calculating Nuclear repulsion               ... done (  0.0 sec) ENN=    308.978705699898 Eh

SHARK setup successfully completed in   1.3 seconds

Maximum memory used throughout the entire GTOINT-calculation: 79.2 MB
-------------------------------------------------------------------------------
                                 ORCA SCF
-------------------------------------------------------------------------------

------------
SCF SETTINGS
------------
Hamiltonian:
 Density Functional     Method          .... DFT(GTOs)
 Exchange Functional    Exchange        .... PBE
   PBE kappa parameter   XKappa         ....  0.804000
   PBE mue parameter    XMuePBE         ....  0.219520
 Correlation Functional Correlation     .... PBE
   PBE beta parameter  CBetaPBE         ....  0.066725
 LDA part of GGA corr.  LDAOpt          .... PW91-LDA
 Gradients option       PostSCFGGA      .... off
   Density functional embedding theory  .... OFF
   NL short-range parameter             ....  6.400000
 RI-approximation to the Coulomb term is turned on
   Number of AuxJ basis functions       .... 400


General Settings:
 Integral files         IntName         .... inp
 Hartree-Fock type      HFTyp           .... RHF
 Total Charge           Charge          ....   -1
 Multiplicity           Mult            ....    1
 Number of Electrons    NEL             ....   58
 Basis Dimension        Dim             ....  253
 Nuclear Repulsion      ENuc            ....    308.9787056999 Eh

Convergence Acceleration:
 DIIS                   CNVDIIS         .... on
   Start iteration      DIISMaxIt       ....    12
   Startup error        DIISStart       ....  0.200000
   # of expansion vecs  DIISMaxEq       ....     5
   Bias factor          DIISBfac        ....   1.050
   Max. coefficient     DIISMaxC        ....  10.000
 Trust-Rad. Augm. Hess. CNVTRAH         .... auto
   Auto Start mean grad. ratio tolernc. ....  1.125000
   Auto Start start iteration           ....    20
   Auto Start num. interpolation iter.  ....    10
   Max. Number of Micro iterations      ....    16
   Max. Number of Macro iterations      .... Maxiter - #DIIS iter
   Number of Davidson start vectors     ....     2
   Converg. threshold I  (grad. norm)   ....   1.000e-05
   Converg. threshold II (energy diff.) ....   1.000e-08
   Grad. Scal. Fac. for Micro threshold ....   0.100
   Minimum threshold for Micro iter.    ....   0.010
   NR start threshold (gradient norm)   ....   0.001
   Initial trust radius                 ....   0.400
   Minimum AH scaling param. (alpha)    ....   1.000
   Maximum AH scaling param. (alpha)    .... 1000.000
   Orbital update algorithm             .... Taylor
   White noise on init. David. guess    .... on
   Maximum white noise                  ....   0.010
   Quad. conv. algorithm                .... NR
 SOSCF                  CNVSOSCF        .... on
   Start iteration      SOSCFMaxIt      ....   150
   Startup grad/error   SOSCFStart      ....  0.003300
 Level Shifting         CNVShift        .... on
   Level shift para.    LevelShift      ....    0.2500
   Turn off err/grad.   ShiftErr        ....    0.0010
 Zerner damping         CNVZerner       .... off
 Static damping         CNVDamp         .... on
   Fraction old density DampFac         ....    0.7000
   Max. Damping (<1)    DampMax         ....    0.9800
   Min. Damping (>=0)   DampMin         ....    0.0000
   Turn off err/grad.   DampErr         ....    0.1000
 Fernandez-Rico         CNVRico         .... off

SCF Procedure:
 Maximum # iterations   MaxIter         ....   125
 SCF integral mode      SCFMode         .... Direct
   Integral package                     .... SHARK and LIBINT hybrid scheme
 Reset frequency        DirectResetFreq ....    20
 Integral Threshold     Thresh          ....  2.500e-11 Eh
 Primitive CutOff       TCut            ....  2.500e-12 Eh

Convergence Tolerance:
 Convergence Check Mode ConvCheckMode   .... Total+1el-Energy
 Convergence forced     ConvForced      .... 0
 Energy Change          TolE            ....  1.000e-08 Eh
 1-El. energy change                    ....  1.000e-05 Eh
 Orbital Gradient       TolG            ....  1.000e-05
 Orbital Rotation angle TolX            ....  1.000e-05
 DIIS Error             TolErr          ....  5.000e-07


Diagonalization of the overlap matrix:
Smallest eigenvalue                        ... 9.660e-06
Time for diagonalization                   ...    0.009 sec
Threshold for overlap eigenvalues          ... 1.000e-08
Number of eigenvalues below threshold      ... 0
Time for construction of square roots      ...    0.084 sec
Total time needed                          ...    0.093 sec

Time for model grid setup =    0.292 sec

------------------------------
INITIAL GUESS: MODEL POTENTIAL
------------------------------
Loading Hartree-Fock densities                     ... done
Calculating cut-offs                               ... done
Initializing the effective Hamiltonian             ... done
Setting up the integral package (SHARK)            ... done
Starting the Coulomb interaction                   ... done (   0.3 sec)
Reading the grid                                   ... done
Mapping shells                                     ... done
Starting the XC term evaluation                    ... done (   0.4 sec)
  promolecular density results
     # of electrons  =     56.991536308
     EX              =    -57.016057252
     EC              =     -1.965898373
     EX+EC           =    -58.981955625
Transforming the Hamiltonian                       ... done (   0.0 sec)
Diagonalizing the Hamiltonian                      ... done (   0.0 sec)
Back transforming the eigenvectors                 ... done (   0.0 sec)
Now organizing SCF variables                       ... done
                      ------------------
                      INITIAL GUESS DONE (   0.9 sec)
                      ------------------
-------------------
DFT GRID GENERATION
-------------------

General Integration Accuracy     IntAcc      ... 4.388
Radial Grid Type                 RadialGrid  ... OptM3 with GC (2021)
Angular Grid (max. ang.)         AngularGrid ... 4 (Lebedev-302)
Angular grid pruning method      GridPruning ... 4 (adaptive)
Weight generation scheme         WeightScheme... Becke
Basis function cutoff            BFCut       ... 1.0000e-11
Integration weight cutoff        WCut        ... 1.0000e-14
Angular grids for H and He will be reduced by one unit
Partially contracted basis set               ... off
Rotationally invariant grid construction     ... off

Total number of grid points                  ...    59697
Total number of batches                      ...      940
Average number of points per batch           ...       63
Average number of grid points per atom       ...     4975
Time for grid setup =    0.813 sec


--------------------
CPCM SOLVATION MODEL
--------------------
CPCM parameters:
  Epsilon                                         ...      80.4000
  Refrac                                          ...       1.3300
  Rsolv                                           ...       1.3000
  Surface type                                    ... GAUSSIAN VDW
  Epsilon function type                           ...         CPCM
Radii:
 Radius for C  used is    3.8550 Bohr (=   2.0400 Ang.)
 Radius for H  used is    2.4944 Bohr (=   1.3200 Ang.)
 Radius for S  used is    4.0818 Bohr (=   2.1600 Ang.)
Calculating surface                               ...        done! (  0.0s)
GEPOL surface points                              ...          701
GEPOL Volume                                      ...     920.5944
GEPOL Surface-area                                ...     519.6410
Calculating surface distance matrix               ...        done! (  0.0s)
Performing Cholesky decomposition & store         ...        done! (  0.1s)
Overall time for CPCM initialization              ...                 0.2s
--------------
SCF ITERATIONS
--------------
ITER       Energy         Delta-E        Max-DP      RMS-DP      [F,P]     Damp
               ***  Starting incremental Fock matrix formation  ***
  0   -629.4024261222   0.000000000000 0.11083318  0.00262080  0.1289380 0.7000
  1   -629.4955742311  -0.093148108983 0.20089723  0.00346515  0.0673394 0.7000
                               ***Turning on DIIS***
  2   -629.5314964930  -0.035922261863 0.55455432  0.00905697  0.0331724 0.0000
  3   -629.5779679859  -0.046471492846 0.08438099  0.00144274  0.0422088 0.0000
  4   -629.5957164517  -0.017748465821 0.08681543  0.00132108  0.0163305 0.0000
                      *** Initiating the SOSCF procedure ***
                           *** Shutting down DIIS ***
                      *** Re-Reading the Fockian *** 
                      *** Removing any level shift *** 
ITER      Energy       Delta-E        Grad      Rot      Max-DP    RMS-DP
  5   -629.59723895  -0.0015224967  0.001276  0.001276  0.040948  0.000602
               *** Restarting incremental Fock matrix formation ***
  6   -629.59733430  -0.0000953542  0.000380  0.001498  0.024656  0.000380
  7   -629.59732552   0.0000087806  0.000919  0.001614  0.003454  0.000063
  8   -629.59734150  -0.0000159789  0.000191  0.000622  0.009171  0.000137
  9   -629.59734098   0.0000005223  0.000222  0.000276  0.003387  0.000051
 10   -629.59734247  -0.0000014917  0.000033  0.000089  0.001271  0.000019
 11   -629.59734244   0.0000000307  0.000051  0.000050  0.000640  0.000010
 12   -629.59734250  -0.0000000570  0.000005  0.000014  0.000373  0.000006
 13   -629.59734251  -0.0000000104  0.000004  0.000009  0.000126  0.000002
                  ***Gradient check signals convergence***
              ***Rediagonalizing the Fockian in SOSCF/NRSCF***

               *****************************************************
               *                     SUCCESS                       *
               *           SCF CONVERGED AFTER  14 CYCLES          *
               *****************************************************


----------------
TOTAL SCF ENERGY
----------------

Total Energy       :         -629.59734249 Eh          -17132.21467 eV

Components:
Nuclear Repulsion  :          308.97870570 Eh            8407.73802 eV
Electronic Energy  :         -938.57604819 Eh          -25539.95270 eV
One Electron Energy:        -1486.15509731 Eh          -40440.33614 eV
Two Electron Energy:          547.57904912 Eh           14900.38345 eV
CPCM Dielectric    :           -0.10126390 Eh              -2.75553 eV

Virial components:
Potential Energy   :        -1257.69228403 Eh          -34223.54694 eV
Kinetic Energy     :          628.09494154 Eh           17091.33227 eV
Virial Ratio       :            2.00239200


DFT components:
N(Alpha)           :       29.000041361107 electrons
N(Beta)            :       29.000041361107 electrons
N(Total)           :       58.000082722214 electrons
E(X)               :      -57.921102080090 Eh       
E(C)               :       -2.005054638653 Eh       
E(XC)              :      -59.926156718743 Eh       
DFET-embed. en.    :        0.000000000000 Eh       
CPCM Solvation Model Properties:
Surface-charge          :            0.96129162
Charge-correction       :           -0.00558098 Eh              -0.15187 eV
Free-energy (cav+disp)  :  This term is not implemented in the current solvation scheme

---------------
SCF CONVERGENCE
---------------

  Last Energy change         ...    1.7630e-08  Tolerance :   1.0000e-08
  Last MAX-Density change    ...    6.6924e-05  Tolerance :   1.0000e-07
  Last RMS-Density change    ...    1.2180e-06  Tolerance :   5.0000e-09
  Last Orbital Gradient      ...    1.6682e-06  Tolerance :   1.0000e-05
  Last Orbital Rotation      ...    5.0947e-06  Tolerance :   1.0000e-05

             **** THE GBW FILE WAS UPDATED (inp.gbw) ****
             **** DENSITY inp.scfp WAS UPDATED ****
             **** ENERGY FILE WAS UPDATED (inp.en.tmp) ****
             **** THE GBW FILE WAS UPDATED (inp.gbw) ****
             **** DENSITY inp.scfp WAS UPDATED ****
----------------
ORBITAL ENERGIES
----------------

  NO   OCC          E(Eh)            E(eV) 
   0   2.0000     -87.951926     -2393.2936 
   1   2.0000      -9.887566      -269.0543 
   2   2.0000      -9.871697      -268.6225 
   3   2.0000      -9.871685      -268.6222 
   4   2.0000      -9.864624      -268.4301 
   5   2.0000      -9.863068      -268.3877 
   6   2.0000      -9.863041      -268.3870 
   7   2.0000      -7.579560      -206.2503 
   8   2.0000      -5.600697      -152.4027 
   9   2.0000      -5.595409      -152.2588 
  10   2.0000      -5.593906      -152.2179 
  11   2.0000      -0.765747       -20.8370 
  12   2.0000      -0.677593       -18.4383 
  13   2.0000      -0.659471       -17.9451 
  14   2.0000      -0.573937       -15.6176 
  15   2.0000      -0.529765       -14.4156 
  16   2.0000      -0.496689       -13.5156 
  17   2.0000      -0.434306       -11.8181 
  18   2.0000      -0.387331       -10.5398 
  19   2.0000      -0.383005       -10.4221 
  20   2.0000      -0.357826        -9.7369 
  21   2.0000      -0.325535        -8.8583 
  22   2.0000      -0.325080        -8.8459 
  23   2.0000      -0.287743        -7.8299 
  24   2.0000      -0.262900        -7.1539 
  25   2.0000      -0.241497        -6.5715 
  26   2.0000      -0.218467        -5.9448 
  27   2.0000      -0.153330        -4.1723 
  28   2.0000      -0.145829        -3.9682 
  29   0.0000      -0.031255        -0.8505 
  30   0.0000      -0.018883        -0.5138 
  31   0.0000       0.039980         1.0879 
  32   0.0000       0.073332         1.9955 
  33   0.0000       0.077701         2.1144 
  34   0.0000       0.086735         2.3602 
  35   0.0000       0.104907         2.8547 
  36   0.0000       0.108141         2.9427 
  37   0.0000       0.111339         3.0297 
  38   0.0000       0.123436         3.3589 
  39   0.0000       0.161959         4.4071 
  40   0.0000       0.181685         4.9439 
  41   0.0000       0.185884         5.0582 
  42   0.0000       0.194891         5.3032 
  43   0.0000       0.210860         5.7378 
  44   0.0000       0.223931         6.0935 
  45   0.0000       0.226572         6.1653 
  46   0.0000       0.238325         6.4852 
  47   0.0000       0.239336         6.5127 
  48   0.0000       0.239518         6.5176 
  49   0.0000       0.258539         7.0352 
  50   0.0000       0.288458         7.8493 
  51   0.0000       0.298748         8.1293 
  52   0.0000       0.305419         8.3109 
  53   0.0000       0.314297         8.5525 
  54   0.0000       0.322383         8.7725 
  55   0.0000       0.323782         8.8106 
  56   0.0000       0.335318         9.1245 
  57   0.0000       0.363429         9.8894 
  58   0.0000       0.370896        10.0926 
  59   0.0000       0.380520        10.3545 
  60   0.0000       0.397474        10.8158 
  61   0.0000       0.401479        10.9248 
  62   0.0000       0.411211        11.1896 
  63   0.0000       0.417398        11.3580 
  64   0.0000       0.427803        11.6411 
  65   0.0000       0.430859        11.7243 
  66   0.0000       0.448878        12.2146 
  67   0.0000       0.465847        12.6763 
  68   0.0000       0.470789        12.8108 
  69   0.0000       0.478404        13.0180 
  70   0.0000       0.533570        14.5192 
  71   0.0000       0.543979        14.8024 
  72   0.0000       0.555088        15.1047 
  73   0.0000       0.584315        15.9000 
  74   0.0000       0.603901        16.4330 
  75   0.0000       0.628540        17.1034 
  76   0.0000       0.637664        17.3517 
  77   0.0000       0.643564        17.5123 
  78   0.0000       0.677745        18.4424 
  79   0.0000       0.708091        19.2681 
  80   0.0000       0.710765        19.3409 
  81   0.0000       0.718475        19.5507 
  82   0.0000       0.731077        19.8936 
  83   0.0000       0.762811        20.7571 
  84   0.0000       0.780770        21.2458 
  85   0.0000       0.809063        22.0157 
  86   0.0000       0.829810        22.5803 
  87   0.0000       0.844776        22.9875 
  88   0.0000       0.854990        23.2655 
  89   0.0000       0.875350        23.8195 
  90   0.0000       0.889114        24.1940 
  91   0.0000       0.966381        26.2966 
  92   0.0000       0.975137        26.5348 
  93   0.0000       1.005083        27.3497 
  94   0.0000       1.009296        27.4644 
  95   0.0000       1.025597        27.9079 
  96   0.0000       1.049213        28.5505 
  97   0.0000       1.121984        30.5307 
  98   0.0000       1.149874        31.2897 
  99   0.0000       1.158347        31.5202 
 100   0.0000       1.171843        31.8875 
 101   0.0000       1.174499        31.9598 
 102   0.0000       1.177047        32.0291 
 103   0.0000       1.186526        32.2870 
 104   0.0000       1.229149        33.4468 
 105   0.0000       1.236184        33.6383 
 106   0.0000       1.249841        34.0099 
 107   0.0000       1.316313        35.8187 
 108   0.0000       1.345233        36.6057 
 109   0.0000       1.363710        37.1084 
 110   0.0000       1.411622        38.4122 
 111   0.0000       1.414205        38.4825 
 112   0.0000       1.420449        38.6524 
 113   0.0000       1.428445        38.8700 
 114   0.0000       1.456325        39.6286 
 115   0.0000       1.463203        39.8158 
 116   0.0000       1.465680        39.8832 
 117   0.0000       1.520642        41.3788 
 118   0.0000       1.527771        41.5728 
 119   0.0000       1.550500        42.1913 
 120   0.0000       1.552029        42.2329 
 121   0.0000       1.552995        42.2591 
 122   0.0000       1.603303        43.6281 
 123   0.0000       1.612026        43.8655 
 124   0.0000       1.612037        43.8658 
 125   0.0000       1.626229        44.2519 
 126   0.0000       1.645271        44.7701 
 127   0.0000       1.661269        45.2054 
 128   0.0000       1.668933        45.4140 
 129   0.0000       1.685313        45.8597 
 130   0.0000       1.692200        46.0471 
 131   0.0000       1.761932        47.9446 
 132   0.0000       1.782015        48.4911 
 133   0.0000       1.787831        48.6494 
 134   0.0000       1.807794        49.1926 
 135   0.0000       1.812474        49.3199 
 136   0.0000       1.874858        51.0175 
 137   0.0000       1.891820        51.4790 
 138   0.0000       1.897357        51.6297 
 139   0.0000       1.906494        51.8783 
 140   0.0000       1.925116        52.3851 
 141   0.0000       1.993837        54.2551 
 142   0.0000       2.017289        54.8932 
 143   0.0000       2.032058        55.2951 
 144   0.0000       2.089163        56.8490 
 145   0.0000       2.100745        57.1642 
 146   0.0000       2.101300        57.1793 
 147   0.0000       2.106111        57.3102 
 148   0.0000       2.115775        57.5732 
 149   0.0000       2.165711        58.9320 
 150   0.0000       2.192281        59.6550 
 151   0.0000       2.200944        59.8907 
 152   0.0000       2.303939        62.6934 
 153   0.0000       2.394834        65.1668 
 154   0.0000       2.412499        65.6474 
 155   0.0000       2.431533        66.1654 
 156   0.0000       2.466767        67.1241 
 157   0.0000       2.483270        67.5732 
 158   0.0000       2.514575        68.4251 
 159   0.0000       2.537208        69.0409 
 160   0.0000       2.538322        69.0713 
 161   0.0000       2.585482        70.3545 
 162   0.0000       2.598595        70.7114 
 163   0.0000       2.605692        70.9045 
 164   0.0000       2.617891        71.2364 
 165   0.0000       2.624782        71.4239 
 166   0.0000       2.629530        71.5532 
 167   0.0000       2.695437        73.3466 
 168   0.0000       2.702428        73.5368 
 169   0.0000       2.706251        73.6408 
 170   0.0000       2.712616        73.8140 
 171   0.0000       2.731904        74.3389 
 172   0.0000       2.761347        75.1401 
 173   0.0000       2.769924        75.3735 
 174   0.0000       2.786103        75.8137 
 175   0.0000       2.839030        77.2539 
 176   0.0000       2.850884        77.5765 
 177   0.0000       2.867230        78.0213 
 178   0.0000       2.880484        78.3820 
 179   0.0000       2.899283        78.8935 
 180   0.0000       2.957118        80.4673 
 181   0.0000       3.005607        81.7867 
 182   0.0000       3.043535        82.8188 
 183   0.0000       3.050059        82.9963 
 184   0.0000       3.055465        83.1434 
 185   0.0000       3.067343        83.4667 
 186   0.0000       3.067422        83.4688 
 187   0.0000       3.086520        83.9885 
 188   0.0000       3.115206        84.7691 
 189   0.0000       3.116277        84.7982 
 190   0.0000       3.166672        86.1695 
 191   0.0000       3.176019        86.4239 
 192   0.0000       3.179615        86.5217 
 193   0.0000       3.205521        87.2267 
 194   0.0000       3.207948        87.2927 
 195   0.0000       3.287422        89.4553 
 196   0.0000       3.299078        89.7725 
 197   0.0000       3.306311        89.9693 
 198   0.0000       3.310054        90.0712 
 199   0.0000       3.363158        91.5162 
 200   0.0000       3.371355        91.7392 
 201   0.0000       3.381092        92.0042 
 202   0.0000       3.405334        92.6638 
 203   0.0000       3.426834        93.2489 
 204   0.0000       3.444783        93.7373 
 205   0.0000       3.464370        94.2703 
 206   0.0000       3.490745        94.9880 
 207   0.0000       3.501787        95.2885 
 208   0.0000       3.606514        98.1382 
 209   0.0000       3.628706        98.7421 
 210   0.0000       3.676932       100.0544 
 211   0.0000       3.696214       100.5791 
 212   0.0000       3.761392       102.3527 
 213   0.0000       3.788068       103.0786 
 214   0.0000       3.868579       105.2694 
 215   0.0000       3.934132       107.0532 
 216   0.0000       3.983995       108.4100 
 217   0.0000       3.989529       108.5606 
 218   0.0000       4.020412       109.4010 
 219   0.0000       4.041251       109.9680 
 220   0.0000       4.116874       112.0258 
 221   0.0000       4.118286       112.0643 
 222   0.0000       4.137977       112.6001 
 223   0.0000       4.149052       112.9014 
 224   0.0000       4.155370       113.0734 
 225   0.0000       4.182642       113.8155 
 226   0.0000       4.202898       114.3667 
 227   0.0000       4.244147       115.4891 
 228   0.0000       4.250320       115.6571 
 229   0.0000       4.538468       123.4980 
 230   0.0000       4.565513       124.2339 
 231   0.0000       4.580750       124.6486 
 232   0.0000       4.583111       124.7128 
 233   0.0000       4.614958       125.5794 
 234   0.0000       4.767490       129.7300 
 235   0.0000       4.815349       131.0323 
 236   0.0000       4.818202       131.1100 
 237   0.0000       5.068098       137.9100 
 238   0.0000       5.080665       138.2519 
 239   0.0000       5.201028       141.5272 
 240   0.0000       5.242431       142.6538 
 241   0.0000       5.303225       144.3081 
 242   0.0000       5.489820       149.3856 
 243   0.0000       8.772468       238.7110 
 244   0.0000       8.876167       241.5328 
 245   0.0000       9.308708       253.3028 
 246   0.0000      19.658214       534.9272 
 247   0.0000      21.642866       588.9323 
 248   0.0000      22.308870       607.0552 
 249   0.0000      22.337461       607.8332 
 250   0.0000      22.421769       610.1273 
 251   0.0000      22.458793       611.1348 
 252   0.0000      22.810752       620.7121 

                    ********************************
                    * MULLIKEN POPULATION ANALYSIS *
                    ********************************

-----------------------
MULLIKEN ATOMIC CHARGES
-----------------------
   0 C :   -0.272272
   1 C :   -0.143738
   2 C :   -0.182992
   3 C :   -0.142994
   4 C :   -0.271144
   5 H :    0.120065
   6 C :    0.326421
   7 H :    0.120593
   8 H :    0.080565
   9 H :    0.080599
  10 S :   -0.835046
  11 H :    0.119944
Sum of atomic charges:   -1.0000000

--------------------------------
MULLIKEN REDUCED ORBITAL CHARGES
--------------------------------
  0 C s       :     3.299302  s :     3.299302
      pz      :     0.994771  p :     2.878087
      px      :     0.955757
      py      :     0.927560
      dz2     :     0.019717  d :     0.088080
      dxz     :     0.019404
      dyz     :     0.010635
      dx2y2   :     0.016769
      dxy     :     0.021556
      f0      :     0.000610  f :     0.006803
      f+1     :     0.001294
      f-1     :     0.000806
      f+2     :     0.001133
      f-2     :     0.001200
      f+3     :     0.000892
      f-3     :     0.000868
  1 C s       :     3.199182  s :     3.199182
      pz      :     0.955026  p :     2.848194
      px      :     0.957619
      py      :     0.935548
      dz2     :     0.016365  d :     0.089579
      dxz     :     0.013874
      dyz     :     0.019272
      dx2y2   :     0.025448
      dxy     :     0.014620
      f0      :     0.000943  f :     0.006784
      f+1     :     0.000597
      f-1     :     0.000982
      f+2     :     0.001140
      f-2     :     0.001141
      f+3     :     0.000563
      f-3     :     0.001417
  2 C s       :     3.198233  s :     3.198233
      pz      :     0.996778  p :     2.892356
      px      :     0.940059
      py      :     0.955519
      dz2     :     0.011547  d :     0.085642
      dxz     :     0.013277
      dyz     :     0.016655
      dx2y2   :     0.020001
      dxy     :     0.024162
      f0      :     0.000418  f :     0.006761
      f+1     :     0.001273
      f-1     :     0.000714
      f+2     :     0.000753
      f-2     :     0.001324
      f+3     :     0.000746
      f-3     :     0.001533
  3 C s       :     3.198945  s :     3.198945
      pz      :     0.950551  p :     2.847716
      px      :     0.941878
      py      :     0.955287
      dz2     :     0.022755  d :     0.089552
      dxz     :     0.018812
      dyz     :     0.009599
      dx2y2   :     0.016097
      dxy     :     0.022289
      f0      :     0.000615  f :     0.006781
      f+1     :     0.001271
      f-1     :     0.000873
      f+2     :     0.001093
      f-2     :     0.001121
      f+3     :     0.000983
      f-3     :     0.000825
  4 C s       :     3.298911  s :     3.298911
      pz      :     0.982852  p :     2.877419
      px      :     0.915836
      py      :     0.978731
      dz2     :     0.014439  d :     0.088012
      dxz     :     0.014043
      dyz     :     0.019784
      dx2y2   :     0.025140
      dxy     :     0.014607
      f0      :     0.000863  f :     0.006801
      f+1     :     0.000577
      f-1     :     0.001046
      f+2     :     0.001246
      f-2     :     0.001127
      f+3     :     0.000579
      f-3     :     0.001362
  5 H s       :     0.858157  s :     0.858157
      pz      :     0.006263  p :     0.021777
      px      :     0.010889
      py      :     0.004625
  6 C s       :     3.033511  s :     3.033511
      pz      :     0.948092  p :     2.486855
      px      :     0.716867
      py      :     0.821896
      dz2     :     0.033045  d :     0.144093
      dxz     :     0.022519
      dyz     :     0.021965
      dx2y2   :     0.031617
      dxy     :     0.034947
      f0      :     0.000771  f :     0.009121
      f+1     :     0.001502
      f-1     :     0.001023
      f+2     :     0.001242
      f-2     :     0.001593
      f+3     :     0.000999
      f-3     :     0.001990
  7 H s       :     0.857370  s :     0.857370
      pz      :     0.008846  p :     0.022037
      px      :     0.005487
      py      :     0.007704
  8 H s       :     0.897298  s :     0.897298
      pz      :     0.005144  p :     0.022138
      px      :     0.006352
      py      :     0.010641
  9 H s       :     0.897270  s :     0.897270
      pz      :     0.006499  p :     0.022131
      px      :     0.011073
      py      :     0.004558
 10 S s       :     5.697560  s :     5.697560
      pz      :     3.527563  p :    11.045463
      px      :     3.862772
      py      :     3.655127
      dz2     :     0.019655  d :     0.082635
      dxz     :     0.013228
      dyz     :     0.025819
      dx2y2   :     0.009021
      dxy     :     0.014912
      f0      :     0.001060  f :     0.009388
      f+1     :     0.000891
      f-1     :     0.002174
      f+2     :     0.001567
      f-2     :     0.002286
      f+3     :     0.000848
      f-3     :     0.000562
 11 H s       :     0.858273  s :     0.858273
      pz      :     0.004988  p :     0.021783
      px      :     0.006445
      py      :     0.010350


                     *******************************
                     * LOEWDIN POPULATION ANALYSIS *
                     *******************************

----------------------
LOEWDIN ATOMIC CHARGES
----------------------
   0 C :   -0.194073
   1 C :   -0.173702
   2 C :   -0.199454
   3 C :   -0.173712
   4 C :   -0.193970
   5 H :    0.143708
   6 C :   -0.523999
   7 H :    0.141870
   8 H :    0.135816
   9 H :    0.135872
  10 S :   -0.242055
  11 H :    0.143699

-------------------------------
LOEWDIN REDUCED ORBITAL CHARGES
-------------------------------
  0 C s       :     2.775192  s :     2.775192
      pz      :     0.995393  p :     2.989326
      px      :     1.010718
      py      :     0.983214
      dz2     :     0.075435  d :     0.387340
      dxz     :     0.084292
      dyz     :     0.054009
      dx2y2   :     0.074689
      dxy     :     0.098916
      f0      :     0.004350  f :     0.042215
      f+1     :     0.006321
      f-1     :     0.004934
      f+2     :     0.008204
      f-2     :     0.005893
      f+3     :     0.005890
      f-3     :     0.006623
  1 C s       :     2.773298  s :     2.773298
      pz      :     0.965826  p :     2.961489
      px      :     0.968975
      py      :     1.026688
      dz2     :     0.063865  d :     0.396485
      dxz     :     0.064108
      dyz     :     0.085102
      dx2y2   :     0.106341
      dxy     :     0.077069
      f0      :     0.006000  f :     0.042430
      f+1     :     0.004099
      f-1     :     0.005012
      f+2     :     0.006970
      f-2     :     0.006071
      f+3     :     0.005280
      f-3     :     0.008999
  2 C s       :     2.769562  s :     2.769562
      pz      :     0.966697  p :     3.001067
      px      :     1.027621
      py      :     1.006749
      dz2     :     0.044227  d :     0.386490
      dxz     :     0.066930
      dyz     :     0.076055
      dx2y2   :     0.093671
      dxy     :     0.105607
      f0      :     0.003303  f :     0.042334
      f+1     :     0.006877
      f-1     :     0.003743
      f+2     :     0.006823
      f-2     :     0.005646
      f+3     :     0.005932
      f-3     :     0.010010
  3 C s       :     2.773295  s :     2.773295
      pz      :     0.977899  p :     2.961499
      px      :     1.011033
      py      :     0.972567
      dz2     :     0.087199  d :     0.396488
      dxz     :     0.082036
      dyz     :     0.051112
      dx2y2   :     0.074328
      dxy     :     0.101814
      f0      :     0.004371  f :     0.042430
      f+1     :     0.006279
      f-1     :     0.005228
      f+2     :     0.007951
      f-2     :     0.005783
      f+3     :     0.006296
      f-3     :     0.006522
  4 C s       :     2.775193  s :     2.775193
      pz      :     0.984889  p :     2.989245
      px      :     0.974422
      py      :     1.029934
      dz2     :     0.056401  d :     0.387317
      dxz     :     0.063556
      dyz     :     0.087399
      dx2y2   :     0.104079
      dxy     :     0.075882
      f0      :     0.005563  f :     0.042215
      f+1     :     0.004043
      f-1     :     0.005295
      f+2     :     0.007048
      f-2     :     0.006236
      f+3     :     0.005303
      f-3     :     0.008727
  5 H s       :     0.796669  s :     0.796669
      pz      :     0.017199  p :     0.059623
      px      :     0.029317
      py      :     0.013107
  6 C s       :     2.782115  s :     2.782115
      pz      :     0.979093  p :     3.055785
      px      :     1.039253
      py      :     1.037439
      dz2     :     0.122284  d :     0.626648
      dxz     :     0.107412
      dyz     :     0.114891
      dx2y2   :     0.136856
      dxy     :     0.145204
      f0      :     0.006036  f :     0.059451
      f+1     :     0.008414
      f-1     :     0.006001
      f+2     :     0.010029
      f-2     :     0.007790
      f+3     :     0.007999
      f-3     :     0.013181
  7 H s       :     0.797634  s :     0.797634
      pz      :     0.024002  p :     0.060496
      px      :     0.015379
      py      :     0.021114
  8 H s       :     0.804126  s :     0.804126
      pz      :     0.014195  p :     0.060058
      px      :     0.017390
      py      :     0.028473
  9 H s       :     0.804073  s :     0.804073
      pz      :     0.017720  p :     0.060056
      px      :     0.029670
      py      :     0.012666
 10 S s       :     5.423839  s :     5.423839
      pz      :     3.446201  p :    10.648087
      px      :     3.679614
      py      :     3.522272
      dz2     :     0.032499  d :     0.146311
      dxz     :     0.026595
      dyz     :     0.041702
      dx2y2   :     0.021471
      dxy     :     0.024045
      f0      :     0.002598  f :     0.023817
      f+1     :     0.002355
      f-1     :     0.005000
      f+2     :     0.004775
      f-2     :     0.005308
      f+3     :     0.001833
      f-3     :     0.001947
 11 H s       :     0.796679  s :     0.796679
      pz      :     0.013903  p :     0.059622
      px      :     0.017825
      py      :     0.027894


                      *****************************
                      * MAYER POPULATION ANALYSIS *
                      *****************************

  NA   - Mulliken gross atomic population
  ZA   - Total nuclear charge
  QA   - Mulliken gross atomic charge
  VA   - Mayer's total valence
  BVA  - Mayer's bonded valence
  FA   - Mayer's free valence

  ATOM       NA         ZA         QA         VA         BVA        FA
  0 C      6.2723     6.0000    -0.2723     4.0644     4.0644     0.0000
  1 C      6.1437     6.0000    -0.1437     3.8701     3.8701     0.0000
  2 C      6.1830     6.0000    -0.1830     3.8612     3.8612     0.0000
  3 C      6.1430     6.0000    -0.1430     3.8687     3.8687     0.0000
  4 C      6.2711     6.0000    -0.2711     4.0631     4.0631    -0.0000
  5 H      0.8799     1.0000     0.1201     0.9629     0.9629     0.0000
  6 C      5.6736     6.0000     0.3264     3.4083     3.4083     0.0000
  7 H      0.8794     1.0000     0.1206     0.9637     0.9637    -0.0000
  8 H      0.9194     1.0000     0.0806     1.0174     1.0174     0.0000
  9 H      0.9194     1.0000     0.0806     1.0173     1.0173    -0.0000
 10 S     16.8350    16.0000    -0.8350     1.5937     1.5937     0.0000
 11 H      0.8801     1.0000     0.1199     0.9629     0.9629     0.0000

  Mayer bond orders larger than 0.100000
B(  0-C ,  1-C ) :   1.4085 B(  0-C ,  6-C ) :   1.2468 B(  0-C ,  8-H ) :   0.9874 
B(  0-C , 10-S ) :   0.2360 B(  1-C ,  2-C ) :   1.3651 B(  1-C ,  5-H ) :   0.9665 
B(  2-C ,  3-C ) :   1.3648 B(  2-C ,  7-H ) :   0.9691 B(  3-C ,  4-C ) :   1.4079 
B(  3-C , 11-H ) :   0.9667 B(  4-C ,  6-C ) :   1.2470 B(  4-C ,  9-H ) :   0.9876 
B(  4-C , 10-S ) :   0.2351 B(  6-C , 10-S ) :   0.8770 

-------
TIMINGS
-------

Total SCF time: 0 days 0 hours 0 min 41 sec 

Total time                  ....      41.856 sec
Sum of individual times     ....      39.938 sec  ( 95.4%)

Fock matrix formation       ....      37.699 sec  ( 90.1%)
  Split-RI-J                ....       6.445 sec  ( 17.1% of F)
  XC integration            ....      19.602 sec  ( 52.0% of F)
    Basis function eval.    ....       5.530 sec  ( 28.2% of XC)
    Density eval.           ....       4.601 sec  ( 23.5% of XC)
    XC-Functional eval.     ....       0.769 sec  (  3.9% of XC)
    XC-Potential eval.      ....       6.048 sec  ( 30.9% of XC)
Diagonalization             ....       0.067 sec  (  0.2%)
Density matrix formation    ....       0.009 sec  (  0.0%)
Population analysis         ....       0.034 sec  (  0.1%)
Initial guess               ....       0.653 sec  (  1.6%)
Orbital Transformation      ....       0.000 sec  (  0.0%)
Orbital Orthonormalization  ....       0.000 sec  (  0.0%)
DIIS solution               ....       0.106 sec  (  0.3%)
SOSCF solution              ....       0.264 sec  (  0.6%)
Grid generation             ....       1.105 sec  (  2.6%)

Maximum memory used throughout the entire SCF-calculation: 99.0 MB


-------------------------------------------------------------------------------
                          DFT DISPERSION CORRECTION                            
                                                                               
                              DFTD3 V3.1  Rev 1                                
                          USING Becke-Johnson damping                          
-------------------------------------------------------------------------------
The PBE functional is recognized
Active option DFTDOPT                   ...         4   

molecular C6(AA) [au] = 2525.001353 


            DFT-D V3
 parameters
 s6 scaling factor         :     1.0000 
 a1 scaling factor         :     0.4289 
 s8 scaling factor         :     0.7875 
 a2 scaling factor         :     4.4407 
 ad hoc parameters k1-k3   :    16.0000     1.3333    -4.0000 

 Edisp/kcal,au: -8.371652855134  -0.013341076602 
 E6   /kcal   :  -5.680743975 
 E8   /kcal   :  -2.690908880 
 % E8         :  32.143101566 

-------------------------   ----------------
Dispersion correction           -0.013341077
-------------------------   ----------------


-------------------------   --------------------
FINAL SINGLE POINT ENERGY      -629.610683566088
-------------------------   --------------------

------------------------------------------------------------------------------
                         ORCA SCF GRADIENT CALCULATION
------------------------------------------------------------------------------

Gradient of the Kohn-Sham DFT energy:
Kohn-Sham wavefunction type      ... RKS
Hartree-Fock exchange scaling    ...    0.000
Number of operators              ...    1
Number of atoms                  ...   12
Basis set dimensions             ...  253
Integral neglect threshold       ... 2.5e-11
Integral primitive cutoff        ... 2.5e-12
SHARK Integral package           ... ON

Nuc. rep. gradient       (SHARK) ... done (  0.0 sec)
HCore & Overlap gradient (SHARK) ... done (  0.3 sec)
RI-J gradient            (SHARK) ... done (  2.1 sec)
Exchange-correlation gradient    ... done
Dispersion correction            ... done

------------------
CARTESIAN GRADIENT
------------------

   1   C   :   -0.013921071    0.010111663    0.016518963
   2   C   :    0.003019325   -0.003777354   -0.004676364
   3   C   :   -0.002064291    0.003626072    0.003963198
   4   C   :    0.002099578   -0.004585150   -0.004545629
   5   C   :   -0.003027583    0.018238904    0.014737684
   6   H   :   -0.004797297   -0.000493642    0.002935673
   7   C   :    0.005763285   -0.009792249   -0.010933099
   8   H   :   -0.001871773    0.003118385    0.003425466
   9   H   :   -0.000229547   -0.002999673   -0.001927028
  10   H   :    0.002528033   -0.000901137   -0.002364253
  11   S   :    0.010316180   -0.017403121   -0.018996161
  12   H   :    0.002185161    0.004857303    0.001861551

Difference to translation invariance:
           :   -0.0000000000   -0.0000000000   -0.0000000000

Difference to rotation invariance:
           :    0.0003901109   -0.0004899950    0.0008019465

Norm of the cartesian gradient     ...    0.0488407240
RMS gradient                       ...    0.0081401207
MAX gradient                       ...    0.0189961615

-------
TIMINGS
-------

Total SCF gradient time            ...       11.744 sec

One electron gradient       ....       0.286 sec  (  2.4%)
RI-J Coulomb gradient       ....       2.100 sec  ( 17.9%)
XC gradient                 ....       7.952 sec  ( 67.7%)
CPCM gradient               ....       0.500 sec  (  4.3%)
   A-Matrix (El+Nuc)        ....       0.029 sec  (  0.2%)
   Potential                ....       0.470 sec  (  4.0%)

Maximum memory used throughout the entire SCFGRAD-calculation: 102.0 MB
------------------------------------------------------------------------------
                         ORCA GEOMETRY RELAXATION STEP
------------------------------------------------------------------------------

Reading the OPT-File                    .... done
Getting information on internals        .... done
Copying old internal coords+grads       .... done
Making the new internal coordinates     .... (new redundants).... done
Validating the new internal coordinates .... (new redundants).... done
Calculating the B-matrix                .... done
Calculating the G,G- and P matrices     .... done
Transforming gradient to internals      .... done
Projecting the internal gradient        .... done
Number of atoms                         ....  12
Number of internal coordinates          ....  54
Current Energy                          ....  -629.610683566 Eh
Current gradient norm                   ....     0.048840724 Eh/bohr
Maximum allowed component of the step   ....  0.300
Current trust radius                    ....  0.300
Evaluating the initial hessian          ....  (Almloef) done
Projecting the Hessian                  .... done
Forming the augmented Hessian           .... done
Diagonalizing the augmented Hessian     .... done
Last element of RFO vector              ....  0.995534566
Lowest eigenvalues of augmented Hessian:
 -0.004474286  0.025645503  0.025655223  0.025747832  0.025758215
Length of the computed step             ....  0.094821132
The final length of the internal step   ....  0.094821132
Converting the step to cartesian space:
 Initial RMS(Int)=    0.0129035217
Transforming coordinates:
 Iter   0:  RMS(Cart)=    0.0220560208 RMS(Int)=    1.9116964933
 Iter   1:  RMS(Cart)=    0.0002038481 RMS(Int)=    0.0001160289
 Iter   2:  RMS(Cart)=    0.0000022810 RMS(Int)=    0.0000014398
 Iter   3:  RMS(Cart)=    0.0000000393 RMS(Int)=    0.0000000249
done
Storing new coordinates                 .... done

                                .--------------------.
          ----------------------|Geometry convergence|-------------------------
          Item                value                   Tolerance       Converged
          ---------------------------------------------------------------------
          RMS gradient        0.0065118820            0.0001000000      NO
          MAX gradient        0.0277514249            0.0003000000      NO
          RMS step            0.0129035217            0.0020000000      NO
          MAX step            0.0538324586            0.0040000000      NO
          ........................................................
          Max(Bonds)      0.0285      Max(Angles)    2.06
          Max(Dihed)        0.10      Max(Improp)    0.00
          ---------------------------------------------------------------------

The optimization has not yet converged - more geometry cycles are needed


    ---------------------------------------------------------------------------
                         Redundant Internal Coordinates
                            (Angstroem and degrees)

        Definition                    Value    dE/dq     Step     New-Value
    ----------------------------------------------------------------------------
     1. B(C   1,C   0)                1.3977 -0.002108  0.0018    1.3995   
     2. B(C   2,C   1)                1.3954 -0.004556  0.0036    1.3990   
     3. B(C   3,C   2)                1.3954 -0.004573  0.0036    1.3990   
     4. B(C   4,C   3)                1.3977 -0.002172  0.0019    1.3996   
     5. B(H   5,C   1)                1.0846 -0.005583  0.0079    1.0926   
     6. B(C   6,C   4)                1.3939 -0.019714  0.0171    1.4110   
     7. B(C   6,C   0)                1.3939 -0.019766  0.0171    1.4111   
     8. B(H   7,C   2)                1.0846 -0.004996  0.0071    1.0917   
     9. B(H   8,C   0)                1.0866 -0.003065  0.0044    1.0910   
    10. B(H   9,C   4)                1.0866 -0.003062  0.0044    1.0910   
    11. B(S  10,C   6)                1.7147 -0.027751  0.0285    1.7432   
    12. B(H  11,C   3)                1.0846 -0.005573  0.0079    1.0926   
    13. A(C   1,C   0,H   8)          119.77  0.001363   -0.16    119.61   
    14. A(C   6,C   0,H   8)          120.36  0.005185   -0.77    119.58   
    15. A(C   1,C   0,C   6)          119.87 -0.006548    0.94    120.81   
    16. A(C   0,C   1,C   2)          120.13 -0.002984    0.34    120.47   
    17. A(C   2,C   1,H   5)          120.40  0.002331   -0.31    120.09   
    18. A(C   0,C   1,H   5)          119.48  0.000653   -0.04    119.44   
    19. A(C   3,C   2,H   7)          120.09 -0.001407    0.26    120.34   
    20. A(C   1,C   2,H   7)          120.09 -0.001314    0.24    120.33   
    21. A(C   1,C   2,C   3)          119.82  0.002720   -0.50    119.33   
    22. A(C   2,C   3,C   4)          120.13 -0.002945    0.34    120.46   
    23. A(C   4,C   3,H  11)          119.48  0.000550   -0.02    119.45   
    24. A(C   2,C   3,H  11)          120.40  0.002395   -0.32    120.08   
    25. A(C   3,C   4,C   6)          119.87 -0.006567    0.94    120.81   
    26. A(C   6,C   4,H   9)          120.36  0.005155   -0.77    119.59   
    27. A(C   3,C   4,H   9)          119.77  0.001411   -0.17    119.60   
    28. A(C   0,C   6,S  10)          119.91 -0.008199    1.03    120.95   
    29. A(C   4,C   6,S  10)          119.91 -0.008125    1.03    120.94   
    30. A(C   0,C   6,C   4)          120.18  0.016323   -2.06    118.12   
    31. D(H   5,C   1,C   0,C   6)   -180.00 -0.000000    0.00   -180.00   
    32. D(H   5,C   1,C   0,H   8)      0.00 -0.000010    0.02      0.02   
    33. D(C   2,C   1,C   0,H   8)   -180.00 -0.000016    0.03   -179.97   
    34. D(C   2,C   1,C   0,C   6)      0.00 -0.000007    0.01      0.01   
    35. D(H   7,C   2,C   1,C   0)   -180.00 -0.000004    0.01   -179.99   
    36. D(C   3,C   2,C   1,C   0)      0.00  0.000000   -0.00     -0.00   
    37. D(C   3,C   2,C   1,H   5)   -180.00 -0.000006    0.01   -179.99   
    38. D(H   7,C   2,C   1,H   5)      0.00 -0.000011    0.02      0.02   
    39. D(H  11,C   3,C   2,H   7)     -0.00  0.000000   -0.00     -0.00   
    40. D(H  11,C   3,C   2,C   1)    180.00 -0.000004    0.01    180.01   
    41. D(C   4,C   3,C   2,H   7)    180.00  0.000006   -0.01    179.99   
    42. D(C   4,C   3,C   2,C   1)     -0.00  0.000002   -0.00     -0.00   
    43. D(H   9,C   4,C   3,C   2)   -180.00  0.000006   -0.01   -180.01   
    44. D(C   6,C   4,C   3,H  11)    180.00  0.000008   -0.02    179.98   
    45. D(C   6,C   4,C   3,C   2)     -0.00  0.000002   -0.00     -0.00   
    46. D(H   9,C   4,C   3,H  11)      0.00  0.000012   -0.02     -0.02   
    47. D(S  10,C   6,C   4,H   9)     -0.00  0.000052   -0.10     -0.10   
    48. D(C   0,C   6,C   4,H   9)    180.00 -0.000012    0.02    180.02   
    49. D(C   0,C   6,C   4,C   3)      0.00 -0.000009    0.02      0.02   
    50. D(S  10,C   6,C   0,H   8)     -0.00 -0.000044    0.08      0.08   
    51. D(S  10,C   6,C   0,C   1)    180.00 -0.000054    0.10    180.10   
    52. D(S  10,C   6,C   4,C   3)   -180.00  0.000056   -0.10   -180.10   
    53. D(C   4,C   6,C   0,H   8)    180.00  0.000020   -0.04    179.96   
    54. D(C   4,C   6,C   0,C   1)     -0.00  0.000011   -0.02     -0.02   
    ----------------------------------------------------------------------------

         *************************************************************
         *                GEOMETRY OPTIMIZATION CYCLE   2            *
         *************************************************************
---------------------------------
CARTESIAN COORDINATES (ANGSTROEM)
---------------------------------
  C     -3.228090   -2.266185    0.635970
  C     -2.711796   -3.143530   -0.324440
  C     -3.402813   -4.312137   -0.662000
  C     -4.617663   -4.596599   -0.029264
  C     -5.138659   -3.722863    0.931980
  H     -1.762040   -2.908806   -0.810827
  C     -4.452139   -2.540823    1.282152
  H     -2.998015   -4.995067   -1.411397
  H     -2.677782   -1.358561    0.888125
  H     -6.087306   -3.958408    1.416520
  S     -5.099584   -1.449100    2.477010
  H     -5.167708   -5.505791   -0.283224

----------------------------
CARTESIAN COORDINATES (A.U.)
----------------------------
  NO LB      ZA    FRAG     MASS         X           Y           Z
   0 C     6.0000    0    12.011   -6.100206   -4.282470    1.201809
   1 C     6.0000    0    12.011   -5.124552   -5.940410   -0.613103
   2 C     6.0000    0    12.011   -6.430384   -8.148758   -1.250999
   3 C     6.0000    0    12.011   -8.726119   -8.686313   -0.055301
   4 C     6.0000    0    12.011   -9.710658   -7.035192    1.761188
   5 H     1.0000    0     1.008   -3.329773   -5.496846   -1.532241
   6 C     6.0000    0    12.011   -8.413323   -4.801459    2.422917
   7 H     1.0000    0     1.008   -5.665427   -9.439309   -2.667154
   8 H     1.0000    0     1.008   -5.060274   -2.567308    1.678314
   9 H     1.0000    0     1.008  -11.503341   -7.480308    2.676834
  10 S    16.0000    0    32.060   -9.636817   -2.738402    4.680870
  11 H     1.0000    0     1.008   -9.765553  -10.404437   -0.535216

--------------------------------
INTERNAL COORDINATES (ANGSTROEM)
--------------------------------
 C      0   0   0     0.000000000000     0.00000000     0.00000000
 C      1   0   0     1.399528801546     0.00000000     0.00000000
 C      2   1   0     1.398961442830   120.46592821     0.00000000
 C      3   2   1     1.398976523066   119.31820413     0.00000000
 C      4   3   2     1.399585792315   120.46087016     0.00000000
 H      2   1   3     1.092567953349   119.43954362   179.98766913
 C      5   4   3     1.411081141626   120.81584231     0.00000000
 H      3   2   1     1.091719098619   120.33345814   180.00788288
 H      1   2   3     1.090964572949   119.60788875   180.03113382
 H      5   4   3     1.090958746263   119.60009988   179.98899651
 S      7   5   4     1.743195012367   120.93199535   179.89581143
 H      4   3   2     1.092554349065   120.08373635   180.00780752

---------------------------
INTERNAL COORDINATES (A.U.)
---------------------------
 C      0   0   0     0.000000000000     0.00000000     0.00000000
 C      1   0   0     2.644726151456     0.00000000     0.00000000
 C      2   1   0     2.643653998864   120.46592821     0.00000000
 C      3   2   1     2.643682496380   119.31820413     0.00000000
 C      4   3   2     2.644833848403   120.46087016     0.00000000
 H      2   1   3     2.064654214529   119.43954362   179.98766913
 C      5   4   3     2.666556910414   120.81584231     0.00000000
 H      3   2   1     2.063050111561   120.33345814   180.00788288
 H      1   2   3     2.061624264685   119.60788875   180.03113382
 H      5   4   3     2.061613253844   119.60009988   179.98899651
 S      7   5   4     3.294161171391   120.93199535   179.89581143
 H      4   3   2     2.064628506158   120.08373635   180.00780752

------------------------------------------------------------------------------
                   ___                                                        
                  /   \      - P O W E R E D   B Y -                         
                 /     \                                                     
                 |  |  |   _    _      __       _____    __    __             
                 |  |  |  | |  | |    /  \     |  _  \  |  |  /  |          
                  \  \/   | |  | |   /    \    | | | |  |  | /  /          
                 / \  \   | |__| |  /  /\  \   | |_| |  |  |/  /          
                |  |  |   |  __  | /  /__\  \  |    /   |      \           
                |  |  |   | |  | | |   __   |  |    \   |  |\   \          
                \     /   | |  | | |  |  |  |  | |\  \  |  | \   \       
                 \___/    |_|  |_| |__|  |__|  |_| \__\ |__|  \__/        
                                                                              
                      - O R C A' S   B I G   F R I E N D -                    
                                      &                                       
                       - I N T E G R A L  F E E D E R -                       
                                                                              
 v1 FN, 2020, v2 2021                                                         
------------------------------------------------------------------------------


Reading SHARK input file inp.SHARKINP.tmp ... ok
----------------------
SHARK INTEGRAL PACKAGE
----------------------

Number of atoms                             ...     12
Number of basis functions                   ...    253
Number of shells                            ...     99
Maximum angular momentum                    ...      3
Integral batch strategy                     ... SHARK/LIBINT Hybrid
RI-J (if used) integral strategy            ... SPLIT-RIJ (Revised 2003 algorithm where possible)
Printlevel                                  ...      1
Contraction scheme used                     ... SEGMENTED contraction
Coulomb Range Separation                    ... NOT USED
Exchange Range Separation                   ... NOT USED
Finite Nucleus Model                        ... NOT USED
Auxiliary Coulomb fitting basis             ... AVAILABLE
   # of basis functions in Aux-J            ...    400
   # of shells in Aux-J                     ...    132
   Maximum angular momentum in Aux-J        ...      4
Auxiliary J/K fitting basis                 ... NOT available
Auxiliary Correlation fitting basis         ... NOT available
Auxiliary 'external' fitting basis          ... NOT available
Integral threshold                          ...     2.500000e-11
Primitive cut-off                           ...     2.500000e-12
Primitive pair pre-selection threshold      ...     2.500000e-12

Calculating pre-screening integrals         ... done (  0.1 sec) Dimension = 99
Organizing shell pair data                  ... done (  0.2 sec)
Shell pair information
Total number of shell pairs                 ...      4950
[...]
 186   0.0000       3.068242        83.4911 
 187   0.0000       3.078686        83.7753 
 188   0.0000       3.099446        84.3402 
 189   0.0000       3.105931        84.5167 
 190   0.0000       3.148332        85.6705 
 191   0.0000       3.175664        86.4142 
 192   0.0000       3.178539        86.4924 
 193   0.0000       3.187004        86.7228 
 194   0.0000       3.195264        86.9476 
 195   0.0000       3.269080        88.9562 
 196   0.0000       3.295060        89.6631 
 197   0.0000       3.305155        89.9378 
 198   0.0000       3.307692        90.0069 
 199   0.0000       3.314931        90.2039 
 200   0.0000       3.345581        91.0379 
 201   0.0000       3.395208        92.3883 
 202   0.0000       3.408938        92.7619 
 203   0.0000       3.427718        93.2729 
 204   0.0000       3.429767        93.3287 
 205   0.0000       3.451957        93.9325 
 206   0.0000       3.472585        94.4938 
 207   0.0000       3.473019        94.5056 
 208   0.0000       3.607035        98.1524 
 209   0.0000       3.612520        98.3017 
 210   0.0000       3.642201        99.1093 
 211   0.0000       3.688987       100.3824 
 212   0.0000       3.770123       102.5903 
 213   0.0000       3.784393       102.9786 
 214   0.0000       3.848437       104.7213 
 215   0.0000       3.923459       106.7627 
 216   0.0000       3.953596       107.5828 
 217   0.0000       3.963311       107.8472 
 218   0.0000       3.999949       108.8441 
 219   0.0000       4.032189       109.7214 
 220   0.0000       4.082329       111.0858 
 221   0.0000       4.090875       111.3184 
 222   0.0000       4.116840       112.0249 
 223   0.0000       4.123312       112.2010 
 224   0.0000       4.125456       112.2594 
 225   0.0000       4.157603       113.1341 
 226   0.0000       4.191266       114.0502 
 227   0.0000       4.222049       114.8878 
 228   0.0000       4.232605       115.1750 
 229   0.0000       4.508859       122.6923 
 230   0.0000       4.511741       122.7707 
 231   0.0000       4.545587       123.6917 
 232   0.0000       4.590835       124.9230 
 233   0.0000       4.591447       124.9396 
 234   0.0000       4.744899       129.1153 
 235   0.0000       4.793276       130.4317 
 236   0.0000       4.827236       131.3558 
 237   0.0000       5.033332       136.9639 
 238   0.0000       5.034315       136.9907 
 239   0.0000       5.155073       140.2767 
 240   0.0000       5.225830       142.2021 
 241   0.0000       5.300121       144.2236 
 242   0.0000       5.477348       149.0462 
 243   0.0000       8.766223       238.5411 
 244   0.0000       8.857371       241.0213 
 245   0.0000       9.281519       252.5630 
 246   0.0000      19.439246       528.9688 
 247   0.0000      21.647024       589.0455 
 248   0.0000      22.288290       606.4952 
 249   0.0000      22.303944       606.9212 
 250   0.0000      22.383332       609.0814 
 251   0.0000      22.387437       609.1931 
 252   0.0000      22.739750       618.7800 

                    ********************************
                    * MULLIKEN POPULATION ANALYSIS *
                    ********************************

-----------------------
MULLIKEN ATOMIC CHARGES
-----------------------
   0 C :   -0.243091
   1 C :   -0.157737
   2 C :   -0.168525
   3 C :   -0.156792
   4 C :   -0.241828
   5 H :    0.121092
   6 C :    0.251342
   7 H :    0.124844
   8 H :    0.082504
   9 H :    0.082493
  10 S :   -0.815283
  11 H :    0.120979
Sum of atomic charges:   -1.0000000

--------------------------------
MULLIKEN REDUCED ORBITAL CHARGES
--------------------------------
  0 C s       :     3.273622  s :     3.273622
      pz      :     0.995021  p :     2.874917
      px      :     0.946214
      py      :     0.933682
      dz2     :     0.019737  d :     0.087848
      dxz     :     0.019478
      dyz     :     0.010580
      dx2y2   :     0.016652
      dxy     :     0.021400
      f0      :     0.000631  f :     0.006704
      f+1     :     0.001265
      f-1     :     0.000805
      f+2     :     0.001137
      f-2     :     0.001192
      f+3     :     0.000851
      f-3     :     0.000824
  1 C s       :     3.207358  s :     3.207358
      pz      :     0.956097  p :     2.853299
      px      :     0.963026
      py      :     0.934176
      dz2     :     0.016289  d :     0.090329
      dxz     :     0.014161
      dyz     :     0.019397
      dx2y2   :     0.025641
      dxy     :     0.014840
      f0      :     0.000927  f :     0.006751
      f+1     :     0.000584
      f-1     :     0.001006
      f+2     :     0.001143
      f-2     :     0.001131
      f+3     :     0.000569
      f-3     :     0.001391
  2 C s       :     3.194898  s :     3.194898
      pz      :     0.991534  p :     2.882384
      px      :     0.938572
      py      :     0.952278
      dz2     :     0.011405  d :     0.084533
      dxz     :     0.013093
      dyz     :     0.016572
      dx2y2   :     0.019635
      dxy     :     0.023828
      f0      :     0.000413  f :     0.006710
      f+1     :     0.001266
      f-1     :     0.000728
      f+2     :     0.000763
      f-2     :     0.001309
      f+3     :     0.000725
      f-3     :     0.001506
  3 C s       :     3.207108  s :     3.207108
      pz      :     0.950367  p :     2.852662
      px      :     0.943062
      py      :     0.959233
      dz2     :     0.022588  d :     0.090275
      dxz     :     0.019063
      dyz     :     0.009858
      dx2y2   :     0.016492
      dxy     :     0.022273
      f0      :     0.000618  f :     0.006747
      f+1     :     0.001278
      f-1     :     0.000859
      f+2     :     0.001093
      f-2     :     0.001124
      f+3     :     0.000961
      f-3     :     0.000816
  4 C s       :     3.273574  s :     3.273574
      pz      :     0.986184  p :     2.873796
      px      :     0.917490
      py      :     0.970121
      dz2     :     0.014665  d :     0.087755
      dxz     :     0.013715
      dyz     :     0.019737
      dx2y2   :     0.024682
      dxy     :     0.014957
      f0      :     0.000846  f :     0.006703
      f+1     :     0.000558
      f-1     :     0.001084
      f+2     :     0.001238
      f-2     :     0.001101
      f+3     :     0.000606
      f-3     :     0.001270
  5 H s       :     0.857401  s :     0.857401
      pz      :     0.006147  p :     0.021507
      px      :     0.010841
      py      :     0.004519
  6 C s       :     3.094514  s :     3.094514
      pz      :     0.942805  p :     2.506676
      px      :     0.735262
      py      :     0.828609
      dz2     :     0.031448  d :     0.138956
      dxz     :     0.021830
      dyz     :     0.021945
      dx2y2   :     0.030165
      dxy     :     0.033567
      f0      :     0.000714  f :     0.008511
      f+1     :     0.001400
      f-1     :     0.001003
      f+2     :     0.001192
      f-2     :     0.001494
      f+3     :     0.000924
      f-3     :     0.001785
  7 H s       :     0.853358  s :     0.853358
      pz      :     0.008771  p :     0.021797
      px      :     0.005388
      py      :     0.007637
  8 H s       :     0.895531  s :     0.895531
      pz      :     0.005062  p :     0.021965
      px      :     0.006362
      py      :     0.010540
  9 H s       :     0.895548  s :     0.895548
      pz      :     0.006400  p :     0.021959
      px      :     0.011019
      py      :     0.004540
 10 S s       :     5.715748  s :     5.715748
      pz      :     3.518223  p :    11.015014
      px      :     3.854087
      py      :     3.642704
      dz2     :     0.017594  d :     0.075990
      dxz     :     0.012309
      dyz     :     0.024375
      dx2y2   :     0.008163
      dxy     :     0.013549
      f0      :     0.000948  f :     0.008531
      f+1     :     0.000809
      f-1     :     0.001990
      f+2     :     0.001402
      f-2     :     0.002120
      f+3     :     0.000768
      f-3     :     0.000495
 11 H s       :     0.857507  s :     0.857507
      pz      :     0.004867  p :     0.021514
      px      :     0.006372
      py      :     0.010275


                     *******************************
                     * LOEWDIN POPULATION ANALYSIS *
                     *******************************

----------------------
LOEWDIN ATOMIC CHARGES
----------------------
   0 C :   -0.193838
   1 C :   -0.178650
   2 C :   -0.196741
   3 C :   -0.178632
   4 C :   -0.193654
   5 H :    0.146138
   6 C :   -0.490308
   7 H :    0.143236
   8 H :    0.136054
   9 H :    0.136127
  10 S :   -0.275853
  11 H :    0.146121

-------------------------------
LOEWDIN REDUCED ORBITAL CHARGES
-------------------------------
  0 C s       :     2.782610  s :     2.782610
      pz      :     0.997007  p :     2.989299
      px      :     1.006982
      py      :     0.985309
      dz2     :     0.075273  d :     0.381603
      dxz     :     0.082959
      dyz     :     0.052355
      dx2y2   :     0.073609
      dxy     :     0.097408
      f0      :     0.004249  f :     0.040325
      f+1     :     0.006039
      f-1     :     0.004800
      f+2     :     0.007863
      f-2     :     0.005805
      f+3     :     0.005447
      f-3     :     0.006121
  1 C s       :     2.776364  s :     2.776364
      pz      :     0.968899  p :     2.965496
      px      :     0.969336
      py      :     1.027261
      dz2     :     0.063844  d :     0.394877
      dxz     :     0.062819
      dyz     :     0.085266
      dx2y2   :     0.105547
      dxy     :     0.077401
      f0      :     0.005906  f :     0.041914
      f+1     :     0.004033
      f-1     :     0.005060
      f+2     :     0.006958
      f-2     :     0.005991
      f+3     :     0.005197
      f-3     :     0.008769
  2 C s       :     2.774751  s :     2.774751
      pz      :     0.966139  p :     2.998876
      px      :     1.026430
      py      :     1.006308
      dz2     :     0.043712  d :     0.381368
      dxz     :     0.066123
      dyz     :     0.075067
      dx2y2   :     0.092363
      dxy     :     0.104104
      f0      :     0.003264  f :     0.041746
      f+1     :     0.006811
      f-1     :     0.003702
      f+2     :     0.006882
      f-2     :     0.005528
      f+3     :     0.005769
      f-3     :     0.009790
  3 C s       :     2.776371  s :     2.776371
      pz      :     0.980734  p :     2.965505
      px      :     1.010694
      py      :     0.974077
      dz2     :     0.086897  d :     0.394844
      dxz     :     0.082027
      dyz     :     0.050505
      dx2y2   :     0.073544
      dxy     :     0.101872
      f0      :     0.004341  f :     0.041913
      f+1     :     0.006237
      f-1     :     0.005186
      f+2     :     0.007850
      f-2     :     0.005795
      f+3     :     0.006125
      f-3     :     0.006378
  4 C s       :     2.782609  s :     2.782609
      pz      :     0.987519  p :     2.989157
      px      :     0.974386
      py      :     1.027252
      dz2     :     0.056737  d :     0.381567
      dxz     :     0.062532
      dyz     :     0.085001
      dx2y2   :     0.102157
      dxy     :     0.075140
      f0      :     0.005350  f :     0.040321
      f+1     :     0.003812
      f-1     :     0.005231
      f+2     :     0.007130
      f-2     :     0.005799
      f+3     :     0.005011
      f-3     :     0.007988
  5 H s       :     0.795473  s :     0.795473
      pz      :     0.016726  p :     0.058389
      px      :     0.028954
      py      :     0.012709
  6 C s       :     2.802093  s :     2.802093
      pz      :     0.978317  p :     3.046491
      px      :     1.035026
      py      :     1.033148
      dz2     :     0.114359  d :     0.588487
      dxz     :     0.101618
      dyz     :     0.107614
      dx2y2   :     0.128799
      dxy     :     0.136098
      f0      :     0.005318  f :     0.053237
      f+1     :     0.007634
      f-1     :     0.005412
      f+2     :     0.009381
      f-2     :     0.006987
      f+3     :     0.007011
      f-3     :     0.011495
  7 H s       :     0.797071  s :     0.797071
      pz      :     0.023759  p :     0.059693
      px      :     0.015049
      py      :     0.020885
  8 H s       :     0.804631  s :     0.804631
      pz      :     0.013866  p :     0.059316
      px      :     0.017333
      py      :     0.028117
  9 H s       :     0.804561  s :     0.804561
      pz      :     0.017342  p :     0.059312
      px      :     0.029433
      py      :     0.012537
 10 S s       :     5.461613  s :     5.461613
      pz      :     3.445928  p :    10.661750
      px      :     3.691079
      py      :     3.524743
      dz2     :     0.028669  d :     0.131497
      dxz     :     0.023541
      dyz     :     0.039261
      dx2y2   :     0.018168
      dxy     :     0.021858
      f0      :     0.002246  f :     0.020993
      f+1     :     0.002059
      f-1     :     0.004546
      f+2     :     0.004003
      f-2     :     0.004905
      f+3     :     0.001659
      f-3     :     0.001574
 11 H s       :     0.795486  s :     0.795486
      pz      :     0.013442  p :     0.058393
      px      :     0.017490
      py      :     0.027461


                      *****************************
                      * MAYER POPULATION ANALYSIS *
                      *****************************

  NA   - Mulliken gross atomic population
  ZA   - Total nuclear charge
  QA   - Mulliken gross atomic charge
  VA   - Mayer's total valence
  BVA  - Mayer's bonded valence
  FA   - Mayer's free valence

  ATOM       NA         ZA         QA         VA         BVA        FA
  0 C      6.2431     6.0000    -0.2431     3.9991     3.9991    -0.0000
  1 C      6.1577     6.0000    -0.1577     3.8792     3.8792     0.0000
  2 C      6.1685     6.0000    -0.1685     3.8478     3.8478    -0.0000
  3 C      6.1568     6.0000    -0.1568     3.8771     3.8771     0.0000
  4 C      6.2418     6.0000    -0.2418     3.9969     3.9969     0.0000
  5 H      0.8789     1.0000     0.1211     0.9626     0.9626    -0.0000
  6 C      5.7487     6.0000     0.2513     3.5048     3.5048    -0.0000
  7 H      0.8752     1.0000     0.1248     0.9637     0.9637    -0.0000
  8 H      0.9175     1.0000     0.0825     1.0087     1.0087     0.0000
  9 H      0.9175     1.0000     0.0825     1.0086     1.0086    -0.0000
 10 S     16.8153    16.0000    -0.8153     1.5976     1.5976     0.0000
 11 H      0.8790     1.0000     0.1210     0.9626     0.9626     0.0000

  Mayer bond orders larger than 0.100000
B(  0-C ,  1-C ) :   1.4119 B(  0-C ,  6-C ) :   1.2351 B(  0-C ,  8-H ) :   0.9835 
B(  0-C , 10-S ) :   0.2061 B(  1-C ,  2-C ) :   1.3609 B(  1-C ,  5-H ) :   0.9645 
B(  2-C ,  3-C ) :   1.3605 B(  2-C ,  7-H ) :   0.9670 B(  3-C ,  4-C ) :   1.4107 
B(  3-C , 11-H ) :   0.9647 B(  4-C ,  6-C ) :   1.2351 B(  4-C ,  9-H ) :   0.9839 
B(  4-C , 10-S ) :   0.2049 B(  6-C , 10-S ) :   0.9621 

-------
TIMINGS
-------

Total SCF time: 0 days 0 hours 0 min 13 sec 

Total time                  ....      13.624 sec
Sum of individual times     ....      12.364 sec  ( 90.8%)

Fock matrix formation       ....      11.384 sec  ( 83.6%)
  Split-RI-J                ....       2.080 sec  ( 18.3% of F)
  XC integration            ....       5.756 sec  ( 50.6% of F)
    Basis function eval.    ....       1.810 sec  ( 31.5% of XC)
    Density eval.           ....       1.482 sec  ( 25.7% of XC)
    XC-Functional eval.     ....       0.252 sec  (  4.4% of XC)
    XC-Potential eval.      ....       1.591 sec  ( 27.6% of XC)
Diagonalization             ....       0.011 sec  (  0.1%)
Density matrix formation    ....       0.003 sec  (  0.0%)
Population analysis         ....       0.137 sec  (  1.0%)
Initial guess               ....       0.013 sec  (  0.1%)
Orbital Transformation      ....       0.000 sec  (  0.0%)
Orbital Orthonormalization  ....       0.010 sec  (  0.1%)
DIIS solution               ....       0.002 sec  (  0.0%)
SOSCF solution              ....       0.068 sec  (  0.5%)
Grid generation             ....       0.746 sec  (  5.5%)

Maximum memory used throughout the entire SCF-calculation: 98.6 MB


-------------------------------------------------------------------------------
                          DFT DISPERSION CORRECTION                            
                                                                               
                              DFTD3 V3.1  Rev 1                                
                          USING Becke-Johnson damping                          
-------------------------------------------------------------------------------
The PBE functional is recognized
Active option DFTDOPT                   ...         4   

molecular C6(AA) [au] = 2533.635933 


            DFT-D V3
 parameters
 s6 scaling factor         :     1.0000 
 a1 scaling factor         :     0.4289 
 s8 scaling factor         :     0.7875 
 a2 scaling factor         :     4.4407 
 ad hoc parameters k1-k3   :    16.0000     1.3333    -4.0000 

 Edisp/kcal,au: -8.300390495854  -0.013227512816 
 E6   /kcal   :  -5.635039405 
 E8   /kcal   :  -2.665351091 
 % E8         :  32.111152990 

-------------------------   ----------------
Dispersion correction           -0.013227513
-------------------------   ----------------


-------------------------   --------------------
FINAL SINGLE POINT ENERGY      -629.614099941667
-------------------------   --------------------

                                *** OPTIMIZATION RUN DONE ***

                            ***************************************
                            *     ORCA property calculations      *
                            ***************************************

                                    ---------------------
                                    Active property flags
                                    ---------------------
   (+) Dipole Moment


------------------------------------------------------------------------------
                       ORCA ELECTRIC PROPERTIES CALCULATION
------------------------------------------------------------------------------

Dipole Moment Calculation                       ... on
Quadrupole Moment Calculation                   ... off
Polarizability Calculation                      ... off
GBWName                                         ... inp.gbw
Electron density                                ... inp.scfp
The origin for moment calculation is the CENTER OF MASS  = (-8.057615, -5.402482  1.761781)

-------------
DIPOLE MOMENT
-------------
                                X             Y             Z
Electronic contribution:     -1.20780       2.03512       2.23509
Nuclear contribution   :      2.49428      -4.20854      -4.61649
                        -----------------------------------------
Total Dipole Moment    :      1.28649      -2.17342      -2.38140
                        -----------------------------------------
Magnitude (a.u.)       :      3.47129
Magnitude (Debye)      :      8.82333



--------------------
Rotational spectrum 
--------------------
 
Rotational constants in cm-1:     0.190724     0.052492     0.041163 
Rotational constants in MHz :  5717.765123  1573.675990  1234.037232 

 Dipole components along the rotational axes: 
x,y,z [a.u.] :     3.471293    -0.001333     0.001393 
x,y,z [Debye]:     8.823326    -0.003389     0.003541 

 

Timings for individual modules:

Sum of individual times         ...      253.702 sec (=   4.228 min)
GTO integral calculation        ...        7.544 sec (=   0.126 min)   3.0 %
SCF iterations                  ...      175.353 sec (=   2.923 min)  69.1 %
SCF Gradient evaluation         ...       69.956 sec (=   1.166 min)  27.6 %
Geometry relaxation             ...        0.849 sec (=   0.014 min)   0.3 %
                             ****ORCA TERMINATED NORMALLY****
TOTAL RUN TIME: 0 days 0 hours 4 minutes 16 seconds 912 msec
