
                                 *****************
                                 * O   R   C   A *
                                 *****************

                                            #,                                       
                                            ###                                      
                                            ####                                     
                                            #####                                    
                                            ######                                   
                                           ########,                                 
                                     ,,################,,,,,                         
                               ,,#################################,,                 
                          ,,##########################################,,             
                       ,#########################################, ''#####,          
                    ,#############################################,,   '####,        
                  ,##################################################,,,,####,       
                ,###########''''           ''''###############################       
              ,#####''   ,,,,##########,,,,          '''####'''          '####       
            ,##' ,,,,###########################,,,                        '##       
           ' ,,###''''                  '''############,,,                           
         ,,##''                                '''############,,,,        ,,,,,,###''
      ,#''                                            '''#######################'''  
     '                                                          ''''####''''         
             ,#######,   #######,   ,#######,      ##                                
            ,#'     '#,  ##    ##  ,#'     '#,    #''#        ######   ,####,        
            ##       ##  ##   ,#'  ##            #'  '#       #        #'  '#        
            ##       ##  #######   ##           ,######,      #####,   #    #        
            '#,     ,#'  ##    ##  '#,     ,#' ,#      #,         ##   #,  ,#        
             '#######'   ##     ##  '#######'  #'      '#     #####' # '####'        



                  #######################################################
                  #                        -***-                        #
                  #          Department of theory and spectroscopy      #
                  #    Directorship and core code : Frank Neese         #
                  #        Max Planck Institute fuer Kohlenforschung    #
                  #                Kaiser Wilhelm Platz 1               #
                  #                 D-45470 Muelheim/Ruhr               #
                  #                      Germany                        #
                  #                                                     #
                  #                  All rights reserved                #
                  #                        -***-                        #
                  #######################################################


                         Program Version 5.0.4 -  RELEASE  -


 With contributions from (in alphabetic order):
   Daniel Aravena         : Magnetic Suceptibility
   Michael Atanasov       : Ab Initio Ligand Field Theory (pilot matlab implementation)
   Alexander A. Auer      : GIAO ZORA, VPT2 properties, NMR spectrum
   Ute Becker             : Parallelization
   Giovanni Bistoni       : ED, misc. LED, open-shell LED, HFLD
   Martin Brehm           : Molecular dynamics
   Dmytro Bykov           : SCF Hessian
   Vijay G. Chilkuri      : MRCI spin determinant printing, contributions to CSF-ICE
   Dipayan Datta          : RHF DLPNO-CCSD density
   Achintya Kumar Dutta   : EOM-CC, STEOM-CC
   Dmitry Ganyushin       : Spin-Orbit,Spin-Spin,Magnetic field MRCI
   Miquel Garcia          : C-PCM and meta-GGA Hessian, CC/C-PCM, Gaussian charge scheme
   Yang Guo               : DLPNO-NEVPT2, F12-NEVPT2, CIM, IAO-localization
   Andreas Hansen         : Spin unrestricted coupled pair/coupled cluster methods
   Benjamin Helmich-Paris : MC-RPA, TRAH-SCF, COSX integrals
   Lee Huntington         : MR-EOM, pCC
   Robert Izsak           : Overlap fitted RIJCOSX, COSX-SCS-MP3, EOM
   Marcus Kettner         : VPT2
   Christian Kollmar      : KDIIS, OOCD, Brueckner-CCSD(T), CCSD density, CASPT2, CASPT2-K
   Simone Kossmann        : Meta GGA functionals, TD-DFT gradient, OOMP2, MP2 Hessian
   Martin Krupicka        : Initial AUTO-CI
   Lucas Lang             : DCDCAS
   Marvin Lechner         : AUTO-CI (C++ implementation), FIC-MRCC
   Dagmar Lenk            : GEPOL surface, SMD
   Dimitrios Liakos       : Extrapolation schemes; Compound Job, initial MDCI parallelization
   Dimitrios Manganas     : Further ROCIS development; embedding schemes
   Dimitrios Pantazis     : SARC Basis sets
   Anastasios Papadopoulos: AUTO-CI, single reference methods and gradients
   Taras Petrenko         : DFT Hessian,TD-DFT gradient, ASA, ECA, R-Raman, ABS, FL, XAS/XES, NRVS
   Peter Pinski           : DLPNO-MP2, DLPNO-MP2 Gradient
   Christoph Reimann      : Effective Core Potentials
   Marius Retegan         : Local ZFS, SOC
   Christoph Riplinger    : Optimizer, TS searches, QM/MM, DLPNO-CCSD(T), (RO)-DLPNO pert. Triples
   Tobias Risthaus        : Range-separated hybrids, TD-DFT gradient, RPA, STAB
   Michael Roemelt        : Original ROCIS implementation
   Masaaki Saitow         : Open-shell DLPNO-CCSD energy and density
   Barbara Sandhoefer     : DKH picture change effects
   Avijit Sen             : IP-ROCIS
   Kantharuban Sivalingam : CASSCF convergence, NEVPT2, FIC-MRCI
   Bernardo de Souza      : ESD, SOC TD-DFT
   Georgi Stoychev        : AutoAux, RI-MP2 NMR, DLPNO-MP2 response
   Willem Van den Heuvel  : Paramagnetic NMR
   Boris Wezisla          : Elementary symmetry handling
   Frank Wennmohs         : Technical directorship


 We gratefully acknowledge several colleagues who have allowed us to
 interface, adapt or use parts of their codes:
   Stefan Grimme, W. Hujo, H. Kruse, P. Pracht,  : VdW corrections, initial TS optimization,
                  C. Bannwarth, S. Ehlert          DFT functionals, gCP, sTDA/sTD-DF
   Ed Valeev, F. Pavosevic, A. Kumar             : LibInt (2-el integral package), F12 methods
   Garnet Chan, S. Sharma, J. Yang, R. Olivares  : DMRG
   Ulf Ekstrom                                   : XCFun DFT Library
   Mihaly Kallay                                 : mrcc  (arbitrary order and MRCC methods)
   Jiri Pittner, Ondrej Demel                    : Mk-CCSD
   Frank Weinhold                                : gennbo (NPA and NBO analysis)
   Christopher J. Cramer and Donald G. Truhlar   : smd solvation model
   Lars Goerigk                                  : TD-DFT with DH, B97 family of functionals
   V. Asgeirsson, H. Jonsson                     : NEB implementation
   FAccTs GmbH                                   : IRC, NEB, NEB-TS, DLPNO-Multilevel, CI-OPT
                                                   MM, QMMM, 2- and 3-layer-ONIOM, Crystal-QMMM,
                                                   LR-CPCM, SF, NACMEs, symmetry and pop. for TD-DFT,
                                                   nearIR, NL-DFT gradient (VV10), updates on ESD,
                                                   ML-optimized integration grids
   S Lehtola, MJT Oliveira, MAL Marques          : LibXC Library
   Liviu Ungur et al                             : ANISO software


 Your calculation uses the libint2 library for the computation of 2-el integrals
 For citations please refer to: http://libint.valeyev.net

 Your ORCA version has been built with support for libXC version: 5.1.0
 For citations please refer to: https://tddft.org/programs/libxc/

 This ORCA versions uses:
   CBLAS   interface :  Fast vector & matrix operations
   LAPACKE interface :  Fast linear algebra routines
   SCALAPACK package :  Parallel linear algebra routines
   Shared memory     :  Shared parallel matrices
   BLAS/LAPACK       :  OpenBLAS 0.3.15  USE64BITINT DYNAMIC_ARCH NO_AFFINITY Haswell SINGLE_THREADED
        Core in use  :  Haswell
   Copyright (c) 2011-2014, The OpenBLAS Project


Your calculation utilizes the atom-pairwise dispersion correction
with the Becke-Johnson damping scheme (D3BJ)
Cite in your paper:
S.Grimme, S.Ehrlich, L.Goerigk, J Comput Chem, (2011), 32, 1456–1465 
S.Grimme, J.Antony, S.Ehrlich and H.Krieg, J.Chem.Phys., 132, (2010), 154104 
   

================================================================================

----- Orbital basis set information -----
Your calculation utilizes the basis: def2-TZVP
   F. Weigend and R. Ahlrichs, Phys. Chem. Chem. Phys. 7, 3297 (2005).

----- AuxJ basis set information -----
Your calculation utilizes the auxiliary basis: def2/J
   F. Weigend, Phys. Chem. Chem. Phys. 8, 1057 (2006).

================================================================================
                                        WARNINGS
                       Please study these warnings very carefully!
================================================================================


WARNING: Geometry Optimization
  ===> : Switching off AutoStart
         For restart on a previous wavefunction, please use MOREAD

INFO   : the flag for use of the SHARK integral package has been found!

================================================================================
                                       INPUT FILE
================================================================================
NAME = inp.inp
|  1> !OPT PBE D3BJ def2-TZVP CPCM(water)
|  2> 
|  3> *xyz -1 1
|  4> C     -4.098943   -1.947129    1.963258
|  5> C     -3.777630   -2.414640    0.686440
|  6> N     -7.245024   -3.877446    2.680997
|  7> C     -5.233243   -2.413637    2.637519
|  8> H     -3.464407   -1.209514    2.449151
|  9> C     -4.594940   -3.358952    0.071033
| 10> H     -2.891793   -2.040856    0.177007
| 11> C     -5.730365   -3.833649    0.731973
| 12> H     -4.349488   -3.726925   -0.923959
| 13> C     -6.050402   -3.358135    2.021571
| 14> H     -6.354860   -4.572346    0.230674
| 15> O     -5.433959   -1.960733    3.726392
| 16> O     -7.909135   -4.716578    2.050893
| 17> O     -7.550609   -3.479938    3.809984
| 18> *
| 19> 
| 20>                          ****END OF INPUT****
================================================================================

                       *****************************
                       * Geometry Optimization Run *
                       *****************************

Geometry optimization settings:
Update method            Update   .... BFGS
Choice of coordinates    CoordSys .... Z-matrix Internals
Initial Hessian          InHess   .... Almoef's Model

Convergence Tolerances:
Energy Change            TolE     ....  5.0000e-06 Eh
Max. Gradient            TolMAXG  ....  3.0000e-04 Eh/bohr
RMS Gradient             TolRMSG  ....  1.0000e-04 Eh/bohr
Max. Displacement        TolMAXD  ....  4.0000e-03 bohr
RMS Displacement         TolRMSD  ....  2.0000e-03 bohr
Strict Convergence                ....  False
------------------------------------------------------------------------------
                        ORCA OPTIMIZATION COORDINATE SETUP
------------------------------------------------------------------------------

The optimization will be done in new redundant internal coordinates
Making redundant internal coordinates   ...  (new redundants) done
Evaluating the initial hessian          ...  (Almloef) done
Evaluating the coordinates              ...  done
Calculating the B-matrix                .... done
Calculating the G-matrix                .... done
Diagonalizing the G-matrix              .... done
The first mode is                       ....   27
The number of degrees of freedom        ....   36

    -----------------------------------------------------------------
                    Redundant Internal Coordinates


    -----------------------------------------------------------------
         Definition                    Initial Value    Approx d2E/dq
    -----------------------------------------------------------------
      1. B(C   1,C   0)                  1.3972         0.608563   
      2. B(C   3,C   0)                  1.3996         0.603135   
      3. B(H   4,C   0)                  1.0876         0.363332   
      4. B(C   5,C   1)                  1.3923         0.619583   
      5. B(H   6,C   1)                  1.0881         0.362633   
      6. B(C   7,C   5)                  1.3969         0.609127   
      7. B(H   8,C   5)                  1.0889         0.361585   
      8. B(C   9,C   7)                  1.4112         0.577897   
      9. B(C   9,C   3)                  1.3926         0.618953   
     10. B(C   9,N   2)                  1.4600         0.432682   
     11. B(H  10,C   7)                  1.0895         0.360788   
     12. B(O  11,C   3)                  1.1963         1.140158   
     13. B(O  12,N   2)                  1.2419         0.863694   
     14. B(O  13,N   2)                  1.2353         0.884709   
     15. A(C   1,C   0,H   4)          120.0696         0.352331   
     16. A(C   3,C   0,H   4)          118.9259         0.351798   
     17. A(C   1,C   0,C   3)          121.0044         0.430477   
     18. A(C   5,C   1,H   6)          120.2623         0.353288   
     19. A(C   0,C   1,C   5)          119.7284         0.432563   
     20. A(C   0,C   1,H   6)          120.0093         0.352216   
     21. A(C   9,N   2,O  12)          116.6628         0.423419   
     22. A(C   9,N   2,O  13)          120.0485         0.425244   
     23. A(O  12,N   2,O  13)          123.2887         0.478887   
     24. A(C   0,C   3,C   9)          119.2457         0.431788   
     25. A(C   9,C   3,O  11)          124.1202         0.481673   
     26. A(C   0,C   3,O  11)          116.6341         0.479378   
     27. A(C   1,C   5,C   7)          119.9001         0.432635   
     28. A(C   7,C   5,H   8)          120.0483         0.352099   
     29. A(C   1,C   5,H   8)          120.0516         0.353115   
     30. A(C   5,C   7,H  10)          118.5944         0.351968   
     31. A(C   5,C   7,C   9)          120.1447         0.427260   
     32. A(C   9,C   7,H  10)          121.2609         0.348854   
     33. A(C   3,C   9,C   7)          119.9767         0.428487   
     34. A(N   2,C   9,C   7)          118.5830         0.399486   
     35. A(N   2,C   9,C   3)          121.4402         0.404347   
     36. D(C   5,C   1,C   0,C   3)      0.0000         0.025571   
     37. D(C   5,C   1,C   0,H   4)   -180.0000         0.025571   
     38. D(H   6,C   1,C   0,C   3)   -180.0000         0.025571   
     39. D(H   6,C   1,C   0,H   4)     -0.0000         0.025571   
     40. D(C   9,C   3,C   0,H   4)    180.0000         0.025092   
     41. D(O  11,C   3,C   0,H   4)      0.0000         0.025092   
     42. D(O  11,C   3,C   0,C   1)    180.0000         0.025092   
     43. D(C   9,C   3,C   0,C   1)     -0.0001         0.025092   
     44. D(H   8,C   5,C   1,H   6)      0.0000         0.026561   
     45. D(H   8,C   5,C   1,C   0)   -180.0000         0.026561   
     46. D(C   7,C   5,C   1,H   6)    180.0000         0.026561   
     47. D(C   7,C   5,C   1,C   0)     -0.0000         0.026561   
     48. D(H  10,C   7,C   5,C   1)    180.0000         0.025621   
     49. D(C   9,C   7,C   5,H   8)   -180.0000         0.025621   
     50. D(C   9,C   7,C   5,C   1)      0.0001         0.025621   
     51. D(H  10,C   7,C   5,H   8)     -0.0001         0.025621   
     52. D(C   3,C   9,C   7,H  10)    180.0000         0.022937   
     53. D(N   2,C   9,C   7,H  10)      0.0000         0.022937   
     54. D(N   2,C   9,C   7,C   5)    179.9999         0.022937   
     55. D(C   7,C   9,C   3,O  11)   -180.0000         0.026504   
     56. D(C   7,C   9,C   3,C   0)      0.0001         0.026504   
     57. D(N   2,C   9,C   3,O  11)     -0.0000         0.026504   
     58. D(N   2,C   9,C   3,C   0)   -180.0000         0.026504   
     59. D(C   7,C   9,N   2,O  13)   -179.9998         0.014745   
     60. D(C   7,C   9,N   2,O  12)      0.0001         0.014745   
     61. D(C   3,C   9,C   7,C   5)     -0.0001         0.022937   
     62. D(C   3,C   9,N   2,O  13)      0.0003         0.014745   
     63. D(C   3,C   9,N   2,O  12)   -179.9999         0.014745   
    -----------------------------------------------------------------

Number of atoms                         .... 14
Number of degrees of freedom            .... 63

         *************************************************************
         *                GEOMETRY OPTIMIZATION CYCLE   1            *
         *************************************************************
---------------------------------
CARTESIAN COORDINATES (ANGSTROEM)
---------------------------------
  C     -4.098943   -1.947129    1.963258
  C     -3.777630   -2.414640    0.686440
  N     -7.245024   -3.877446    2.680997
  C     -5.233243   -2.413637    2.637519
  H     -3.464407   -1.209514    2.449151
  C     -4.594940   -3.358952    0.071033
  H     -2.891793   -2.040856    0.177007
  C     -5.730365   -3.833649    0.731973
  H     -4.349488   -3.726925   -0.923959
  C     -6.050402   -3.358135    2.021571
  H     -6.354860   -4.572346    0.230674
  O     -5.433959   -1.960733    3.726392
  O     -7.909135   -4.716578    2.050893
  O     -7.550609   -3.479938    3.809984

----------------------------
CARTESIAN COORDINATES (A.U.)
----------------------------
  NO LB      ZA    FRAG     MASS         X           Y           Z
   0 C     6.0000    0    12.011   -7.745880   -3.679541    3.710020
   1 C     6.0000    0    12.011   -7.138686   -4.563008    1.297184
   2 N     7.0000    0    14.007  -13.691111   -7.327311    5.066350
   3 C     6.0000    0    12.011   -9.889396   -4.561113    4.984189
   4 H     1.0000    0     1.008   -6.546780   -2.285650    4.628225
   5 C     6.0000    0    12.011   -8.683178   -6.347499    0.134233
   6 H     1.0000    0     1.008   -5.464697   -3.856659    0.334495
   7 C     6.0000    0    12.011  -10.828820   -7.244547    1.383229
   8 H     1.0000    0     1.008   -8.219341   -7.042868   -1.746029
   9 C     6.0000    0    12.011  -11.433603   -6.345955    3.820216
  10 H     1.0000    0     1.008  -12.008945   -8.640482    0.435911
  11 O     8.0000    0    15.999  -10.268694   -3.705248    7.041860
  12 O     8.0000    0    15.999  -14.946099   -8.913041    3.875626
  13 O     8.0000    0    15.999  -14.268583   -6.576130    7.199826

--------------------------------
INTERNAL COORDINATES (ANGSTROEM)
--------------------------------
 C      0   0   0     0.000000000000     0.00000000     0.00000000
 C      1   0   0     1.397165983058     0.00000000     0.00000000
 N      1   2   0     3.760199283438   101.24914887     0.00000000
 C      1   2   3     1.399604980052   121.00442332     0.00000000
 H      1   2   3     1.087567851203   120.06964418   180.00001876
 C      2   1   3     1.392281065408   119.72837879     0.00000000
 H      2   1   3     1.088091747379   120.00929820   179.99997933
 C      6   2   1     1.396914047475   119.90006385     0.00000000
 H      6   2   1     1.088880109607   120.05161373   180.00003384
 C      4   1   2     1.392557805618   119.24567874     0.00000000
 H      8   6   2     1.089480587360   118.59441066   179.99999517
 O      4   1   2     1.196266423503   116.63407362   180.00000000
 O      3   1   2     1.241860291885   134.22355442     0.00000000
 O      3   1   2     1.235316335381   102.48770711   180.00024051

---------------------------
INTERNAL COORDINATES (A.U.)
---------------------------
 C      0   0   0     0.000000000000     0.00000000     0.00000000
 C      1   0   0     2.640261071610     0.00000000     0.00000000
 N      1   2   0     7.105746854666   101.24914887     0.00000000
 C      1   2   3     2.644870107970   121.00442332     0.00000000
 H      1   2   3     2.055205390831   120.06964418   180.00001876
 C      2   1   3     2.631029915065   119.72837879     0.00000000
 H      2   1   3     2.056195411126   120.00929820   179.99997933
 C      6   2   1     2.639784982356   119.90006385     0.00000000
 H      6   2   1     2.057685199831   120.05161373   180.00003384
 C      4   1   2     2.631552878273   119.24567874     0.00000000
 H      8   6   2     2.058819938335   118.59441066   179.99999517
 O      4   1   2     2.260615923626   116.63407362   180.00000000
 O      3   1   2     2.346775848254   134.22355442     0.00000000
 O      3   1   2     2.334409562628   102.48770711   180.00024051

---------------------
BASIS SET INFORMATION
---------------------
There are 4 groups of distinct atoms

 Group   1 Type C   : 11s6p2d1f contracted to 5s3p2d1f pattern {62111/411/11/1}
 Group   2 Type N   : 11s6p2d1f contracted to 5s3p2d1f pattern {62111/411/11/1}
 Group   3 Type H   : 5s1p contracted to 3s1p pattern {311/1}
 Group   4 Type O   : 11s6p2d1f contracted to 5s3p2d1f pattern {62111/411/11/1}

Atom   0C    basis set group =>   1
Atom   1C    basis set group =>   1
Atom   2N    basis set group =>   2
Atom   3C    basis set group =>   1
Atom   4H    basis set group =>   3
Atom   5C    basis set group =>   1
Atom   6H    basis set group =>   3
Atom   7C    basis set group =>   1
Atom   8H    basis set group =>   3
Atom   9C    basis set group =>   1
Atom  10H    basis set group =>   3
Atom  11O    basis set group =>   4
Atom  12O    basis set group =>   4
Atom  13O    basis set group =>   4
---------------------------------
AUXILIARY/J BASIS SET INFORMATION
---------------------------------
There are 4 groups of distinct atoms

 Group   1 Type C   : 12s5p4d2f1g contracted to 6s4p3d1f1g pattern {711111/2111/211/2/1}
 Group   2 Type N   : 12s5p4d2f1g contracted to 6s4p3d1f1g pattern {711111/2111/211/2/1}
 Group   3 Type H   : 5s2p1d contracted to 3s1p1d pattern {311/2/1}
 Group   4 Type O   : 12s5p4d2f1g contracted to 6s4p3d1f1g pattern {711111/2111/211/2/1}

Atom   0C    basis set group =>   1
Atom   1C    basis set group =>   1
Atom   2N    basis set group =>   2
Atom   3C    basis set group =>   1
Atom   4H    basis set group =>   3
Atom   5C    basis set group =>   1
Atom   6H    basis set group =>   3
Atom   7C    basis set group =>   1
Atom   8H    basis set group =>   3
Atom   9C    basis set group =>   1
Atom  10H    basis set group =>   3
Atom  11O    basis set group =>   4
Atom  12O    basis set group =>   4
Atom  13O    basis set group =>   4
------------------------------------------------------------------------------
                           ORCA GTO INTEGRAL CALCULATION
                           -- RI-GTO INTEGRALS CHOSEN --
------------------------------------------------------------------------------
------------------------------------------------------------------------------
                   ___                                                        
                  /   \      - P O W E R E D   B Y -                         
                 /     \                                                     
                 |  |  |   _    _      __       _____    __    __             
                 |  |  |  | |  | |    /  \     |  _  \  |  |  /  |          
                  \  \/   | |  | |   /    \    | | | |  |  | /  /          
                 / \  \   | |__| |  /  /\  \   | |_| |  |  |/  /          
                |  |  |   |  __  | /  /__\  \  |    /   |      \           
                |  |  |   | |  | | |   __   |  |    \   |  |\   \          
                \     /   | |  | | |  |  |  |  | |\  \  |  | \   \       
                 \___/    |_|  |_| |__|  |__|  |_| \__\ |__|  \__/        
                                                                              
                      - O R C A' S   B I G   F R I E N D -                    
                                      &                                       
                       - I N T E G R A L  F E E D E R -                       
                                                                              
 v1 FN, 2020, v2 2021                                                         
------------------------------------------------------------------------------


Reading SHARK input file inp.SHARKINP.tmp ... ok
----------------------
SHARK INTEGRAL PACKAGE
----------------------

Number of atoms                             ...     14
Number of basis functions                   ...    334
Number of shells                            ...    126
Maximum angular momentum                    ...      3
Integral batch strategy                     ... SHARK/LIBINT Hybrid
RI-J (if used) integral strategy            ... SPLIT-RIJ (Revised 2003 algorithm where possible)
Printlevel                                  ...      1
Contraction scheme used                     ... SEGMENTED contraction
Coulomb Range Separation                    ... NOT USED
Exchange Range Separation                   ... NOT USED
Finite Nucleus Model                        ... NOT USED
Auxiliary Coulomb fitting basis             ... AVAILABLE
   # of basis functions in Aux-J            ...    534
   # of shells in Aux-J                     ...    170
   Maximum angular momentum in Aux-J        ...      4
Auxiliary J/K fitting basis                 ... NOT available
Auxiliary Correlation fitting basis         ... NOT available
Auxiliary 'external' fitting basis          ... NOT available
Integral threshold                          ...     2.500000e-11
Primitive cut-off                           ...     2.500000e-12
Primitive pair pre-selection threshold      ...     2.500000e-12

Calculating pre-screening integrals         ... done (  0.1 sec) Dimension = 126
Organizing shell pair data                  ... done (  0.3 sec)
Shell pair information
Total number of shell pairs                 ...      8001
Shell pairs after pre-screening             ...      7141
Total number of primitive shell pairs       ...     25432
Primitive shell pairs kept                  ...     16602
          la=0 lb=0:   1633 shell pairs
          la=1 lb=0:   1921 shell pairs
          la=1 lb=1:    569 shell pairs
          la=2 lb=0:   1096 shell pairs
          la=2 lb=1:    642 shell pairs
          la=2 lb=2:    197 shell pairs
          la=3 lb=0:    532 shell pairs
          la=3 lb=1:    317 shell pairs
          la=3 lb=2:    184 shell pairs
          la=3 lb=3:     50 shell pairs

Calculating one electron integrals          ... done (  0.0 sec)
Calculating RI/J V-Matrix + Cholesky decomp.... done (  0.4 sec)
Calculating Nuclear repulsion               ... done (  0.0 sec) ENN=    497.865040455376 Eh

SHARK setup successfully completed in   2.0 seconds

Maximum memory used throughout the entire GTOINT-calculation: 125.6 MB
-------------------------------------------------------------------------------
                                 ORCA SCF
-------------------------------------------------------------------------------

------------
SCF SETTINGS
------------
Hamiltonian:
 Density Functional     Method          .... DFT(GTOs)
 Exchange Functional    Exchange        .... PBE
   PBE kappa parameter   XKappa         ....  0.804000
   PBE mue parameter    XMuePBE         ....  0.219520
 Correlation Functional Correlation     .... PBE
   PBE beta parameter  CBetaPBE         ....  0.066725
 LDA part of GGA corr.  LDAOpt          .... PW91-LDA
 Gradients option       PostSCFGGA      .... off
   Density functional embedding theory  .... OFF
   NL short-range parameter             ....  6.400000
 RI-approximation to the Coulomb term is turned on
   Number of AuxJ basis functions       .... 534


General Settings:
 Integral files         IntName         .... inp
 Hartree-Fock type      HFTyp           .... RHF
 Total Charge           Charge          ....   -1
 Multiplicity           Mult            ....    1
 Number of Electrons    NEL             ....   72
 Basis Dimension        Dim             ....  334
 Nuclear Repulsion      ENuc            ....    497.8650404554 Eh

Convergence Acceleration:
 DIIS                   CNVDIIS         .... on
   Start iteration      DIISMaxIt       ....    12
   Startup error        DIISStart       ....  0.200000
   # of expansion vecs  DIISMaxEq       ....     5
   Bias factor          DIISBfac        ....   1.050
   Max. coefficient     DIISMaxC        ....  10.000
 Trust-Rad. Augm. Hess. CNVTRAH         .... auto
   Auto Start mean grad. ratio tolernc. ....  1.125000
   Auto Start start iteration           ....    20
   Auto Start num. interpolation iter.  ....    10
   Max. Number of Micro iterations      ....    16
   Max. Number of Macro iterations      .... Maxiter - #DIIS iter
   Number of Davidson start vectors     ....     2
   Converg. threshold I  (grad. norm)   ....   1.000e-05
   Converg. threshold II (energy diff.) ....   1.000e-08
   Grad. Scal. Fac. for Micro threshold ....   0.100
   Minimum threshold for Micro iter.    ....   0.010
   NR start threshold (gradient norm)   ....   0.001
   Initial trust radius                 ....   0.400
   Minimum AH scaling param. (alpha)    ....   1.000
   Maximum AH scaling param. (alpha)    .... 1000.000
   Orbital update algorithm             .... Taylor
   White noise on init. David. guess    .... on
   Maximum white noise                  ....   0.010
   Quad. conv. algorithm                .... NR
 SOSCF                  CNVSOSCF        .... on
   Start iteration      SOSCFMaxIt      ....   150
   Startup grad/error   SOSCFStart      ....  0.003300
 Level Shifting         CNVShift        .... on
   Level shift para.    LevelShift      ....    0.2500
   Turn off err/grad.   ShiftErr        ....    0.0010
 Zerner damping         CNVZerner       .... off
 Static damping         CNVDamp         .... on
   Fraction old density DampFac         ....    0.7000
   Max. Damping (<1)    DampMax         ....    0.9800
   Min. Damping (>=0)   DampMin         ....    0.0000
   Turn off err/grad.   DampErr         ....    0.1000
 Fernandez-Rico         CNVRico         .... off

SCF Procedure:
 Maximum # iterations   MaxIter         ....   125
 SCF integral mode      SCFMode         .... Direct
   Integral package                     .... SHARK and LIBINT hybrid scheme
 Reset frequency        DirectResetFreq ....    20
 Integral Threshold     Thresh          ....  2.500e-11 Eh
 Primitive CutOff       TCut            ....  2.500e-12 Eh

Convergence Tolerance:
 Convergence Check Mode ConvCheckMode   .... Total+1el-Energy
 Convergence forced     ConvForced      .... 0
 Energy Change          TolE            ....  1.000e-08 Eh
 1-El. energy change                    ....  1.000e-05 Eh
 Orbital Gradient       TolG            ....  1.000e-05
 Orbital Rotation angle TolX            ....  1.000e-05
 DIIS Error             TolErr          ....  5.000e-07


Diagonalization of the overlap matrix:
Smallest eigenvalue                        ... 1.055e-05
Time for diagonalization                   ...    0.018 sec
Threshold for overlap eigenvalues          ... 1.000e-08
Number of eigenvalues below threshold      ... 0
Time for construction of square roots      ...    0.105 sec
Total time needed                          ...    0.123 sec

Time for model grid setup =    0.403 sec

------------------------------
INITIAL GUESS: MODEL POTENTIAL
------------------------------
Loading Hartree-Fock densities                     ... done
Calculating cut-offs                               ... done
Initializing the effective Hamiltonian             ... done
Setting up the integral package (SHARK)            ... done
Starting the Coulomb interaction                   ... done (   0.7 sec)
Reading the grid                                   ... done
Mapping shells                                     ... done
Starting the XC term evaluation                    ... done (   0.6 sec)
  promolecular density results
     # of electrons  =     70.997072242
     EX              =    -62.845170856
     EC              =     -2.402468505
     EX+EC           =    -65.247639362
Transforming the Hamiltonian                       ... done (   0.0 sec)
Diagonalizing the Hamiltonian                      ... done (   0.0 sec)
Back transforming the eigenvectors                 ... done (   0.0 sec)
Now organizing SCF variables                       ... done
                      ------------------
                      INITIAL GUESS DONE (   1.8 sec)
                      ------------------
-------------------
DFT GRID GENERATION
-------------------

General Integration Accuracy     IntAcc      ... 4.388
Radial Grid Type                 RadialGrid  ... OptM3 with GC (2021)
Angular Grid (max. ang.)         AngularGrid ... 4 (Lebedev-302)
Angular grid pruning method      GridPruning ... 4 (adaptive)
Weight generation scheme         WeightScheme... Becke
Basis function cutoff            BFCut       ... 1.0000e-11
Integration weight cutoff        WCut        ... 1.0000e-14
Angular grids for H and He will be reduced by one unit
Partially contracted basis set               ... off
Rotationally invariant grid construction     ... off

Total number of grid points                  ...    73417
Total number of batches                      ...     1153
Average number of points per batch           ...       63
Average number of grid points per atom       ...     5244
Time for grid setup =    1.251 sec


--------------------
CPCM SOLVATION MODEL
--------------------
CPCM parameters:
  Epsilon                                         ...      80.4000
  Refrac                                          ...       1.3300
  Rsolv                                           ...       1.3000
  Surface type                                    ... GAUSSIAN VDW
  Epsilon function type                           ...         CPCM
Radii:
 Radius for C  used is    3.8550 Bohr (=   2.0400 Ang.)
 Radius for N  used is    3.5149 Bohr (=   1.8600 Ang.)
 Radius for H  used is    2.4944 Bohr (=   1.3200 Ang.)
 Radius for O  used is    3.4469 Bohr (=   1.8240 Ang.)
Calculating surface                               ...        done! (  0.0s)
GEPOL surface points                              ...          803
GEPOL Volume                                      ...    1025.7017
GEPOL Surface-area                                ...     573.4307
Calculating surface distance matrix               ...        done! (  0.0s)
Performing Cholesky decomposition & store         ...        done! (  0.2s)
Overall time for CPCM initialization              ...                 0.2s
--------------
SCF ITERATIONS
--------------
ITER       Energy         Delta-E        Max-DP      RMS-DP      [F,P]     Damp
               ***  Starting incremental Fock matrix formation  ***
  0   -510.7834391895   0.000000000000 1.34756898  0.01102030  0.3187674 0.7000
  1   -510.9707774878  -0.187338298269 1.10704105  0.00883617  0.0979856 0.7000
                               ***Turning on DIIS***
  2   -511.0224543018  -0.051676813988 0.59331533  0.00589276  0.0333828 0.0000
  3   -511.1292379006  -0.106783598780 1.12015602  0.00860164  0.0514748 0.0000
  4   -511.1449119347  -0.015674034119 0.24511022  0.00186800  0.0290800 0.0000
  5   -511.1487591344  -0.003847199743 0.08554643  0.00067769  0.0055246 0.0000
                      *** Initiating the SOSCF procedure ***
                           *** Shutting down DIIS ***
                      *** Re-Reading the Fockian *** 
                      *** Removing any level shift *** 
ITER      Energy       Delta-E        Grad      Rot      Max-DP    RMS-DP
  6   -511.14892322  -0.0001640885  0.001300  0.001300  0.027538  0.000208
               *** Restarting incremental Fock matrix formation ***
  7   -511.14895579  -0.0000325662  0.000343  0.004489  0.014840  0.000175
  8   -511.14896008  -0.0000042908  0.000555  0.006514  0.023989  0.000177
  9   -511.14896263  -0.0000025504  0.000713  0.005902  0.008218  0.000080
 10   -511.14896998  -0.0000073448  0.000124  0.000745  0.005587  0.000046
 11   -511.14896905   0.0000009279  0.000230  0.000436  0.002828  0.000025
 12   -511.14897061  -0.0000015610  0.000071  0.000336  0.001499  0.000013
 13   -511.14897034   0.0000002707  0.000198  0.000291  0.000380  0.000005
 14   -511.14897066  -0.0000003208  0.000036  0.000088  0.001130  0.000009
 15   -511.14897061   0.0000000495  0.000052  0.000068  0.000678  0.000006
 16   -511.14897069  -0.0000000811  0.000006  0.000029  0.001349  0.000011
 17   -511.14897069  -0.0000000010  0.000009  0.000013  0.000473  0.000005
 18   -511.14897069  -0.0000000029  0.000003  0.000008  0.000857  0.000010
 19   -511.14897070  -0.0000000028  0.000004  0.000005  0.000195  0.000002
                 **** Energy Check signals convergence ****
              ***Rediagonalizing the Fockian in SOSCF/NRSCF***

               *****************************************************
               *                     SUCCESS                       *
               *           SCF CONVERGED AFTER  20 CYCLES          *
               *****************************************************


----------------
TOTAL SCF ENERGY
----------------

Total Energy       :         -511.14897070 Eh          -13909.07062 eV

Components:
Nuclear Repulsion  :          497.86504046 Eh           13547.59650 eV
Electronic Energy  :        -1009.01401116 Eh          -27456.66711 eV
One Electron Energy:        -1697.87301858 Eh          -46201.47367 eV
Two Electron Energy:          688.85900743 Eh           18744.80656 eV
CPCM Dielectric    :           -0.09337839 Eh              -2.54096 eV

Virial components:
Potential Energy   :        -1020.83223591 Eh          -27778.25736 eV
Kinetic Energy     :          509.68326521 Eh           13869.18674 eV
Virial Ratio       :            2.00287572


DFT components:
N(Alpha)           :       35.999959645275 electrons
N(Beta)            :       35.999959645275 electrons
N(Total)           :       71.999919290550 electrons
E(X)               :      -64.038337336885 Eh       
E(C)               :       -2.440801002125 Eh       
E(XC)              :      -66.479138339010 Eh       
DFET-embed. en.    :        0.000000000000 Eh       
CPCM Solvation Model Properties:
Surface-charge          :            0.97420557
Charge-correction       :           -0.00348218 Eh              -0.09475 eV
Free-energy (cav+disp)  :  This term is not implemented in the current solvation scheme

---------------
SCF CONVERGENCE
---------------

  Last Energy change         ...   -6.8962e-09  Tolerance :   1.0000e-08
  Last MAX-Density change    ...    1.7488e-04  Tolerance :   1.0000e-07
  Last RMS-Density change    ...    2.3839e-06  Tolerance :   5.0000e-09
  Last Orbital Gradient      ...    3.4369e-07  Tolerance :   1.0000e-05
  Last Orbital Rotation      ...    8.7311e-07  Tolerance :   1.0000e-05

             **** THE GBW FILE WAS UPDATED (inp.gbw) ****
             **** DENSITY inp.scfp WAS UPDATED ****
             **** ENERGY FILE WAS UPDATED (inp.en.tmp) ****
             **** THE GBW FILE WAS UPDATED (inp.gbw) ****
             **** DENSITY inp.scfp WAS UPDATED ****
----------------
ORBITAL ENERGIES
----------------

  NO   OCC          E(Eh)            E(eV) 
   0   2.0000     -18.750635      -510.2307 
   1   2.0000     -18.747688      -510.1505 
   2   2.0000     -18.670864      -508.0600 
   3   2.0000     -14.176924      -385.7737 
   4   2.0000      -9.908614      -269.6271 
   5   2.0000      -9.900411      -269.4039 
   6   2.0000      -9.882779      -268.9241 
   7   2.0000      -9.877126      -268.7703 
   8   2.0000      -9.867796      -268.5164 
   9   2.0000      -9.857920      -268.2476 
  10   2.0000      -1.101206       -29.9653 
  11   2.0000      -0.937537       -25.5117 
  12   2.0000      -0.922604       -25.1053 
  13   2.0000      -0.764664       -20.8076 
  14   2.0000      -0.703758       -19.1502 
  15   2.0000      -0.643283       -17.5046 
  16   2.0000      -0.600193       -16.3321 
  17   2.0000      -0.532178       -14.4813 
  18   2.0000      -0.504971       -13.7410 
  19   2.0000      -0.466424       -12.6920 
  20   2.0000      -0.457705       -12.4548 
  21   2.0000      -0.441342       -12.0095 
  22   2.0000      -0.417437       -11.3590 
  23   2.0000      -0.403103       -10.9690 
  24   2.0000      -0.375695       -10.2232 
  25   2.0000      -0.354267        -9.6401 
  26   2.0000      -0.348047        -9.4708 
  27   2.0000      -0.317433        -8.6378 
  28   2.0000      -0.301189        -8.1958 
  29   2.0000      -0.283038        -7.7019 
  30   2.0000      -0.256582        -6.9820 
  31   2.0000      -0.248538        -6.7631 
  32   2.0000      -0.225824        -6.1450 
  33   2.0000      -0.222757        -6.0615 
  34   2.0000      -0.165174        -4.4946 
  35   2.0000      -0.163986        -4.4623 
  36   0.0000      -0.092114        -2.5066 
  37   0.0000      -0.018643        -0.5073 
  38   0.0000       0.006982         0.1900 
  39   0.0000       0.045445         1.2366 
  40   0.0000       0.074285         2.0214 
  41   0.0000       0.079020         2.1502 
  42   0.0000       0.096519         2.6264 
  43   0.0000       0.108820         2.9612 
  44   0.0000       0.136810         3.7228 
  45   0.0000       0.140081         3.8118 
  46   0.0000       0.152668         4.1543 
  47   0.0000       0.164265         4.4699 
  48   0.0000       0.182538         4.9671 
  49   0.0000       0.191200         5.2028 
  50   0.0000       0.210546         5.7292 
  51   0.0000       0.214864         5.8467 
  52   0.0000       0.223460         6.0807 
  53   0.0000       0.227726         6.1967 
  54   0.0000       0.234165         6.3720 
  55   0.0000       0.237806         6.4710 
  56   0.0000       0.253398         6.8953 
  57   0.0000       0.286992         7.8095 
  58   0.0000       0.298654         8.1268 
  59   0.0000       0.305106         8.3023 
  60   0.0000       0.307648         8.3715 
  61   0.0000       0.315548         8.5865 
  62   0.0000       0.337800         9.1920 
  63   0.0000       0.348756         9.4901 
  64   0.0000       0.357509         9.7283 
  65   0.0000       0.368062        10.0155 
  66   0.0000       0.373052        10.1513 
  67   0.0000       0.391584        10.6556 
  68   0.0000       0.391685        10.6583 
  69   0.0000       0.400358        10.8943 
  70   0.0000       0.409838        11.1523 
  71   0.0000       0.429580        11.6895 
  72   0.0000       0.437757        11.9120 
  73   0.0000       0.443203        12.0602 
  74   0.0000       0.453400        12.3377 
  75   0.0000       0.464614        12.6428 
  76   0.0000       0.468204        12.7405 
  77   0.0000       0.473331        12.8800 
  78   0.0000       0.490421        13.3450 
  79   0.0000       0.498771        13.5723 
  80   0.0000       0.512968        13.9586 
  81   0.0000       0.520117        14.1531 
  82   0.0000       0.548993        14.9389 
  83   0.0000       0.565882        15.3984 
  84   0.0000       0.588468        16.0130 
  85   0.0000       0.599997        16.3267 
  86   0.0000       0.609979        16.5984 
  87   0.0000       0.613742        16.7008 
  88   0.0000       0.630446        17.1553 
  89   0.0000       0.639202        17.3936 
  90   0.0000       0.657146        17.8818 
  91   0.0000       0.665945        18.1213 
  92   0.0000       0.710575        19.3357 
  93   0.0000       0.711685        19.3659 
  94   0.0000       0.728366        19.8198 
  95   0.0000       0.736536        20.0422 
  96   0.0000       0.745971        20.2989 
  97   0.0000       0.770954        20.9787 
  98   0.0000       0.794890        21.6300 
  99   0.0000       0.803013        21.8511 
 100   0.0000       0.808007        21.9870 
 101   0.0000       0.833989        22.6940 
 102   0.0000       0.843651        22.9569 
 103   0.0000       0.863954        23.5094 
 104   0.0000       0.871125        23.7045 
 105   0.0000       0.915458        24.9109 
 106   0.0000       0.960458        26.1354 
 107   0.0000       0.970155        26.3992 
 108   0.0000       0.992617        27.0105 
 109   0.0000       1.007589        27.4179 
 110   0.0000       1.024423        27.8760 
 111   0.0000       1.048241        28.5241 
 112   0.0000       1.058587        28.8056 
 113   0.0000       1.075977        29.2788 
 114   0.0000       1.114759        30.3341 
 115   0.0000       1.121864        30.5275 
 116   0.0000       1.131098        30.7787 
 117   0.0000       1.162057        31.6212 
 118   0.0000       1.168543        31.7977 
 119   0.0000       1.208587        32.8873 
 120   0.0000       1.226336        33.3703 
 121   0.0000       1.243920        33.8488 
 122   0.0000       1.261220        34.3195 
 123   0.0000       1.283339        34.9214 
 124   0.0000       1.294620        35.2284 
 125   0.0000       1.323502        36.0143 
 126   0.0000       1.348830        36.7035 
 127   0.0000       1.358597        36.9693 
 128   0.0000       1.389682        37.8152 
 129   0.0000       1.406363        38.2691 
 130   0.0000       1.441564        39.2270 
 131   0.0000       1.442506        39.2526 
 132   0.0000       1.459336        39.7106 
 133   0.0000       1.464209        39.8431 
 134   0.0000       1.478288        40.2263 
 135   0.0000       1.488849        40.5136 
 136   0.0000       1.514365        41.2080 
 137   0.0000       1.550837        42.2004 
 138   0.0000       1.557940        42.3937 
 139   0.0000       1.564629        42.5757 
 140   0.0000       1.617354        44.0104 
 141   0.0000       1.621685        44.1283 
 142   0.0000       1.637265        44.5523 
 143   0.0000       1.641368        44.6639 
 144   0.0000       1.669827        45.4383 
 145   0.0000       1.691803        46.0363 
 146   0.0000       1.705540        46.4101 
 147   0.0000       1.721220        46.8368 
 148   0.0000       1.747221        47.5443 
 149   0.0000       1.782144        48.4946 
 150   0.0000       1.803790        49.0836 
 151   0.0000       1.828996        49.7695 
 152   0.0000       1.876311        51.0570 
 153   0.0000       1.878976        51.1295 
 154   0.0000       1.918331        52.2004 
 155   0.0000       1.936403        52.6922 
 156   0.0000       1.942258        52.8515 
 157   0.0000       1.982846        53.9560 
 158   0.0000       1.988375        54.1064 
 159   0.0000       1.996094        54.3165 
 160   0.0000       2.014087        54.8061 
 161   0.0000       2.030159        55.2434 
 162   0.0000       2.039953        55.5099 
 163   0.0000       2.102176        57.2031 
 164   0.0000       2.107102        57.3372 
 165   0.0000       2.112669        57.4887 
 166   0.0000       2.122068        57.7444 
 167   0.0000       2.159772        58.7704 
 168   0.0000       2.168333        59.0033 
 169   0.0000       2.189446        59.5779 
 170   0.0000       2.214289        60.2539 
 171   0.0000       2.283418        62.1350 
 172   0.0000       2.287992        62.2594 
 173   0.0000       2.329785        63.3967 
 174   0.0000       2.337558        63.6082 
 175   0.0000       2.390378        65.0455 
 176   0.0000       2.432680        66.1966 
 177   0.0000       2.469457        67.1973 
 178   0.0000       2.482902        67.5632 
 179   0.0000       2.505735        68.1845 
 180   0.0000       2.516150        68.4679 
 181   0.0000       2.518418        68.5296 
 182   0.0000       2.541973        69.1706 
 183   0.0000       2.566576        69.8401 
 184   0.0000       2.573393        70.0256 
 185   0.0000       2.599048        70.7237 
 186   0.0000       2.615167        71.1623 
 187   0.0000       2.615176        71.1626 
 188   0.0000       2.653288        72.1996 
 189   0.0000       2.660147        72.3863 
 190   0.0000       2.663165        72.4684 
 191   0.0000       2.677549        72.8598 
 192   0.0000       2.700771        73.4917 
 193   0.0000       2.710131        73.7464 
 194   0.0000       2.724589        74.1398 
 195   0.0000       2.772718        75.4495 
 196   0.0000       2.774581        75.5002 
 197   0.0000       2.783605        75.7457 
 198   0.0000       2.794966        76.0549 
 199   0.0000       2.803255        76.2804 
 200   0.0000       2.837206        77.2043 
 201   0.0000       2.848563        77.5134 
 202   0.0000       2.882960        78.4493 
 203   0.0000       2.886158        78.5364 
 204   0.0000       2.894623        78.7667 
 205   0.0000       2.963633        80.6446 
 206   0.0000       2.965215        80.6876 
 207   0.0000       2.984174        81.2035 
 208   0.0000       2.996395        81.5360 
 209   0.0000       2.998395        81.5905 
 210   0.0000       3.024694        82.3061 
 211   0.0000       3.025263        82.3216 
 212   0.0000       3.058532        83.2269 
 213   0.0000       3.060878        83.2907 
 214   0.0000       3.090712        84.1025 
 215   0.0000       3.103817        84.4591 
 216   0.0000       3.116098        84.7933 
 217   0.0000       3.148869        85.6851 
 218   0.0000       3.150934        85.7413 
 219   0.0000       3.160369        85.9980 
 220   0.0000       3.193836        86.9087 
 221   0.0000       3.210261        87.3556 
 222   0.0000       3.244568        88.2892 
 223   0.0000       3.252315        88.5000 
 224   0.0000       3.268926        88.9520 
 225   0.0000       3.275491        89.1307 
 226   0.0000       3.300713        89.8170 
 227   0.0000       3.320524        90.3560 
 228   0.0000       3.351330        91.1943 
 229   0.0000       3.381616        92.0185 
 230   0.0000       3.392257        92.3080 
 231   0.0000       3.408393        92.7471 
 232   0.0000       3.426399        93.2370 
 233   0.0000       3.431228        93.3685 
 234   0.0000       3.434986        93.4707 
 235   0.0000       3.439085        93.5823 
 236   0.0000       3.532503        96.1243 
 237   0.0000       3.550145        96.6044 
 238   0.0000       3.587870        97.6309 
 239   0.0000       3.613016        98.3152 
 240   0.0000       3.679917       100.1356 
 241   0.0000       3.703150       100.7678 
 242   0.0000       3.730031       101.4993 
 243   0.0000       3.751884       102.0939 
 244   0.0000       3.843752       104.5938 
 245   0.0000       3.858735       105.0015 
 246   0.0000       3.885411       105.7274 
 247   0.0000       3.886439       105.7554 
 248   0.0000       3.905555       106.2756 
 249   0.0000       3.939050       107.1870 
 250   0.0000       3.962811       107.8336 
 251   0.0000       3.997339       108.7731 
 252   0.0000       4.023783       109.4927 
 253   0.0000       4.050775       110.2272 
 254   0.0000       4.073953       110.8579 
 255   0.0000       4.091566       111.3372 
 256   0.0000       4.106985       111.7567 
 257   0.0000       4.114451       111.9599 
 258   0.0000       4.138382       112.6111 
 259   0.0000       4.165172       113.3401 
 260   0.0000       4.165480       113.3485 
 261   0.0000       4.194574       114.1402 
 262   0.0000       4.255138       115.7882 
 263   0.0000       4.382224       119.2464 
 264   0.0000       4.463242       121.4510 
 265   0.0000       4.466965       121.5523 
 266   0.0000       4.482252       121.9683 
 267   0.0000       4.514660       122.8501 
 268   0.0000       4.560616       124.1007 
 269   0.0000       4.569448       124.3410 
 270   0.0000       4.601921       125.2246 
 271   0.0000       4.640262       126.2680 
 272   0.0000       4.645073       126.3989 
 273   0.0000       4.709905       128.1630 
 274   0.0000       4.766703       129.7086 
 275   0.0000       4.818501       131.1181 
 276   0.0000       4.830853       131.4542 
 277   0.0000       4.855793       132.1329 
 278   0.0000       4.917655       133.8162 
 279   0.0000       4.979701       135.5046 
 280   0.0000       4.994608       135.9102 
 281   0.0000       5.036063       137.0382 
 282   0.0000       5.050722       137.4371 
 283   0.0000       5.074677       138.0890 
 284   0.0000       5.077294       138.1602 
 285   0.0000       5.117783       139.2620 
 286   0.0000       5.159443       140.3956 
 287   0.0000       5.187528       141.1598 
 288   0.0000       5.190685       141.2457 
 289   0.0000       5.231677       142.3612 
 290   0.0000       5.235312       142.4601 
 291   0.0000       5.316299       144.6638 
 292   0.0000       5.378337       146.3520 
 293   0.0000       5.393615       146.7677 
 294   0.0000       5.497632       149.5982 
 295   0.0000       5.509195       149.9128 
 296   0.0000       5.597162       152.3065 
 297   0.0000       5.652059       153.8004 
 298   0.0000       5.694598       154.9579 
 299   0.0000       5.813121       158.1831 
 300   0.0000       5.892980       160.3561 
 301   0.0000       6.114343       166.3797 
 302   0.0000       6.126436       166.7088 
 303   0.0000       6.164738       167.7510 
 304   0.0000       6.197187       168.6340 
 305   0.0000       6.277793       170.8274 
 306   0.0000       6.287164       171.0824 
 307   0.0000       6.323906       172.0822 
 308   0.0000       6.328610       172.2102 
 309   0.0000       6.430636       174.9865 
 310   0.0000       6.563784       178.6096 
 311   0.0000       6.606537       179.7730 
 312   0.0000       6.731098       183.1625 
 313   0.0000       6.737335       183.3322 
 314   0.0000       6.754074       183.7877 
 315   0.0000       6.791465       184.8052 
 316   0.0000       6.809815       185.3045 
 317   0.0000       7.006227       190.6491 
 318   0.0000       7.057634       192.0480 
 319   0.0000       7.078651       192.6199 
 320   0.0000       7.150643       194.5789 
 321   0.0000       7.278472       198.0573 
 322   0.0000       7.436891       202.3681 
 323   0.0000       7.477314       203.4680 
 324   0.0000      21.956087       597.4555 
 325   0.0000      22.352530       608.2433 
 326   0.0000      22.403837       609.6394 
 327   0.0000      22.595468       614.8540 
 328   0.0000      22.753373       619.1508 
 329   0.0000      23.445884       637.9949 
 330   0.0000      32.164166       875.2315 
 331   0.0000      43.662537      1188.1180 
 332   0.0000      43.686112      1188.7595 
 333   0.0000      43.730913      1189.9786 

                    ********************************
                    * MULLIKEN POPULATION ANALYSIS *
                    ********************************

-----------------------
MULLIKEN ATOMIC CHARGES
-----------------------
   0 C :   -0.235390
   1 C :   -0.139742
   2 N :    0.335659
   3 C :    0.018850
   4 H :    0.092921
   5 C :   -0.173641
   6 H :    0.123029
   7 C :   -0.237332
   8 H :    0.125076
   9 C :    0.086594
  10 H :    0.130676
  11 O :   -0.392309
  12 O :   -0.393120
  13 O :   -0.341270
Sum of atomic charges:   -1.0000000

--------------------------------
MULLIKEN REDUCED ORBITAL CHARGES
--------------------------------
  0 C s       :     3.297281  s :     3.297281
      pz      :     0.904978  p :     2.856563
      px      :     0.969407
      py      :     0.982178
      dz2     :     0.016027  d :     0.074594
      dxz     :     0.022319
      dyz     :     0.015157
      dx2y2   :     0.009438
      dxy     :     0.011653
      f0      :     0.001126  f :     0.006952
      f+1     :     0.001712
      f-1     :     0.000706
      f+2     :     0.000936
      f-2     :     0.001203
      f+3     :     0.000742
      f-3     :     0.000526
  1 C s       :     3.204642  s :     3.204642
      pz      :     0.937750  p :     2.837704
      px      :     0.958551
      py      :     0.941402
      dz2     :     0.019232  d :     0.090605
      dxz     :     0.022788
      dyz     :     0.022601
      dx2y2   :     0.017337
      dxy     :     0.008646
      f0      :     0.001132  f :     0.006791
      f+1     :     0.001006
      f-1     :     0.001167
      f+2     :     0.000967
      f-2     :     0.000976
      f+3     :     0.000655
      f-3     :     0.000888
  2 N s       :     3.270923  s :     3.270923
      pz      :     0.978789  p :     3.143541
      px      :     1.091237
      py      :     1.073515
      dz2     :     0.059092  d :     0.236517
      dxz     :     0.055434
      dyz     :     0.052162
      dx2y2   :     0.041305
      dxy     :     0.028523
      f0      :     0.001959  f :     0.013361
      f+1     :     0.002780
      f-1     :     0.002564
      f+2     :     0.002043
      f-2     :     0.001466
      f+3     :     0.001103
      f-3     :     0.001445
  3 C s       :     2.957813  s :     2.957813
      pz      :     0.940390  p :     2.789377
      px      :     0.935083
      py      :     0.913904
      dz2     :     0.050881  d :     0.214398
      dxz     :     0.060631
      dyz     :     0.047122
      dx2y2   :     0.030509
      dxy     :     0.025255
      f0      :     0.003345  f :     0.019562
      f+1     :     0.004975
      f-1     :     0.003570
      f+2     :     0.002699
      f-2     :     0.002237
      f+3     :     0.001374
      f-3     :     0.001361
  4 H s       :     0.885206  s :     0.885206
      pz      :     0.005754  p :     0.021873
      px      :     0.007227
      py      :     0.008893
  5 C s       :     3.183558  s :     3.183558
      pz      :     0.961749  p :     2.898003
      px      :     0.948854
      py      :     0.987400
      dz2     :     0.021536  d :     0.085321
      dxz     :     0.014114
      dyz     :     0.011463
      dx2y2   :     0.019940
      dxy     :     0.018268
      f0      :     0.000346  f :     0.006759
      f+1     :     0.001370
      f-1     :     0.000982
      f+2     :     0.000932
      f-2     :     0.000991
      f+3     :     0.001134
      f-3     :     0.001003
  6 H s       :     0.855394  s :     0.855394
      pz      :     0.006053  p :     0.021577
      px      :     0.010103
      py      :     0.005421
  7 C s       :     3.297614  s :     3.297614
      pz      :     0.927243  p :     2.836830
      px      :     0.947117
      py      :     0.962469
      dz2     :     0.023749  d :     0.095894
      dxz     :     0.025574
      dyz     :     0.019133
      dx2y2   :     0.010752
      dxy     :     0.016686
      f0      :     0.001221  f :     0.006993
      f+1     :     0.001520
      f-1     :     0.000747
      f+2     :     0.000792
      f-2     :     0.001160
      f+3     :     0.001048
      f-3     :     0.000505
  8 H s       :     0.852960  s :     0.852960
      pz      :     0.011453  p :     0.021964
      px      :     0.004722
      py      :     0.005789
  9 C s       :     3.115003  s :     3.115003
      pz      :     0.790304  p :     2.670109
      px      :     0.899604
      py      :     0.980201
      dz2     :     0.025488  d :     0.116866
      dxz     :     0.028673
      dyz     :     0.025783
      dx2y2   :     0.022197
      dxy     :     0.014725
      f0      :     0.001426  f :     0.011428
      f+1     :     0.002102
      f-1     :     0.001526
      f+2     :     0.001708
      f-2     :     0.001689
      f+3     :     0.001470
      f-3     :     0.001508
 10 H s       :     0.847102  s :     0.847102
      pz      :     0.005694  p :     0.022222
      px      :     0.007757
      py      :     0.008771
 11 O s       :     3.709388  s :     3.709388
      pz      :     1.392523  p :     4.651407
      px      :     1.698223
      py      :     1.560661
      dz2     :     0.009776  d :     0.029711
      dxz     :     0.007907
      dyz     :     0.008287
      dx2y2   :     0.001767
      dxy     :     0.001975
      f0      :     0.000564  f :     0.001802
      f+1     :     0.000380
      f-1     :     0.000370
      f+2     :     0.000208
      f-2     :     0.000210
      f+3     :     0.000036
      f-3     :     0.000035
 12 O s       :     3.853280  s :     3.853280
      pz      :     1.602686  p :     4.497693
      px      :     1.551937
      py      :     1.343070
      dz2     :     0.005649  d :     0.039096
      dxz     :     0.007328
      dyz     :     0.008622
      dx2y2   :     0.008390
      dxy     :     0.009106
      f0      :     0.000328  f :     0.003051
      f+1     :     0.000283
      f-1     :     0.000399
      f+2     :     0.000432
      f-2     :     0.000771
      f+3     :     0.000452
      f-3     :     0.000386
 13 O s       :     3.824661  s :     3.824661
      pz      :     1.206531  p :     4.473388
      px      :     1.693128
      py      :     1.573729
      dz2     :     0.015645  d :     0.040087
      dxz     :     0.009375
      dyz     :     0.010913
      dx2y2   :     0.001595
      dxy     :     0.002560
      f0      :     0.001012  f :     0.003133
      f+1     :     0.000644
      f-1     :     0.000781
      f+2     :     0.000246
      f-2     :     0.000357
      f+3     :     0.000048
      f-3     :     0.000044


                     *******************************
                     * LOEWDIN POPULATION ANALYSIS *
                     *******************************

----------------------
LOEWDIN ATOMIC CHARGES
----------------------
   0 C :   -0.152138
   1 C :   -0.163182
   2 N :   -0.056863
   3 C :   -0.500078
   4 H :    0.143379
   5 C :   -0.203001
   6 H :    0.145371
   7 C :   -0.138703
   8 H :    0.145163
   9 C :   -0.182699
  10 H :    0.149113
  11 O :    0.030248
  12 O :   -0.122027
  13 O :   -0.094586

-------------------------------
LOEWDIN REDUCED ORBITAL CHARGES
-------------------------------
  0 C s       :     2.774673  s :     2.774673
      pz      :     1.027807  p :     2.970713
      px      :     0.985958
      py      :     0.956948
      dz2     :     0.088555  d :     0.365464
      dxz     :     0.107127
      dyz     :     0.074501
      dx2y2   :     0.038350
      dxy     :     0.056930
      f0      :     0.006251  f :     0.041288
      f+1     :     0.010029
      f-1     :     0.006074
      f+2     :     0.006082
      f-2     :     0.005132
      f+3     :     0.003776
      f-3     :     0.003943
  1 C s       :     2.774721  s :     2.774721
      pz      :     1.026389  p :     2.943784
      px      :     0.961015
      py      :     0.956380
      dz2     :     0.093621  d :     0.401728
      dxz     :     0.104395
      dyz     :     0.089311
      dx2y2   :     0.065186
      dxy     :     0.049215
      f0      :     0.006751  f :     0.042948
      f+1     :     0.007978
      f-1     :     0.008253
      f+2     :     0.005466
      f-2     :     0.005063
      f+3     :     0.003990
      f-3     :     0.005448
  2 N s       :     2.936106  s :     2.936106
      pz      :     1.098422  p :     3.308495
      px      :     1.121609
      py      :     1.088463
      dz2     :     0.184843  d :     0.744262
      dxz     :     0.172780
      dyz     :     0.175860
      dx2y2   :     0.115026
      dxy     :     0.095753
      f0      :     0.009480  f :     0.068001
      f+1     :     0.015299
      f-1     :     0.013993
      f+2     :     0.010227
      f-2     :     0.006383
      f+3     :     0.005382
      f-3     :     0.007238
  3 C s       :     2.701448  s :     2.701448
      pz      :     0.948964  p :     2.802438
      px      :     0.957826
      py      :     0.895648
      dz2     :     0.211450  d :     0.863927
      dxz     :     0.238405
      dyz     :     0.198706
      dx2y2   :     0.115731
      dxy     :     0.099635
      f0      :     0.024721  f :     0.132265
      f+1     :     0.033027
      f-1     :     0.024279
      f+2     :     0.017075
      f-2     :     0.013091
      f+3     :     0.009482
      f-3     :     0.010590
  4 H s       :     0.796711  s :     0.796711
      pz      :     0.016066  p :     0.059910
      px      :     0.019871
      py      :     0.023972
  5 C s       :     2.768392  s :     2.768392
      pz      :     0.982297  p :     3.006317
      px      :     1.027002
      py      :     0.997018
      dz2     :     0.091104  d :     0.385870
      dxz     :     0.074933
      dyz     :     0.058525
      dx2y2   :     0.080643
      dxy     :     0.080664
      f0      :     0.002692  f :     0.042422
      f+1     :     0.009085
      f-1     :     0.005778
      f+2     :     0.007301
      f-2     :     0.005865
      f+3     :     0.004775
      f-3     :     0.006927
  6 H s       :     0.795669  s :     0.795669
      pz      :     0.016778  p :     0.058960
      px      :     0.027247
      py      :     0.014934
  7 C s       :     2.773795  s :     2.773795
      pz      :     1.000603  p :     2.933313
      px      :     0.995712
      py      :     0.936998
      dz2     :     0.101638  d :     0.389601
      dxz     :     0.099818
      dyz     :     0.080060
      dx2y2   :     0.038188
      dxy     :     0.069897
      f0      :     0.007367  f :     0.041994
      f+1     :     0.009782
      f-1     :     0.005829
      f+2     :     0.005697
      f-2     :     0.004724
      f+3     :     0.004729
      f-3     :     0.003867
  8 H s       :     0.794870  s :     0.794870
      pz      :     0.030685  p :     0.059967
      px      :     0.013299
      py      :     0.015984
  9 C s       :     2.725443  s :     2.725443
      pz      :     0.995843  p :     2.881927
      px      :     0.893280
      py      :     0.992803
      dz2     :     0.111322  d :     0.510995
      dxz     :     0.128411
      dyz     :     0.100044
      dx2y2   :     0.085063
      dxy     :     0.086155
      f0      :     0.008422  f :     0.064335
      f+1     :     0.012332
      f-1     :     0.009096
      f+2     :     0.009597
      f-2     :     0.008721
      f+3     :     0.007273
      f-3     :     0.008894
 10 H s       :     0.789502  s :     0.789502
      pz      :     0.016372  p :     0.061384
      px      :     0.020977
      py      :     0.024036
 11 O s       :     3.362951  s :     3.362951
      pz      :     1.479896  p :     4.522682
      px      :     1.566445
      py      :     1.476341
      dz2     :     0.024475  d :     0.076833
      dxz     :     0.021811
      dyz     :     0.021606
      dx2y2   :     0.004478
      dxy     :     0.004463
      f0      :     0.001876  f :     0.007286
      f+1     :     0.001659
      f-1     :     0.001901
      f+2     :     0.000933
      f-2     :     0.000760
      f+3     :     0.000065
      f-3     :     0.000092
 12 O s       :     3.510986  s :     3.510986
      pz      :     1.585804  p :     4.504936
      px      :     1.531325
      py      :     1.387807
      dz2     :     0.013484  d :     0.095725
      dxz     :     0.017395
      dyz     :     0.022748
      dx2y2   :     0.017678
      dxy     :     0.024419
      f0      :     0.001089  f :     0.010380
      f+1     :     0.000872
      f-1     :     0.001394
      f+2     :     0.001336
      f-2     :     0.002757
      f+3     :     0.001589
      f-3     :     0.001343
 13 O s       :     3.511544  s :     3.511544
      pz      :     1.323402  p :     4.475418
      px      :     1.621807
      py      :     1.530209
      dz2     :     0.038613  d :     0.096976
      dxz     :     0.023015
      dyz     :     0.026536
      dx2y2   :     0.003783
      dxy     :     0.005028
      f0      :     0.003257  f :     0.010647
      f+1     :     0.002310
      f-1     :     0.002856
      f+2     :     0.000917
      f-2     :     0.001128
      f+3     :     0.000094
      f-3     :     0.000085


                      *****************************
                      * MAYER POPULATION ANALYSIS *
                      *****************************

  NA   - Mulliken gross atomic population
  ZA   - Total nuclear charge
  QA   - Mulliken gross atomic charge
  VA   - Mayer's total valence
  BVA  - Mayer's bonded valence
  FA   - Mayer's free valence

  ATOM       NA         ZA         QA         VA         BVA        FA
  0 C      6.2354     6.0000    -0.2354     3.7690     3.7690    -0.0000
  1 C      6.1397     6.0000    -0.1397     3.8538     3.8538    -0.0000
  2 N      6.6643     7.0000     0.3357     4.3731     4.3731    -0.0000
  3 C      5.9811     6.0000     0.0189     4.5627     4.5627    -0.0000
  4 H      0.9071     1.0000     0.0929     1.0112     1.0112     0.0000
  5 C      6.1736     6.0000    -0.1736     3.9024     3.9024    -0.0000
  6 H      0.8770     1.0000     0.1230     0.9632     0.9632    -0.0000
  7 C      6.2373     6.0000    -0.2373     3.9688     3.9688     0.0000
  8 H      0.8749     1.0000     0.1251     0.9648     0.9648    -0.0000
  9 C      5.9134     6.0000     0.0866     3.1788     3.1788     0.0000
 10 H      0.8693     1.0000     0.1307     1.0111     1.0111     0.0000
 11 O      8.3923     8.0000    -0.3923     2.1184     2.1184    -0.0000
 12 O      8.3931     8.0000    -0.3931     1.8997     1.8997     0.0000
 13 O      8.3413     8.0000    -0.3413     1.9288     1.9288     0.0000

  Mayer bond orders larger than 0.100000
B(  0-C ,  1-C ) :   1.4768 B(  0-C ,  3-C ) :   1.2653 B(  0-C ,  4-H ) :   0.9800 
B(  1-C ,  5-C ) :   1.2907 B(  1-C ,  6-H ) :   0.9623 B(  2-N ,  9-C ) :   1.0916 
B(  2-N , 12-O ) :   1.5596 B(  2-N , 13-O ) :   1.6159 B(  3-C ,  9-C ) :   1.0195 
B(  3-C , 11-O ) :   2.0581 B(  5-C ,  7-C ) :   1.4901 B(  5-C ,  8-H ) :   0.9692 
B(  7-C ,  9-C ) :   1.2523 B(  7-C , 10-H ) :   0.9531 B(  9-C , 11-O ) :  -0.1093 
B( 12-O , 13-O ) :   0.1594 

-------
TIMINGS
-------

Total SCF time: 0 days 0 hours 1 min 31 sec 

Total time                  ....      91.511 sec
Sum of individual times     ....      87.495 sec  ( 95.6%)

Fock matrix formation       ....      83.144 sec  ( 90.9%)
  Split-RI-J                ....      17.759 sec  ( 21.4% of F)
  XC integration            ....      39.920 sec  ( 48.0% of F)
    Basis function eval.    ....      11.844 sec  ( 29.7% of XC)
    Density eval.           ....      10.341 sec  ( 25.9% of XC)
    XC-Functional eval.     ....       1.417 sec  (  3.6% of XC)
    XC-Potential eval.      ....      11.869 sec  ( 29.7% of XC)
Diagonalization             ....       0.165 sec  (  0.2%)
Density matrix formation    ....       0.028 sec  (  0.0%)
Population analysis         ....       0.084 sec  (  0.1%)
Initial guess               ....       1.354 sec  (  1.5%)
Orbital Transformation      ....       0.000 sec  (  0.0%)
Orbital Orthonormalization  ....       0.000 sec  (  0.0%)
DIIS solution               ....       0.264 sec  (  0.3%)
SOSCF solution              ....       0.804 sec  (  0.9%)
Grid generation             ....       1.653 sec  (  1.8%)

Maximum memory used throughout the entire SCF-calculation: 150.2 MB


-------------------------------------------------------------------------------
                          DFT DISPERSION CORRECTION                            
                                                                               
                              DFTD3 V3.1  Rev 1                                
                          USING Becke-Johnson damping                          
-------------------------------------------------------------------------------
The PBE functional is recognized
Active option DFTDOPT                   ...         4   

molecular C6(AA) [au] = 2661.203882 


            DFT-D V3
 parameters
 s6 scaling factor         :     1.0000 
 a1 scaling factor         :     0.4289 
 s8 scaling factor         :     0.7875 
 a2 scaling factor         :     4.4407 
 ad hoc parameters k1-k3   :    16.0000     1.3333    -4.0000 

 Edisp/kcal,au: -9.550107731184  -0.015219063787 
 E6   /kcal   :  -6.625855269 
 E8   /kcal   :  -2.924252462 
 % E8         :  30.620099208 

-------------------------   ----------------
Dispersion correction           -0.015219064
-------------------------   ----------------


-------------------------   --------------------
FINAL SINGLE POINT ENERGY      -511.164189767217
-------------------------   --------------------

------------------------------------------------------------------------------
                         ORCA SCF GRADIENT CALCULATION
------------------------------------------------------------------------------

Gradient of the Kohn-Sham DFT energy:
Kohn-Sham wavefunction type      ... RKS
Hartree-Fock exchange scaling    ...    0.000
Number of operators              ...    1
Number of atoms                  ...   14
Basis set dimensions             ...  334
Integral neglect threshold       ... 2.5e-11
Integral primitive cutoff        ... 2.5e-12
SHARK Integral package           ... ON

Nuc. rep. gradient       (SHARK) ... done (  0.0 sec)
HCore & Overlap gradient (SHARK) ... done (  0.5 sec)
RI-J gradient            (SHARK) ... done (  4.0 sec)
Exchange-correlation gradient    ... done
Dispersion correction            ... done

------------------
CARTESIAN GRADIENT
------------------

   1   C   :   -0.036233605    0.005048301    0.057707160
   2   C   :   -0.005109123   -0.016786576   -0.023531584
   3   N   :   -0.029792916   -0.011803403    0.018512545
   4   C   :   -0.018094329    0.004235342    0.031845303
   5   H   :    0.000998969   -0.001358016   -0.003733835
   6   C   :    0.016788489    0.015136717    0.004986642
   7   H   :   -0.002944628   -0.001010787    0.002101165
   8   C   :   -0.006791106   -0.000787693    0.007700570
   9   H   :    0.001016151    0.001521435    0.001378973
  10   C   :    0.030151000    0.037963605    0.028369576
  11   H   :    0.002118762   -0.000003675   -0.002844886
  12   O   :    0.024054317   -0.046283540   -0.115542794
  13   O   :    0.014623110    0.012838078    0.003727279
  14   O   :    0.009214908    0.001290212   -0.010676114

Difference to translation invariance:
           :    0.0000000000    0.0000000000   -0.0000000000

Difference to rotation invariance:
           :   -0.0010055605    0.0006160490   -0.0018947039

Norm of the cartesian gradient     ...    0.1696142403
RMS gradient                       ...    0.0261720455
MAX gradient                       ...    0.1155427941

-------
TIMINGS
-------

Total SCF gradient time            ...       19.888 sec

One electron gradient       ....       0.517 sec  (  2.6%)
RI-J Coulomb gradient       ....       3.962 sec  ( 19.9%)
XC gradient                 ....      13.216 sec  ( 66.5%)
CPCM gradient               ....       0.811 sec  (  4.1%)
   A-Matrix (El+Nuc)        ....       0.039 sec  (  0.2%)
   Potential                ....       0.772 sec  (  3.9%)

Maximum memory used throughout the entire SCFGRAD-calculation: 149.1 MB
------------------------------------------------------------------------------
                         ORCA GEOMETRY RELAXATION STEP
------------------------------------------------------------------------------

Reading the OPT-File                    .... done
Getting information on internals        .... done
Copying old internal coords+grads       .... done
Making the new internal coordinates     .... (new redundants).... done
Validating the new internal coordinates .... (new redundants).... done
Calculating the B-matrix                .... done
Calculating the G,G- and P matrices     .... done
Transforming gradient to internals      .... done
Projecting the internal gradient        .... done
Number of atoms                         ....  14
Number of internal coordinates          ....  63
Current Energy                          ....  -511.164189767 Eh
Current gradient norm                   ....     0.169614240 Eh/bohr
Maximum allowed component of the step   ....  0.300
Current trust radius                    ....  0.300
Evaluating the initial hessian          ....  (Almloef) done
Projecting the Hessian                  .... done
Forming the augmented Hessian           .... done
Diagonalizing the augmented Hessian     .... done
Last element of RFO vector              ....  0.980128863
Lowest eigenvalues of augmented Hessian:
 -0.030547178  0.014745097  0.014747709  0.021728261  0.024029492
Length of the computed step             ....  0.202383408
The final length of the internal step   ....  0.202383408
Converting the step to cartesian space:
 Initial RMS(Int)=    0.0254979127
Transforming coordinates:
 Iter   0:  RMS(Cart)=    0.0627962386 RMS(Int)=    2.6249696067
 Iter   1:  RMS(Cart)=    0.0014321060 RMS(Int)=    0.0007401833
 Iter   2:  RMS(Cart)=    0.0000483093 RMS(Int)=    0.0000220790
 Iter   3:  RMS(Cart)=    0.0000021136 RMS(Int)=    0.0000015136
 Iter   4:  RMS(Cart)=    0.0000000978 RMS(Int)=    0.0000000511
done
Storing new coordinates                 .... done

                                .--------------------.
          ----------------------|Geometry convergence|-------------------------
          Item                value                   Tolerance       Converged
          ---------------------------------------------------------------------
          RMS gradient        0.0203308312            0.0001000000      NO
          MAX gradient        0.1267242744            0.0003000000      NO
          RMS step            0.0254979127            0.0020000000      NO
          MAX step            0.1082461072            0.0040000000      NO
          ........................................................
          Max(Bonds)      0.0573      Max(Angles)    3.58
          Max(Dihed)        0.32      Max(Improp)    0.00
          ---------------------------------------------------------------------

The optimization has not yet converged - more geometry cycles are needed


    ---------------------------------------------------------------------------
                         Redundant Internal Coordinates
                            (Angstroem and degrees)

        Definition                    Value    dE/dq     Step     New-Value
    ----------------------------------------------------------------------------
     1. B(C   1,C   0)                1.3972  0.011516 -0.0096    1.3875   
     2. B(C   3,C   0)                1.3996 -0.048125  0.0411    1.4407   
     3. B(H   4,C   0)                1.0876 -0.002001  0.0027    1.0903   
     4. B(C   5,C   1)                1.3923 -0.019811  0.0152    1.4074   
     5. B(H   6,C   1)                1.0881 -0.003728  0.0050    1.0931   
     6. B(C   7,C   5)                1.3969  0.009578 -0.0088    1.3881   
     7. B(H   8,C   5)                1.0889 -0.001551  0.0021    1.0910   
     8. B(C   9,C   7)                1.4112 -0.000422  0.0005    1.4117   
     9. B(C   9,C   3)                1.3926 -0.062773  0.0521    1.4447   
    10. B(C   9,N   2)                1.4600  0.009269 -0.0106    1.4494   
    11. B(H  10,C   7)                1.0895  0.000092 -0.0001    1.0894   
    12. B(O  11,C   3)                1.1963 -0.126724  0.0573    1.2535   
    13. B(O  12,N   2)                1.2419 -0.018359  0.0109    1.2527   
    14. B(O  13,N   2)                1.2353 -0.011647  0.0067    1.2421   
    15. A(C   1,C   0,H   4)          120.07  0.001082   -0.11    119.96   
    16. A(C   3,C   0,H   4)          118.93  0.008351   -1.20    117.72   
    17. A(C   1,C   0,C   3)          121.00 -0.009433    1.31    122.32   
    18. A(C   5,C   1,H   6)          120.26  0.003476   -0.35    119.91   
    19. A(C   0,C   1,C   5)          119.73 -0.005938    0.55    120.28   
    20. A(C   0,C   1,H   6)          120.01  0.002461   -0.20    119.81   
    21. A(C   9,N   2,O  12)          116.66 -0.005325    0.62    117.28   
    22. A(C   9,N   2,O  13)          120.05 -0.006742    0.79    120.84   
    23. A(O  12,N   2,O  13)          123.29  0.012067   -1.41    121.88   
    24. A(C   0,C   3,C   9)          119.25  0.031808   -3.58    115.66   
[...]

-----------------------
MULLIKEN ATOMIC CHARGES
-----------------------
   0 C :   -0.214088
   1 C :   -0.132905
   2 N :    0.339284
   3 C :    0.069623
   4 H :    0.097432
   5 C :   -0.174150
   6 H :    0.130024
   7 C :   -0.213048
   8 H :    0.130689
   9 C :    0.071433
  10 H :    0.131928
  11 O :   -0.460510
  12 O :   -0.408578
  13 O :   -0.367133
Sum of atomic charges:   -1.0000000

--------------------------------
MULLIKEN REDUCED ORBITAL CHARGES
--------------------------------
  0 C s       :     3.274469  s :     3.274469
      pz      :     0.915861  p :     2.859656
      px      :     0.960290
      py      :     0.983505
      dz2     :     0.015831  d :     0.073366
      dxz     :     0.022404
      dyz     :     0.015451
      dx2y2   :     0.009069
      dxy     :     0.010610
      f0      :     0.001233  f :     0.006597
      f+1     :     0.001499
      f-1     :     0.000643
      f+2     :     0.000897
      f-2     :     0.001264
      f+3     :     0.000598
      f-3     :     0.000463
  1 C s       :     3.201088  s :     3.201088
      pz      :     0.938208  p :     2.832825
      px      :     0.958455
      py      :     0.936162
      dz2     :     0.018830  d :     0.092258
      dxz     :     0.024660
      dyz     :     0.022600
      dx2y2   :     0.017318
      dxy     :     0.008851
      f0      :     0.001167  f :     0.006735
      f+1     :     0.001015
      f-1     :     0.001082
      f+2     :     0.000952
      f-2     :     0.001031
      f+3     :     0.000643
      f-3     :     0.000846
  2 N s       :     3.276993  s :     3.276993
      pz      :     0.975372  p :     3.137680
      px      :     1.088939
      py      :     1.073368
      dz2     :     0.058551  d :     0.233092
      dxz     :     0.052584
      dyz     :     0.050749
      dx2y2   :     0.041386
      dxy     :     0.029821
      f0      :     0.001893  f :     0.012951
      f+1     :     0.002605
      f-1     :     0.002410
      f+2     :     0.002006
      f-2     :     0.001448
      f+3     :     0.001157
      f-3     :     0.001432
  3 C s       :     3.035024  s :     3.035024
      pz      :     0.875640  p :     2.703531
      px      :     0.928615
      py      :     0.899276
      dz2     :     0.042874  d :     0.175718
      dxz     :     0.049193
      dyz     :     0.038611
      dx2y2   :     0.024479
      dxy     :     0.020561
      f0      :     0.003038  f :     0.016105
      f+1     :     0.003890
      f-1     :     0.002819
      f+2     :     0.002233
      f-2     :     0.002077
      f+3     :     0.001026
      f-3     :     0.001021
  4 H s       :     0.880765  s :     0.880765
      pz      :     0.005623  p :     0.021802
      px      :     0.007348
      py      :     0.008831
  5 C s       :     3.193928  s :     3.193928
      pz      :     0.961964  p :     2.889376
      px      :     0.950404
      py      :     0.977008
      dz2     :     0.021416  d :     0.084139
      dxz     :     0.014145
      dyz     :     0.011376
      dx2y2   :     0.019231
      dxy     :     0.017971
      f0      :     0.000364  f :     0.006707
      f+1     :     0.001385
      f-1     :     0.000961
      f+2     :     0.000893
      f-2     :     0.001033
      f+3     :     0.001114
      f-3     :     0.000958
  6 H s       :     0.848562  s :     0.848562
      pz      :     0.006031  p :     0.021414
      px      :     0.010078
      py      :     0.005305
  7 C s       :     3.274174  s :     3.274174
      pz      :     0.924007  p :     2.833031
      px      :     0.946644
      py      :     0.962380
      dz2     :     0.025114  d :     0.098800
      dxz     :     0.025392
      dyz     :     0.019254
      dx2y2   :     0.010924
      dxy     :     0.018117
      f0      :     0.001193  f :     0.007043
      f+1     :     0.001581
      f-1     :     0.000740
      f+2     :     0.000790
      f-2     :     0.001153
      f+3     :     0.001059
      f-3     :     0.000527
  8 H s       :     0.847401  s :     0.847401
      pz      :     0.011532  p :     0.021910
      px      :     0.004611
      py      :     0.005767
  9 C s       :     3.154674  s :     3.154674
      pz      :     0.809069  p :     2.648876
      px      :     0.871553
      py      :     0.968254
      dz2     :     0.024693  d :     0.113782
      dxz     :     0.027918
      dyz     :     0.023702
      dx2y2   :     0.021171
      dxy     :     0.016299
      f0      :     0.001433  f :     0.011235
      f+1     :     0.001989
      f-1     :     0.001375
      f+2     :     0.001538
      f-2     :     0.001790
      f+3     :     0.001597
      f-3     :     0.001513
 10 H s       :     0.845278  s :     0.845278
      pz      :     0.005303  p :     0.022795
      px      :     0.008574
      py      :     0.008918
 11 O s       :     3.765505  s :     3.765505
      pz      :     1.389616  p :     4.665886
      px      :     1.709142
      py      :     1.567129
      dz2     :     0.009942  d :     0.027552
      dxz     :     0.006578
      dyz     :     0.008000
      dx2y2   :     0.001410
      dxy     :     0.001622
      f0      :     0.000495  f :     0.001568
      f+1     :     0.000303
      f-1     :     0.000379
      f+2     :     0.000162
      f-2     :     0.000172
      f+3     :     0.000030
      f-3     :     0.000027
 12 O s       :     3.861239  s :     3.861239
      pz      :     1.608714  p :     4.506874
      px      :     1.557594
      py      :     1.340565
      dz2     :     0.005266  d :     0.037554
      dxz     :     0.006940
      dyz     :     0.008387
      dx2y2   :     0.008017
      dxy     :     0.008944
      f0      :     0.000320  f :     0.002911
      f+1     :     0.000252
      f-1     :     0.000372
      f+2     :     0.000395
      f-2     :     0.000752
      f+3     :     0.000450
      f-3     :     0.000370
 13 O s       :     3.839193  s :     3.839193
      pz      :     1.206960  p :     4.486321
      px      :     1.683399
      py      :     1.595962
      dz2     :     0.014969  d :     0.038601
      dxz     :     0.009362
      dyz     :     0.010158
      dx2y2   :     0.001574
      dxy     :     0.002539
      f0      :     0.000943  f :     0.003018
      f+1     :     0.000671
      f-1     :     0.000702
      f+2     :     0.000238
      f-2     :     0.000373
      f+3     :     0.000047
      f-3     :     0.000045


                     *******************************
                     * LOEWDIN POPULATION ANALYSIS *
                     *******************************

----------------------
LOEWDIN ATOMIC CHARGES
----------------------
   0 C :   -0.156788
   1 C :   -0.160334
   2 N :   -0.041519
   3 C :   -0.381349
   4 H :    0.144067
   5 C :   -0.192351
   6 H :    0.150180
   7 C :   -0.146910
   8 H :    0.147193
   9 C :   -0.187323
  10 H :    0.152295
  11 O :   -0.063699
  12 O :   -0.146557
  13 O :   -0.116905

-------------------------------
LOEWDIN REDUCED ORBITAL CHARGES
-------------------------------
  0 C s       :     2.785813  s :     2.785813
      pz      :     1.039389  p :     2.976899
      px      :     0.977375
      py      :     0.960135
      dz2     :     0.083952  d :     0.355580
      dxz     :     0.108041
      dyz     :     0.074624
      dx2y2   :     0.035733
      dxy     :     0.053230
      f0      :     0.006469  f :     0.038496
      f+1     :     0.009359
      f-1     :     0.005796
      f+2     :     0.005653
      f-2     :     0.005085
      f+3     :     0.002906
      f-3     :     0.003227
  1 C s       :     2.777251  s :     2.777251
      pz      :     1.033151  p :     2.942820
      px      :     0.957914
      py      :     0.951755
      dz2     :     0.091102  d :     0.397902
      dxz     :     0.105565
      dyz     :     0.089669
      dx2y2   :     0.063729
      dxy     :     0.047838
      f0      :     0.007082  f :     0.042361
      f+1     :     0.007948
      f-1     :     0.008267
      f+2     :     0.005225
      f-2     :     0.005012
      f+3     :     0.003755
      f-3     :     0.005071
  2 N s       :     2.938702  s :     2.938702
      pz      :     1.092778  p :     3.312073
      px      :     1.129420
      py      :     1.089875
      dz2     :     0.179469  d :     0.725201
      dxz     :     0.163868
      dyz     :     0.167728
      dx2y2   :     0.115257
      dxy     :     0.098880
      f0      :     0.009185  f :     0.065543
      f+1     :     0.014335
      f-1     :     0.013143
      f+2     :     0.010207
      f-2     :     0.006136
      f+3     :     0.005487
      f-3     :     0.007052
  3 C s       :     2.742994  s :     2.742994
      pz      :     0.931423  p :     2.773735
      px      :     0.952718
      py      :     0.889593
      dz2     :     0.187579  d :     0.763658
      dxz     :     0.216663
      dyz     :     0.178200
      dx2y2   :     0.095532
      dxy     :     0.085684
      f0      :     0.019465  f :     0.100963
      f+1     :     0.024424
      f-1     :     0.019617
      f+2     :     0.012876
      f-2     :     0.010548
      f+3     :     0.006502
      f-3     :     0.007531
  4 H s       :     0.796353  s :     0.796353
      pz      :     0.015595  p :     0.059579
      px      :     0.020199
      py      :     0.023786
  5 C s       :     2.771705  s :     2.771705
      pz      :     0.984284  p :     2.999040
      px      :     1.027625
      py      :     0.987131
      dz2     :     0.090539  d :     0.379624
      dxz     :     0.074846
      dyz     :     0.056647
      dx2y2   :     0.077578
      dxy     :     0.080012
      f0      :     0.002698  f :     0.041983
      f+1     :     0.009187
      f-1     :     0.005543
      f+2     :     0.007268
      f-2     :     0.005909
      f+3     :     0.004641
      f-3     :     0.006737
  6 H s       :     0.791559  s :     0.791559
      pz      :     0.016562  p :     0.058262
      px      :     0.027094
      py      :     0.014605
  7 C s       :     2.771690  s :     2.771690
      pz      :     1.001966  p :     2.936531
      px      :     0.998543
      py      :     0.936022
      dz2     :     0.107170  d :     0.395918
      dxz     :     0.100239
      dyz     :     0.077118
      dx2y2   :     0.037886
      dxy     :     0.073504
      f0      :     0.007385  f :     0.042771
      f+1     :     0.010129
      f-1     :     0.005757
      f+2     :     0.005845
      f-2     :     0.004853
      f+3     :     0.004737
      f-3     :     0.004064
  8 H s       :     0.792956  s :     0.792956
      pz      :     0.030965  p :     0.059851
      px      :     0.012933
      py      :     0.015953
  9 C s       :     2.739280  s :     2.739280
      pz      :     1.003302  p :     2.882616
      px      :     0.895144
      py      :     0.984170
      dz2     :     0.108912  d :     0.503188
      dxz     :     0.125503
      dyz     :     0.097471
      dx2y2   :     0.082877
      dxy     :     0.088424
      f0      :     0.008174  f :     0.062240
      f+1     :     0.011656
      f-1     :     0.008717
      f+2     :     0.008895
      f-2     :     0.008395
      f+3     :     0.007548
      f-3     :     0.008854
 10 H s       :     0.785085  s :     0.785085
      pz      :     0.015352  p :     0.062619
      px      :     0.022957
      py      :     0.024310
 11 O s       :     3.428722  s :     3.428722
      pz      :     1.462010  p :     4.566869
      px      :     1.603551
      py      :     1.501309
      dz2     :     0.022211  d :     0.062929
      dxz     :     0.015834
      dyz     :     0.018353
      dx2y2   :     0.003143
      dxy     :     0.003388
      f0      :     0.001418  f :     0.005179
      f+1     :     0.001064
      f-1     :     0.001488
      f+2     :     0.000588
      f-2     :     0.000519
      f+3     :     0.000046
      f-3     :     0.000057
 12 O s       :     3.527282  s :     3.527282
      pz      :     1.595178  p :     4.518461
      px      :     1.536282
      py      :     1.387001
      dz2     :     0.012382  d :     0.091188
      dxz     :     0.016361
      dyz     :     0.022167
      dx2y2   :     0.016683
      dxy     :     0.023595
      f0      :     0.001036  f :     0.009626
      f+1     :     0.000751
      f-1     :     0.001259
      f+2     :     0.001208
      f-2     :     0.002606
      f+3     :     0.001533
      f-3     :     0.001233
 13 O s       :     3.523655  s :     3.523655
      pz      :     1.318772  p :     4.490100
      px      :     1.620178
      py      :     1.551150
      dz2     :     0.036643  d :     0.093112
      dxz     :     0.023177
      dyz     :     0.024530
      dx2y2   :     0.003727
      dxy     :     0.005035
      f0      :     0.002948  f :     0.010037
      f+1     :     0.002365
      f-1     :     0.002512
      f+2     :     0.000882
      f-2     :     0.001150
      f+3     :     0.000092
      f-3     :     0.000088


                      *****************************
                      * MAYER POPULATION ANALYSIS *
                      *****************************

  NA   - Mulliken gross atomic population
  ZA   - Total nuclear charge
  QA   - Mulliken gross atomic charge
  VA   - Mayer's total valence
  BVA  - Mayer's bonded valence
  FA   - Mayer's free valence

  ATOM       NA         ZA         QA         VA         BVA        FA
  0 C      6.2141     6.0000    -0.2141     3.7545     3.7545    -0.0000
  1 C      6.1329     6.0000    -0.1329     3.8696     3.8696     0.0000
  2 N      6.6607     7.0000     0.3393     4.3248     4.3248    -0.0000
  3 C      5.9304     6.0000     0.0696     4.3944     4.3944    -0.0000
  4 H      0.9026     1.0000     0.0974     1.0024     1.0024    -0.0000
  5 C      6.1742     6.0000    -0.1742     3.9104     3.9104    -0.0000
  6 H      0.8700     1.0000     0.1300     0.9618     0.9618    -0.0000
  7 C      6.2130     6.0000    -0.2130     3.9649     3.9649     0.0000
  8 H      0.8693     1.0000     0.1307     0.9657     0.9657    -0.0000
  9 C      5.9286     6.0000     0.0714     3.2743     3.2743     0.0000
 10 H      0.8681     1.0000     0.1319     1.0198     1.0198    -0.0000
 11 O      8.4605     8.0000    -0.4605     2.0671     2.0671    -0.0000
 12 O      8.4086     8.0000    -0.4086     1.8813     1.8813    -0.0000
 13 O      8.3671     8.0000    -0.3671     1.9043     1.9043    -0.0000

  Mayer bond orders larger than 0.100000
B(  0-C ,  1-C ) :   1.5285 B(  0-C ,  3-C ) :   1.2068 B(  0-C ,  4-H ) :   0.9668 
B(  1-C ,  5-C ) :   1.2489 B(  1-C ,  6-H ) :   0.9581 B(  2-N ,  9-C ) :   1.1367 
B(  2-N , 12-O ) :   1.5223 B(  2-N , 13-O ) :   1.5726 B(  3-C ,  9-C ) :   0.9693 
B(  3-C , 11-O ) :   2.0001 B(  5-C ,  7-C ) :   1.5313 B(  5-C ,  8-H ) :   0.9674 
B(  7-C ,  9-C ) :   1.2695 B(  7-C , 10-H ) :   0.9403 B( 12-O , 13-O ) :   0.1546 


-------
TIMINGS
-------

Total SCF time: 0 days 0 hours 0 min 39 sec 

Total time                  ....      39.676 sec
Sum of individual times     ....      36.751 sec  ( 92.6%)

Fock matrix formation       ....      34.647 sec  ( 87.3%)
  Split-RI-J                ....       7.408 sec  ( 21.4% of F)
  XC integration            ....      16.082 sec  ( 46.4% of F)
    Basis function eval.    ....       5.048 sec  ( 31.4% of XC)
    Density eval.           ....       4.394 sec  ( 27.3% of XC)
    XC-Functional eval.     ....       0.616 sec  (  3.8% of XC)
    XC-Potential eval.      ....       4.142 sec  ( 25.8% of XC)
Diagonalization             ....       0.024 sec  (  0.1%)
Density matrix formation    ....       0.012 sec  (  0.0%)
Population analysis         ....       0.189 sec  (  0.5%)
Initial guess               ....       0.035 sec  (  0.1%)
Orbital Transformation      ....       0.000 sec  (  0.0%)
Orbital Orthonormalization  ....       0.024 sec  (  0.1%)
DIIS solution               ....       0.008 sec  (  0.0%)
SOSCF solution              ....       0.454 sec  (  1.1%)
Grid generation             ....       1.382 sec  (  3.5%)

Maximum memory used throughout the entire SCF-calculation: 149.2 MB


-------------------------------------------------------------------------------
                          DFT DISPERSION CORRECTION                            
                                                                               
                              DFTD3 V3.1  Rev 1                                
                          USING Becke-Johnson damping                          
-------------------------------------------------------------------------------
The PBE functional is recognized
Active option DFTDOPT                   ...         4   

molecular C6(AA) [au] = 2669.530766 


            DFT-D V3
 parameters
 s6 scaling factor         :     1.0000 
 a1 scaling factor         :     0.4289 
 s8 scaling factor         :     0.7875 
 a2 scaling factor         :     4.4407 
 ad hoc parameters k1-k3   :    16.0000     1.3333    -4.0000 

 Edisp/kcal,au: -9.469790279668  -0.015091069794 
 E6   /kcal   :  -6.570465131 
 E8   /kcal   :  -2.899325148 
 % E8         :  30.616571885 

-------------------------   ----------------
Dispersion correction           -0.015091070
-------------------------   ----------------


-------------------------   --------------------
FINAL SINGLE POINT ENERGY      -511.184176167368
-------------------------   --------------------

                                *** OPTIMIZATION RUN DONE ***

                            ***************************************
                            *     ORCA property calculations      *
                            ***************************************

                                    ---------------------
                                    Active property flags
                                    ---------------------
   (+) Dipole Moment


------------------------------------------------------------------------------
                       ORCA ELECTRIC PROPERTIES CALCULATION
------------------------------------------------------------------------------

Dipole Moment Calculation                       ... on
Quadrupole Moment Calculation                   ... off
Polarizability Calculation                      ... off
GBWName                                         ... inp.gbw
Electron density                                ... inp.scfp
The origin for moment calculation is the CENTER OF MASS  = (-11.041490, -5.971748  3.974710)

-------------
DIPOLE MOMENT
-------------
                                X             Y             Z
Electronic contribution:     -4.12409      -1.16821       3.40583
Nuclear contribution   :      5.84205       0.99175      -6.04121
                        -----------------------------------------
Total Dipole Moment    :      1.71796      -0.17645      -2.63539
                        -----------------------------------------
Magnitude (a.u.)       :      3.15084
Magnitude (Debye)      :      8.00880



--------------------
Rotational spectrum 
--------------------
 
Rotational constants in cm-1:     0.078562     0.042064     0.027397 
Rotational constants in MHz :  2355.219116  1261.047007   821.327621 

 Dipole components along the rotational axes: 
x,y,z [a.u.] :    -2.521522    -1.889347    -0.009021 
x,y,z [Debye]:    -6.409200    -4.802339    -0.022930 

 

Timings for individual modules:

Sum of individual times         ...      731.063 sec (=  12.184 min)
GTO integral calculation        ...       16.480 sec (=   0.275 min)   2.3 %
SCF iterations                  ...      556.497 sec (=   9.275 min)  76.1 %
SCF Gradient evaluation         ...      156.582 sec (=   2.610 min)  21.4 %
Geometry relaxation             ...        1.503 sec (=   0.025 min)   0.2 %
                             ****ORCA TERMINATED NORMALLY****
TOTAL RUN TIME: 0 days 0 hours 12 minutes 17 seconds 73 msec
