 Entering Gaussian System
 *********************************************
 Gaussian 98:
 frequency output generated by the xtb code
 *********************************************
                         Standard orientation:
 --------------------------------------------------------------------
  Center     Atomic     Atomic              Coordinates (Angstroms)
  Number     Number      Type              X           Y           Z
 --------------------------------------------------------------------
    1          6             0       -4.190407   -4.153488   -3.250074
    2          6             0       -2.893010   -4.634629   -3.218575
    3          1             0       -3.787488   -1.343381   -1.446169
    4          6             0       -4.527200   -2.969812   -2.605570
    5          1             0       -4.963391   -4.692626   -3.781969
    6          6             0       -1.908591   -3.935092   -2.541984
    7          1             0       -2.653751   -5.559387   -3.723152
    8          6             0       -2.230149   -2.749374   -1.903018
    9          1             0       -0.896738   -4.310045   -2.514366
   10          6             0       -3.528422   -2.272544   -1.936469
   11          1             0       -1.470010   -2.193134   -1.374082
   12          6             0       -5.925704   -2.384294   -2.726039
   13          1             0       -6.658819   -3.253178   -2.826430
   14          1             0       -6.192542   -1.917709   -1.716949
   15          8             0       -6.044454   -1.509347   -3.730047
 --------------------------------------------------------------------
     1 basis functions        1 primitive gaussians
     1 alpha electrons        1 beta electrons
 
 Harmonic frequencies (cm**-1), IR intensities (km*mol⁻¹),
 Raman scattering activities (A**4/amu), Raman depolarization ratios,
 reduced masses (AMU), force constants (mDyne/A) and normal coordinates:
                      1                      2                      3
                        a                      a                      a 
 Frequencies --    45.4525               123.8483               297.8648
 Red. masses --    11.3951                12.4476                11.2968
 Frc consts  --     0.0000                 0.0000                 0.0000
 IR Inten    --    15.8102                30.0589                30.3301
 Raman Activ --     0.0000                 0.0000                 0.0000
 Depolar     --     0.0000                 0.0000                 0.0000
 Atom AN      X      Y      Z        X      Y      Z        X      Y      Z
   1   6    -0.04   0.22  -0.07     0.14   0.13  -0.22     0.01  -0.09   0.33
   2   6    -0.07   0.14  -0.18     0.05  -0.08   0.08     0.03  -0.07   0.10
   3   1     0.05  -0.03   0.12     0.06   0.05  -0.09     0.05  -0.07   0.15
   4   6     0.04   0.14   0.14     0.16   0.17  -0.28     0.07   0.12   0.00
   5   1    -0.03   0.11  -0.04     0.05   0.06  -0.09    -0.01  -0.06   0.15
   6   6    -0.02  -0.04  -0.07     0.01  -0.24   0.31     0.19   0.08  -0.30
   7   1    -0.04   0.06  -0.10     0.00  -0.04   0.05    -0.03  -0.03   0.04
   8   6     0.06  -0.14   0.15     0.08  -0.11   0.10     0.12  -0.15   0.09
   9   1    -0.01  -0.03  -0.04    -0.02  -0.13   0.18     0.08   0.08  -0.21
  10   6     0.09  -0.04   0.25     0.16   0.10  -0.21     0.09  -0.16   0.30
  11   1     0.03  -0.08   0.07     0.02  -0.06   0.07     0.04  -0.06   0.04
  12   6     0.06   0.20   0.18     0.05   0.01   0.00    -0.03   0.06  -0.32
  13   1    -0.01   0.06   0.27     0.06  -0.04   0.06     0.06  -0.04  -0.15
  14   1     0.11   0.25  -0.02     0.07  -0.03   0.04    -0.08  -0.06  -0.07
  15   8    -0.13  -0.50  -0.41    -0.62   0.05   0.13    -0.43   0.25  -0.16
                      4                      5                      6
                        a                      a                      a 
 Frequencies --   318.5797               363.4899               468.9440
 Red. masses --     8.1966                 8.8360                10.4148
 Frc consts  --     0.0000                 0.0000                 0.0000
 IR Inten    --     5.4724                 0.0070                 0.7217
 Raman Activ --     0.0000                 0.0000                 0.0000
 Depolar     --     0.0000                 0.0000                 0.0000
 Atom AN      X      Y      Z        X      Y      Z        X      Y      Z
   1   6    -0.07   0.30   0.07     0.09   0.23  -0.35     0.13   0.09   0.09
   2   6    -0.19   0.07  -0.08    -0.10  -0.21   0.35     0.21   0.15  -0.07
   3   1     0.12   0.09   0.00    -0.05  -0.13   0.23     0.10   0.01  -0.09
   4   6     0.07   0.23   0.22     0.00   0.01   0.01    -0.31  -0.14   0.34
   5   1    -0.06   0.14   0.02     0.05   0.15  -0.22     0.10   0.02  -0.08
   6   6    -0.11  -0.14   0.02    -0.00  -0.01  -0.00     0.28  -0.25   0.23
   7   1    -0.10   0.03  -0.06    -0.06  -0.14   0.22     0.03   0.10  -0.13
   8   6     0.12  -0.04  -0.04     0.10   0.21  -0.35     0.13  -0.06  -0.22
   9   1    -0.05  -0.10   0.02    -0.00  -0.01   0.00     0.07  -0.09   0.10
  10   6     0.20   0.25   0.05    -0.08  -0.20   0.36     0.04  -0.16  -0.09
  11   1     0.08  -0.05  -0.03     0.06   0.13  -0.22     0.02   0.08  -0.15
  12   6    -0.11  -0.38  -0.17    -0.01  -0.02  -0.01    -0.38   0.14  -0.01
  13   1     0.12  -0.21  -0.27     0.00  -0.01  -0.01    -0.12   0.07  -0.04
  14   1    -0.29  -0.25  -0.05    -0.01  -0.01  -0.00    -0.14   0.07  -0.04
  15   8     0.13  -0.16   0.03    -0.00  -0.01  -0.00    -0.09   0.13  -0.12
                      7                      8                      9
                        a                      a                      a 
 Frequencies --   568.6256               590.6357               672.0020
 Red. masses --    10.4062                11.1591                 8.6170
 Frc consts  --     0.0000                 0.0000                 0.0000
 IR Inten    --    25.4373                 0.0110                 9.0855
 Raman Activ --     0.0000                 0.0000                 0.0000
 Depolar     --     0.0000                 0.0000                 0.0000
 Atom AN      X      Y      Z        X      Y      Z        X      Y      Z
   1   6    -0.08  -0.24   0.07     0.39   0.11   0.17     0.06   0.07  -0.23
   2   6    -0.02   0.00  -0.29     0.24  -0.39  -0.18    -0.07  -0.25   0.26
   3   1    -0.04   0.06  -0.06    -0.01   0.10   0.06     0.05   0.17  -0.27
   4   6     0.20  -0.24   0.23     0.05   0.13   0.09    -0.03  -0.26   0.39
   5   1    -0.04   0.05  -0.07     0.07   0.07   0.06     0.05   0.17  -0.27
   6   6    -0.33  -0.06   0.26    -0.06  -0.15  -0.10    -0.02   0.16  -0.21
   7   1     0.10   0.10  -0.20     0.01  -0.11  -0.07     0.05   0.04  -0.09
   8   6     0.07   0.26  -0.11    -0.42  -0.14  -0.20    -0.04  -0.13   0.33
   9   1    -0.08  -0.00   0.04     0.03   0.09   0.06     0.04   0.15  -0.24
  10   6     0.01   0.02   0.25    -0.23   0.34   0.15     0.08   0.15  -0.17
  11   1     0.10   0.12  -0.19    -0.07  -0.08  -0.07     0.05   0.05  -0.08
  12   6     0.33   0.03  -0.17     0.02   0.05   0.04     0.04   0.04  -0.05
  13   1     0.10  -0.01  -0.03    -0.00   0.02   0.04     0.00   0.01  -0.02
  14   1     0.10  -0.01  -0.03     0.02   0.03   0.00    -0.01   0.02  -0.02
  15   8    -0.21   0.12  -0.06    -0.00   0.01   0.00    -0.08   0.05  -0.03
                     10                     11                     12
                        a                      a                      a 
 Frequencies --   752.2678               807.0925               873.0794
 Red. masses --     6.4537                 9.7937                 3.3398
 Frc consts  --     0.0000                 0.0000                 0.0000
 IR Inten    --    29.3842                19.1356                 0.0108
 Raman Activ --     0.0000                 0.0000                 0.0000
 Depolar     --     0.0000                 0.0000                 0.0000
 Atom AN      X      Y      Z        X      Y      Z        X      Y      Z
   1   6     0.09  -0.05  -0.21     0.06  -0.19  -0.01    -0.04  -0.11   0.17
   2   6     0.06  -0.16  -0.17     0.08  -0.30  -0.12    -0.05  -0.13   0.21
   3   1    -0.05  -0.10   0.20     0.04   0.05  -0.03    -0.08  -0.20   0.34
   4   6     0.02  -0.22   0.30     0.08   0.17  -0.29     0.00   0.00   0.00
   5   1    -0.06  -0.14   0.18     0.02   0.00  -0.06     0.08   0.21  -0.34
   6   6    -0.15   0.16  -0.16    -0.24   0.01   0.11     0.00   0.01  -0.00
   7   1     0.02  -0.22   0.26     0.15   0.01  -0.14     0.10   0.24  -0.40
   8   6     0.17   0.16   0.05     0.24   0.14   0.19     0.05   0.13  -0.21
   9   1    -0.13  -0.18   0.33     0.00   0.16  -0.23    -0.00  -0.00   0.01
  10   6     0.15   0.15  -0.07     0.14   0.03   0.15     0.04   0.10  -0.17
  11   1     0.03  -0.18   0.28     0.17   0.05  -0.10    -0.10  -0.24   0.40
  12   6    -0.18   0.07   0.01    -0.51   0.05   0.15    -0.00  -0.00  -0.00
  13   1    -0.06   0.04  -0.03    -0.14   0.04   0.02    -0.00   0.00   0.00
  14   1    -0.09   0.04  -0.03    -0.13   0.03   0.01     0.00   0.00   0.00
  15   8    -0.06   0.09  -0.08     0.11  -0.01  -0.03     0.00   0.00   0.00
                     13                     14                     15
                        a                      a                      a 
 Frequencies --   890.7079               918.2520               921.2197
 Red. masses --     4.1324                 2.6632                 4.1653
 Frc consts  --     0.0000                 0.0000                 0.0000
 IR Inten    --     0.6759                 0.1330                 0.0638
 Raman Activ --     0.0000                 0.0000                 0.0000
 Depolar     --     0.0000                 0.0000                 0.0000
 Atom AN      X      Y      Z        X      Y      Z        X      Y      Z
   1   6     0.05   0.14  -0.21     0.02   0.05  -0.09    -0.06  -0.15   0.23
   2   6    -0.01   0.02   0.02    -0.05  -0.12   0.19     0.05   0.12  -0.19
   3   1    -0.09  -0.22   0.37    -0.05  -0.13   0.21    -0.09  -0.24   0.41
   4   6    -0.02  -0.08   0.13     0.01   0.04  -0.06     0.00   0.00  -0.00
   5   1    -0.09  -0.23   0.37    -0.06  -0.17   0.26     0.09   0.23  -0.36
   6   6    -0.07  -0.18   0.29     0.04   0.10  -0.17     0.00   0.01  -0.01
   7   1     0.00   0.03  -0.04     0.11   0.26  -0.43    -0.07  -0.18   0.29
   8   6    -0.02  -0.01  -0.02    -0.04  -0.10   0.17    -0.06  -0.13   0.22
   9   1     0.12   0.29  -0.47    -0.10  -0.23   0.37    -0.00  -0.01   0.02
  10   6     0.04   0.12  -0.22     0.02   0.03  -0.05     0.06   0.15  -0.25
  11   1    -0.01   0.02  -0.03     0.10   0.24  -0.39     0.08   0.21  -0.35
  12   6     0.07   0.01  -0.03    -0.01  -0.00  -0.00    -0.00  -0.00  -0.00
  13   1     0.02  -0.00  -0.01    -0.00  -0.00   0.00     0.00   0.00   0.00
  14   1     0.00   0.00  -0.01     0.00  -0.00   0.00     0.00   0.00   0.00
  15   8    -0.03   0.02  -0.01     0.01   0.00  -0.00     0.00   0.00   0.00
                     16                     17                     18
                        a                      a                      a 
 Frequencies --   981.1979               983.6965              1067.3612
 Red. masses --    10.9706                 5.7753                13.1490
 Frc consts  --     0.0000                 0.0000                 0.0000
 IR Inten    --     4.3675                33.4355               409.9956
 Raman Activ --     0.0000                 0.0000                 0.0000
 Depolar     --     0.0000                 0.0000                 0.0000
 Atom AN      X      Y      Z        X      Y      Z        X      Y      Z
   1   6     0.32   0.35   0.30    -0.04  -0.11  -0.07     0.08   0.02   0.04
   2   6     0.00  -0.16  -0.10     0.04  -0.07  -0.03    -0.02   0.10   0.06
   3   1    -0.03  -0.13  -0.09    -0.02  -0.04  -0.03     0.07  -0.01   0.00
   4   6    -0.18   0.06   0.00     0.02   0.08   0.01     0.03  -0.01  -0.01
   5   1     0.06   0.13   0.09     0.00  -0.04  -0.03     0.08  -0.04  -0.02
   6   6    -0.37   0.14  -0.01     0.00   0.05   0.03    -0.14   0.05  -0.01
   7   1    -0.09  -0.05  -0.05     0.08  -0.01   0.00     0.03   0.03   0.03
   8   6     0.11   0.12   0.10    -0.08  -0.02  -0.03    -0.07  -0.07  -0.05
   9   1    -0.10   0.03   0.00     0.02   0.07   0.05    -0.04   0.01  -0.01
  10   6     0.03  -0.47  -0.28    -0.04  -0.14  -0.09     0.04  -0.06  -0.03
  11   1    -0.04   0.09   0.05    -0.07   0.05   0.00     0.01  -0.05  -0.03
  12   6     0.12   0.01  -0.09     0.16   0.42   0.36     0.03  -0.48   0.54
  13   1     0.03  -0.02   0.01     0.39  -0.19  -0.30     0.07   0.00  -0.00
  14   1     0.07  -0.01   0.01    -0.50  -0.15   0.02     0.08  -0.02  -0.04
  15   8     0.01  -0.05   0.06    -0.04  -0.10  -0.10    -0.05   0.41  -0.46
                     19                     20                     21
                        a                      a                      a 
 Frequencies --  1082.7777              1117.9107              1175.2173
 Red. masses --     7.1928                 3.9463                 1.3161
 Frc consts  --     0.0000                 0.0000                 0.0000
 IR Inten    --    27.9828                 2.9100                 0.0645
 Raman Activ --     0.0000                 0.0000                 0.0000
 Depolar     --     0.0000                 0.0000                 0.0000
 Atom AN      X      Y      Z        X      Y      Z        X      Y      Z
   1   6     0.14  -0.05   0.00     0.25   0.01   0.08     0.08  -0.03  -0.00
   2   6     0.04   0.30   0.19    -0.06   0.16   0.08     0.03   0.00   0.01
   3   1     0.30   0.01   0.07    -0.42   0.00  -0.09     0.15   0.03   0.05
   4   6     0.02  -0.01   0.00    -0.03  -0.11  -0.07     0.02   0.05   0.04
   5   1     0.22  -0.19  -0.07     0.33  -0.26  -0.09    -0.09   0.11   0.05
   6   6    -0.40   0.15  -0.01    -0.06  -0.15  -0.10    -0.02  -0.07  -0.05
   7   1     0.30   0.11   0.15    -0.25   0.03  -0.05     0.43   0.04   0.13
   8   6    -0.16  -0.26  -0.20     0.14   0.07   0.08    -0.03   0.03   0.01
   9   1    -0.12   0.05   0.00    -0.13  -0.36  -0.25    -0.20  -0.56  -0.39
  10   6     0.14  -0.06   0.00    -0.18   0.17   0.05    -0.08   0.03   0.00
  11   1     0.15  -0.28  -0.13     0.22  -0.15  -0.04    -0.32   0.32   0.12
  12   6    -0.05   0.13  -0.14     0.03   0.10   0.06     0.00   0.00  -0.00
  13   1    -0.02  -0.00   0.00     0.04  -0.01  -0.06     0.00  -0.00   0.01
  14   1    -0.02   0.01   0.01    -0.06  -0.04   0.02    -0.00   0.01  -0.01
  15   8     0.02  -0.11   0.12    -0.01  -0.03  -0.01     0.00   0.00   0.00
                     22                     23                     24
                        a                      a                      a 
 Frequencies --  1189.3665              1205.4780              1246.8841
 Red. masses --     3.6980                 7.3826                 2.8868
 Frc consts  --     0.0000                 0.0000                 0.0000
 IR Inten    --     1.3712                 0.8199                10.0473
 Raman Activ --     0.0000                 0.0000                 0.0000
 Depolar     --     0.0000                 0.0000                 0.0000
 Atom AN      X      Y      Z        X      Y      Z        X      Y      Z
   1   6     0.03   0.10   0.06     0.18  -0.05   0.01     0.02   0.05   0.04
   2   6     0.04   0.13   0.09    -0.14   0.16   0.06     0.08   0.03   0.04
   3   1    -0.50  -0.09  -0.17     0.07  -0.03  -0.00     0.22   0.04   0.08
   4   6     0.34  -0.12   0.00     0.54  -0.19   0.01    -0.07  -0.19  -0.12
   5   1    -0.35   0.40   0.17     0.07  -0.02   0.00    -0.14   0.17   0.07
   6   6     0.00   0.00   0.00    -0.07   0.03   0.00    -0.01  -0.01  -0.01
   7   1     0.27   0.06   0.10    -0.44   0.01  -0.10    -0.11  -0.00  -0.03
   8   6    -0.06  -0.13  -0.09    -0.20  -0.03  -0.07    -0.04   0.08   0.04
   9   1    -0.01  -0.00  -0.00    -0.02   0.01   0.00    -0.02  -0.05  -0.04
  10   6    -0.04  -0.09  -0.07     0.17  -0.08  -0.00     0.02   0.05   0.03
  11   1     0.15  -0.21  -0.09    -0.34   0.28   0.08     0.08  -0.07  -0.02
  12   6    -0.17   0.04   0.02    -0.26   0.10  -0.01     0.05   0.15   0.13
  13   1    -0.05   0.02   0.00    -0.07   0.03  -0.01    -0.25   0.32  -0.42
  14   1    -0.04   0.01   0.00    -0.06   0.03  -0.01     0.22  -0.46   0.32
  15   8     0.01   0.01  -0.02     0.01  -0.01   0.01    -0.05  -0.13  -0.12
                     25                     26                     27
                        a                      a                      a 
 Frequencies --  1288.8943              1328.5747              1358.0058
 Red. masses --     3.6942                10.8215                 2.9827
 Frc consts  --     0.0000                 0.0000                 0.0000
 IR Inten    --     0.4119                 5.2493               139.6727
 Raman Activ --     0.0000                 0.0000                 0.0000
 Depolar     --     0.0000                 0.0000                 0.0000
 Atom AN      X      Y      Z        X      Y      Z        X      Y      Z
   1   6     0.19  -0.18  -0.07     0.25  -0.23  -0.08     0.04  -0.02   0.00
   2   6     0.02   0.03   0.02    -0.41  -0.04  -0.13    -0.02   0.01   0.01
   3   1     0.38   0.05   0.12    -0.06   0.00  -0.01    -0.02  -0.00  -0.01
   4   6    -0.03  -0.09  -0.07     0.10   0.31   0.23     0.01   0.05  -0.06
   5   1    -0.27   0.28   0.11     0.05  -0.04  -0.01     0.00   0.01   0.00
   6   6     0.08   0.22   0.15     0.10   0.27   0.19    -0.02   0.01   0.00
   7   1    -0.33  -0.02  -0.10     0.06   0.00   0.02    -0.00   0.01  -0.00
   8   6    -0.00   0.04   0.02     0.29  -0.29  -0.10     0.03  -0.04  -0.01
   9   1    -0.07  -0.20  -0.14     0.02   0.05   0.04    -0.00   0.02   0.01
  10   6    -0.26  -0.02  -0.08    -0.34  -0.01  -0.09     0.01  -0.00   0.00
  11   1     0.24  -0.24  -0.08    -0.03   0.04   0.01    -0.02   0.02   0.00
  12   6     0.01  -0.01  -0.00    -0.02  -0.00  -0.01     0.29  -0.17   0.09
  13   1     0.12  -0.15   0.13    -0.10   0.12  -0.08    -0.40   0.42  -0.33
  14   1    -0.14   0.17  -0.14     0.15  -0.14   0.13    -0.37   0.39  -0.31
  15   8     0.01   0.04   0.04    -0.00  -0.02  -0.03    -0.09  -0.08   0.13
                     28                     29                     30
                        a                      a                      a 
 Frequencies --  1435.6413              1469.5779              1500.7364
 Red. masses --     8.7295                 8.4752                 2.2751
 Frc consts  --     0.0000                 0.0000                 0.0000
 IR Inten    --     0.0143                18.1585               162.6115
 Raman Activ --     0.0000                 0.0000                 0.0000
 Depolar     --     0.0000                 0.0000                 0.0000
 Atom AN      X      Y      Z        X      Y      Z        X      Y      Z
   1   6    -0.28  -0.01  -0.08    -0.09   0.26   0.13    -0.02   0.07   0.04
   2   6     0.28  -0.18  -0.04    -0.31  -0.12  -0.15    -0.08  -0.03  -0.04
   3   1    -0.14  -0.08  -0.08     0.25  -0.01   0.05     0.07  -0.01   0.01
   4   6     0.12   0.33   0.23     0.35  -0.13   0.01     0.11  -0.03  -0.01
   5   1     0.06  -0.15  -0.08     0.19  -0.15  -0.05     0.06  -0.04  -0.01
   6   6     0.10   0.29   0.20     0.25  -0.10   0.01     0.06  -0.02   0.00
   7   1    -0.16  -0.08  -0.09     0.25  -0.01   0.06     0.06  -0.00   0.01
   8   6    -0.32   0.04  -0.06    -0.16   0.29   0.14    -0.04   0.08   0.03
   9   1    -0.10  -0.28  -0.20     0.08  -0.03   0.00     0.02  -0.01   0.00
  10   6     0.20  -0.19  -0.07    -0.23  -0.14  -0.14    -0.05  -0.05  -0.04
  11   1     0.07  -0.16  -0.08     0.20  -0.16  -0.05     0.05  -0.04  -0.01
  12   6    -0.01  -0.06  -0.04    -0.12   0.01   0.03     0.19  -0.01  -0.07
  13   1    -0.08   0.10  -0.04     0.04   0.01  -0.17    -0.33   0.11   0.56
  14   1     0.08  -0.04   0.06     0.09   0.13  -0.06    -0.51  -0.40   0.14
  15   8    -0.00  -0.01  -0.00    -0.00  -0.02   0.03    -0.00   0.09  -0.11
                     31                     32                     33
                        a                      a                      a 
 Frequencies --  1589.9014              1598.4793              2163.8091
 Red. masses --    11.4731                11.4601                 1.7505
 Frc consts  --     0.0000                 0.0000                 0.0000
 IR Inten    --     2.7044                12.3256               923.2817
 Raman Activ --     0.0000                 0.0000                 0.0000
 Depolar     --     0.0000                 0.0000                 0.0000
 Atom AN      X      Y      Z        X      Y      Z        X      Y      Z
   1   6     0.08  -0.28  -0.16    -0.38   0.25   0.06    -0.01  -0.01  -0.00
   2   6     0.19   0.19   0.17     0.44  -0.04   0.08     0.00   0.00   0.00
   3   1     0.07  -0.02   0.00     0.10   0.04   0.05    -0.01  -0.00  -0.00
   4   6     0.13   0.39   0.27     0.27  -0.09   0.01     0.01   0.04   0.03
   5   1    -0.08   0.03   0.00     0.05  -0.09  -0.04     0.01  -0.01  -0.00
   6   6    -0.15  -0.43  -0.30    -0.20   0.06  -0.01    -0.00  -0.00  -0.00
   7   1    -0.06   0.04   0.01    -0.09  -0.03  -0.04    -0.00  -0.00  -0.00
   8   6    -0.04   0.28   0.16     0.37  -0.24  -0.06    -0.00   0.00   0.00
   9   1     0.04   0.10   0.07    -0.05   0.02   0.00     0.00  -0.00   0.00
  10   6    -0.21  -0.17  -0.15    -0.46   0.05  -0.09     0.00  -0.01  -0.01
  11   1     0.08  -0.01   0.01    -0.05   0.08   0.04     0.00  -0.00  -0.00
  12   6    -0.01  -0.04  -0.03    -0.03  -0.00   0.01     0.06   0.19   0.15
  13   1    -0.04   0.06  -0.01    -0.01   0.01  -0.01    -0.45  -0.45  -0.03
  14   1     0.05  -0.01   0.04    -0.01   0.01  -0.01     0.21  -0.30  -0.62
  15   8    -0.00  -0.00  -0.00     0.00   0.01  -0.01     0.00   0.00   0.01
                     34                     35                     36
                        a                      a                      a 
 Frequencies --  2375.5414              3044.5426              3048.7995
 Red. masses --     1.3567                 1.7893                 1.7793
 Frc consts  --     0.0000                 0.0000                 0.0000
 IR Inten    --   774.0382               146.7085               111.1316
 Raman Activ --     0.0000                 0.0000                 0.0000
 Depolar     --     0.0000                 0.0000                 0.0000
 Atom AN      X      Y      Z        X      Y      Z        X      Y      Z
   1   6    -0.00  -0.00  -0.00    -0.16  -0.11  -0.11    -0.09  -0.06  -0.06
   2   6    -0.00  -0.00  -0.00    -0.01   0.04   0.02    -0.01   0.03   0.02
   3   1     0.00  -0.00  -0.00    -0.11   0.39   0.21     0.19  -0.69  -0.36
   4   6     0.02  -0.00  -0.00    -0.01  -0.00  -0.00    -0.01   0.01   0.00
   5   1     0.01   0.00   0.00     0.58   0.40   0.40     0.32   0.22   0.22
   6   6     0.00  -0.00  -0.00    -0.00   0.01   0.00    -0.01   0.00  -0.00
   7   1     0.00   0.00   0.00     0.05  -0.18  -0.10     0.03  -0.14  -0.08
   8   6     0.00   0.00   0.00     0.02   0.01   0.01    -0.05  -0.03  -0.03
   9   1    -0.00   0.00  -0.00     0.00  -0.00  -0.00     0.00  -0.00   0.00
  10   6    -0.00  -0.00  -0.00     0.03  -0.11  -0.06    -0.05   0.19   0.10
  11   1    -0.00  -0.00  -0.00    -0.08  -0.05  -0.05     0.19   0.14   0.13
  12   6     0.13  -0.01  -0.02    -0.00   0.00  -0.00    -0.00   0.00  -0.00
  13   1    -0.43  -0.57  -0.17     0.00   0.00   0.00     0.00   0.00  -0.00
  14   1    -0.07   0.35   0.55    -0.00   0.00   0.00     0.00  -0.00  -0.00
  15   8    -0.00   0.07  -0.08     0.00  -0.00   0.00     0.00  -0.00   0.00
                     37                     38                     39
                        a                      a                      a 
 Frequencies --  3067.2125              3069.0231              3087.6771
 Red. masses --     1.7789                 1.8538                 1.9113
 Frc consts  --     0.0000                 0.0000                 0.0000
 IR Inten    --     3.9394               249.4884               101.1843
 Raman Activ --     0.0000                 0.0000                 0.0000
 Depolar     --     0.0000                 0.0000                 0.0000
 Atom AN      X      Y      Z        X      Y      Z        X      Y      Z
   1   6     0.04   0.03   0.03     0.03   0.02   0.02    -0.03  -0.02  -0.02
   2   6    -0.03   0.14   0.08    -0.04   0.15   0.08     0.02  -0.10  -0.05
   3   1    -0.04   0.14   0.08     0.04  -0.16  -0.08     0.03  -0.11  -0.06
   4   6     0.00  -0.00  -0.00    -0.00  -0.00  -0.00    -0.00   0.00   0.00
   5   1    -0.13  -0.09  -0.09    -0.10  -0.07  -0.07     0.09   0.06   0.06
   6   6     0.14  -0.05   0.00    -0.01   0.00  -0.00     0.21  -0.08   0.01
   7   1     0.13  -0.49  -0.27     0.14  -0.53  -0.29    -0.08   0.32   0.17
   8   6    -0.09  -0.07  -0.06     0.14   0.10   0.10     0.08   0.06   0.06
   9   1    -0.53   0.20  -0.01     0.04  -0.02   0.00    -0.73   0.27  -0.02
  10   6     0.01  -0.05  -0.02    -0.01   0.05   0.03    -0.01   0.04   0.02
  11   1     0.33   0.24   0.23    -0.49  -0.36  -0.34    -0.26  -0.19  -0.18
  12   6     0.00  -0.00  -0.00     0.00   0.00   0.00    -0.00   0.00   0.00
  13   1    -0.00  -0.00  -0.00     0.00   0.00  -0.00     0.00   0.00   0.00
  14   1    -0.00   0.00   0.00     0.00  -0.00   0.00     0.00  -0.00  -0.00
  15   8    -0.00   0.00  -0.00    -0.00  -0.00  -0.00     0.00  -0.00   0.00
