      -----------------------------------------------------------      
     |                   =====================                   |     
     |                           x T B                           |     
     |                   =====================                   |     
     |                         S. Grimme                         |     
     |          Mulliken Center for Theoretical Chemistry        |     
     |                    University of Bonn                     |     
      -----------------------------------------------------------      

   * xtb version 6.7.1 (edcfbbe) compiled by 'albert@albert-system' on 2024-07-22

   xtb is free software: you can redistribute it and/or modify it under
   the terms of the GNU Lesser General Public License as published by
   the Free Software Foundation, either version 3 of the License, or
   (at your option) any later version.
   
   xtb is distributed in the hope that it will be useful,
   but WITHOUT ANY WARRANTY; without even the implied warranty of
   MERCHANTABILITY or FITNESS FOR A PARTICULAR PURPOSE.  See the
   GNU Lesser General Public License for more details.
   
   Cite this work as:
   * C. Bannwarth, E. Caldeweyher, S. Ehlert, A. Hansen, P. Pracht,
     J. Seibert, S. Spicher, S. Grimme, WIREs Comput. Mol. Sci., 2020, 11,
     e01493. DOI: 10.1002/wcms.1493
   
   for GFN2-xTB:
   * C. Bannwarth, S. Ehlert and S. Grimme., J. Chem. Theory Comput., 2019,
     15, 1652-1671. DOI: 10.1021/acs.jctc.8b01176
   for GFN1-xTB:
   * S. Grimme, C. Bannwarth, P. Shushkov, J. Chem. Theory Comput., 2017,
     13, 1989-2009. DOI: 10.1021/acs.jctc.7b00118
   for GFN0-xTB:
   * P. Pracht, E. Caldeweyher, S. Ehlert, S. Grimme, ChemRxiv, 2019, preprint.
     DOI: 10.26434/chemrxiv.8326202.v1
   for GFN-FF:
   * S. Spicher and S. Grimme, Angew. Chem. Int. Ed., 2020, 59, 15665-15673.
     DOI: 10.1002/anie.202004239
   
   for ALPB and GBSA implicit solvation:
   * S. Ehlert, M. Stahn, S. Spicher, S. Grimme, J. Chem. Theory Comput.,
     2021, 17, 4250-4261. DOI: 10.1021/acs.jctc.1c00471
   
   for ddCOSMO and CPCM-X implicit solvation:
   * M. Stahn, S. Ehlert, S. Grimme, J. Phys. Chem. A,
     2023, XX, XXXX-XXXX. DOI: 10.1021/acs.jpca.3c04382
   
   for DFT-D4:
   * E. Caldeweyher, C. Bannwarth and S. Grimme, J. Chem. Phys., 2017,
     147, 034112. DOI: 10.1063/1.4993215
   * E. Caldeweyher, S. Ehlert, A. Hansen, H. Neugebauer, S. Spicher,
     C. Bannwarth and S. Grimme, J. Chem. Phys., 2019, 150, 154122.
     DOI: 10.1063/1.5090222
   * E. Caldeweyher, J.-M. Mewes, S. Ehlert and S. Grimme, Phys. Chem. Chem. Phys.
     2020, 22, 8499-8512. DOI: 10.1039/D0CP00502A
   
   for sTDA-xTB:
   * S. Grimme and C. Bannwarth, J. Chem. Phys., 2016, 145, 054103.
     DOI: 10.1063/1.4959605
   
   in the mass-spec context:
   * V. Asgeirsson, C. Bauer and S. Grimme, Chem. Sci., 2017, 8, 4879.
     DOI: 10.1039/c7sc00601b
   * J. Koopman and S. Grimme, ACS Omega 2019, 4, 12, 15120-15133.
     DOI: 10.1021/acsomega.9b02011
   
   for metadynamics refer to:
   * S. Grimme, J. Chem. Theory Comput., 2019, 155, 2847-2862
     DOI: 10.1021/acs.jctc.9b00143
   
   for SPH calculations refer to:
   * S. Spicher and S. Grimme, J. Chem. Theory Comput., 2021, 17, 1701-1714
     DOI: 10.1021/acs.jctc.0c01306
   
   for ONIOM refer to:
   * C. Plett, A. Katbashev, S. Ehlert, S. Grimme, M. Bursch,
     Phys. Chem. Chem. Phys., 2023, 25, 17860-17868. DOI: 10.1039/D3CP02178E
   
   for DIPRO refer to:
   * J. Kohn, N. Gildemeister, S. Grimme, D. Fazzi, A. Hansen,
     J. Chem. Phys., 2023, just accepted.
   
   for PTB refer to:
   * S. Grimme, M. Mueller, A. Hansen, J. Chem. Phys., 2023, 158, 124111.
     DOI: 10.1063/5.0137838
   
   with help from (in alphabetical order)
   P. Atkinson, C. Bannwarth, F. Bohle, G. Brandenburg, E. Caldeweyher
   M. Checinski, S. Dohm, S. Ehlert, S. Ehrlich, I. Gerasimov, C. Hölzer
   A. Katbashev, J. Kohn, J. Koopman, C. Lavigne, S. Lehtola, F. März, M. Müller,
   F. Musil, H. Neugebauer, J. Pisarek, C. Plett, P. Pracht, F. Pultar,
   J. Seibert, P. Shushkov, S. Spicher, M. Stahn, M. Steiner, T. Strunk,
   J. Stückrath, T. Rose, and J. Unsleber
   
 * started run on 2025/10/18 at 01:12:41.928     
   ID    Z sym.   atoms
    1    6 C      1, 2, 4, 6, 8, 10, 12
    2    1 H      3, 5, 7, 9, 11, 13, 14
    3    8 O      15

           -------------------------------------------------
          |                Calculation Setup                |
           -------------------------------------------------

          program call               : xtb xyz.xyz --alpb water --charge -1 --ohess
          hostname                   : m003
          coordinate file            : xyz.xyz
          omp threads                :                     2


           -------------------------------------------------
          |                 G F N 2 - x T B                 |
           -------------------------------------------------

        Reference                      10.1021/acs.jctc.8b01176
      * Hamiltonian:
        H0-scaling (s, p, d)           1.850000    2.230000    2.230000
        zeta-weighting                 0.500000
      * Dispersion:
        s8                             2.700000
        a1                             0.520000
        a2                             5.000000
        s9                             5.000000
      * Repulsion:
        kExp                           1.500000    1.000000
        rExp                           1.000000
      * Coulomb:
        alpha                          2.000000
        third order                    shell-resolved
        anisotropic                    true
        a3                             3.000000
        a5                             4.000000
        cn-shift                       1.200000
        cn-exp                         4.000000
        max-rad                        5.000000

      * Solvation model:               ALPB
        Solvent                        water
        Parameter file                 internal GFN2-xTB/ALPB
        Dielectric constant                8.0200E+01
        Reference state                gsolv [1 M gas/solution]
        Free energy shift                  1.0808E-03 Eh       6.7819E-01 kcal/mol
        Temperature                        2.9815E+02 K
        Density                            1.0000E+00 kg/L
        Solvent mass                       1.8000E+01 g/mol
        Interaction kernel             P16
        Born radius scaling (c1)           1.4744E+00
        Born radii integrator          GBOBC
        Born offset                        0.0000E+00 a0       0.0000E+00 AA
        H-bond correction              true
        Ion screening                  false
        Surface tension                    1.0000E-05 Eh       1.5569E+01 dyn/cm
        Grid points                               230 per atom

          ...................................................
          :                      SETUP                      :
          :.................................................:
          :  # basis functions                  39          :
          :  # atomic orbitals                  39          :
          :  # shells                           23          :
          :  # electrons                        42          :
          :  max. iterations                   250          :
          :  Hamiltonian                  GFN2-xTB          :
          :  restarted?                      false          :
          :  GBSA solvation                   true          :
          :  PC potential                    false          :
          :  electronic temp.          300.0000000     K    :
          :  accuracy                    1.0000000          :
          :  -> integral cutoff          0.2500000E+02      :
          :  -> integral neglect         0.1000000E-07      :
          :  -> SCF convergence          0.1000000E-05 Eh   :
          :  -> wf. convergence          0.1000000E-03 e    :
          :  Broyden damping             0.4000000          :
          :  net charge                         -1          :
          :  unpaired electrons                  0          :
          ...................................................

 iter      E             dE          RMSdq      gap      omega  full diag
   1    -23.1388622 -0.231389E+02  0.485E+00    4.66       0.0  T
   2    -23.1901676 -0.513054E-01  0.259E+00    3.47       1.0  T
   3    -23.1934966 -0.332903E-02  0.107E+00    2.24       1.0  T
   4    -23.1990958 -0.559923E-02  0.506E-01    2.14       1.0  T
   5    -23.2000999 -0.100409E-02  0.138E-01    2.44       1.0  T
   6    -23.2001423 -0.424129E-04  0.807E-02    2.39       1.0  T
   7    -23.2001640 -0.216135E-04  0.411E-02    2.41       1.0  T
   8    -23.2001687 -0.474979E-05  0.139E-02    2.43       1.9  T
   9    -23.2001692 -0.522490E-06  0.520E-03    2.42       5.0  T
  10    -23.2001694 -0.159961E-06  0.208E-03    2.42      12.4  T
  11    -23.2001694 -0.123542E-07  0.592E-04    2.43      43.6  T
  12    -23.2001694 -0.207845E-08  0.213E-04    2.43     121.4  T

   *** convergence criteria satisfied after 12 iterations ***

         #    Occupation            Energy/Eh            Energy/eV
      -------------------------------------------------------------
         1        2.0000           -0.6268635             -17.0578
       ...           ...                  ...                  ...
        15        2.0000           -0.4380795             -11.9208
        16        2.0000           -0.4137012             -11.2574
        17        2.0000           -0.4108730             -11.1804
        18        2.0000           -0.3899951             -10.6123
        19        2.0000           -0.3808006             -10.3621
        20        2.0000           -0.3084158              -8.3924
        21        2.0000           -0.3025509              -8.2328 (HOMO)
        22                         -0.2134253              -5.8076 (LUMO)
        23                         -0.2085328              -5.6745
        24                         -0.0861911              -2.3454
        25                          0.1098467               2.9891
        26                          0.1211657               3.2971
       ...                                ...                  ...
        39                          0.6408763              17.4391
      -------------------------------------------------------------
                  HL-Gap            0.0891256 Eh            2.4252 eV
             Fermi-level           -0.2579881 Eh           -7.0202 eV

 SCC (total)                   0 d,  0 h,  0 min,  0.033 sec
 SCC setup                      ...        0 min,  0.000 sec (  1.475%)
 Dispersion                     ...        0 min,  0.000 sec (  0.539%)
 classical contributions        ...        0 min,  0.000 sec (  0.122%)
 integral evaluation            ...        0 min,  0.001 sec (  4.404%)
 iterations                     ...        0 min,  0.028 sec ( 86.153%)
 molecular gradient             ...        0 min,  0.002 sec (  6.868%)
 printout                       ...        0 min,  0.000 sec (  0.319%)

         :::::::::::::::::::::::::::::::::::::::::::::::::::::
         ::                     SUMMARY                     ::
         :::::::::::::::::::::::::::::::::::::::::::::::::::::
         :: total energy             -22.863399337874 Eh    ::
         :: total w/o Gsasa/hb       -22.861732779365 Eh    ::
         :: gradient norm              0.062382195835 Eh/a0 ::
         :: HOMO-LUMO gap              2.425231144354 eV    ::
         ::.................................................::
         :: SCC energy               -23.200146414123 Eh    ::
         :: -> isotropic ES            0.221829333866 Eh    ::
         :: -> anisotropic ES          0.005168722829 Eh    ::
         :: -> anisotropic XC          0.007374082360 Eh    ::
         :: -> dispersion             -0.012701405433 Eh    ::
         :: -> Gsolv                  -0.117126406787 Eh    ::
         ::    -> Gelec               -0.115459848278 Eh    ::
         ::    -> Gsasa                0.001034080705 Eh    ::
         ::    -> Ghb                 -0.003781398912 Eh    ::
         ::    -> Gshift               0.001080759698 Eh    ::
         :: repulsion energy           0.336747076248 Eh    ::
         :: add. restraining           0.000000000000 Eh    ::
         :: total charge              -1.000000000000 e     ::
         :::::::::::::::::::::::::::::::::::::::::::::::::::::

      ----------------------------------------------------------- 
     |                   =====================                   |
     |                        A N C O P T                        |
     |                   =====================                   |
     |               Approximate Normal Coordinate               |
     |                Rational Function Optimizer                |
      ----------------------------------------------------------- 
      ----------------------------------------------------------- 
     |                   =====================                   |
     |                        A N C O P T                        |
     |                   =====================                   |
     |               Approximate Normal Coordinate               |
     |                Rational Function Optimizer                |
      ----------------------------------------------------------- 

          ...................................................
          :                      SETUP                      :
          :.................................................:
          :   optimization level            normal          :
          :   max. optcycles                   200          :
          :   ANC micro-cycles                  20          :
          :   degrees of freedom                39          :
          :.................................................:
          :   RF solver                   davidson          :
          :   write xtbopt.log                true          :
          :   linear?                        false          :
          :   energy convergence         0.5000000E-05 Eh   :
          :   grad. convergence          0.1000000E-02 Eh/α :
          :   maxmium RF displ.          1.0000000          :
          :   Hlow (freq-cutoff)         0.1000000E-01      :
          :   Hmax (freq-cutoff)         5.0000000          :
          :   S6 in model hess.         20.0000000          :
          ...................................................

generating ANC from exact Hessian ...
Using Lindh-Hessian (1995)
 Shifting diagonal of input Hessian by   5.009491276510365E-003
 Lowest  eigenvalues of input Hessian
    0.000000    0.000000    0.000000    0.000000    0.000000    0.000000
    0.010000    0.012609    0.019326    0.020722    0.023018    0.028307
    0.044686    0.049084    0.064649    0.070556    0.091854    0.097050
 Highest eigenvalues
    1.517976    1.533136    1.715837    1.818004    1.919488    1.936301
 

........................................................................
.............................. CYCLE    1 ..............................
........................................................................

 iter      E             dE          RMSdq      gap      omega  full diag
   1    -23.2001694 -0.232002E+02  0.612E-05    2.43       0.0  T
   2    -23.2001694 -0.192450E-10  0.362E-05    2.43     712.7  T
   3    -23.2001694 -0.864375E-11  0.213E-05    2.43    1214.4  T
     SCC iter.                  ...        0 min,  0.001 sec
     gradient                   ...        0 min,  0.002 sec
 * total energy  :   -22.8633993 Eh     change       -0.5602629E-10 Eh
   gradient norm :     0.0623824 Eh/α   predicted     0.0000000E+00 (-100.00%)
   displ. norm   :     0.2420489 α      lambda       -0.1022327E-01
   maximum displ.:     0.1110389 α      in ANC's #17, #1, #7, ...

........................................................................
.............................. CYCLE    2 ..............................
........................................................................

 iter      E             dE          RMSdq      gap      omega  full diag
   1    -23.2152797 -0.232153E+02  0.292E-01    2.61       0.0  T
   2    -23.2153283 -0.486117E-04  0.175E-01    2.55       1.0  T
   3    -23.2152944  0.338891E-04  0.863E-02    2.54       1.0  T
   4    -23.2153497 -0.553309E-04  0.107E-02    2.53       2.4  T
   5    -23.2153501 -0.406482E-06  0.515E-03    2.53       5.0  T
   6    -23.2153503 -0.148755E-06  0.228E-03    2.53      11.3  T
   7    -23.2153503 -0.379035E-08  0.633E-04    2.53      40.8  T
   8    -23.2153503 -0.185443E-08  0.271E-04    2.53      95.3  T
     SCC iter.                  ...        0 min,  0.003 sec
     gradient                   ...        0 min,  0.002 sec
 * total energy  :   -22.8697792 Eh     change       -0.6379828E-02 Eh
   gradient norm :     0.0185727 Eh/α   predicted    -0.5411115E-02 ( -15.18%)
   displ. norm   :     0.1411617 α      lambda       -0.1254210E-02
   maximum displ.:     0.1058357 α      in ANC's #1, #8, #24, ...

........................................................................
.............................. CYCLE    3 ..............................
........................................................................

 iter      E             dE          RMSdq      gap      omega  full diag
   1    -23.2181840 -0.232182E+02  0.145E-01    2.58       0.0  T
   2    -23.2181880 -0.403859E-05  0.855E-02    2.56       1.0  T
   3    -23.2181855  0.252921E-05  0.187E-02    2.55       1.4  T
   4    -23.2181890 -0.344390E-05  0.424E-03    2.55       6.1  T
   5    -23.2181890 -0.871066E-07  0.156E-03    2.55      16.5  T
   6    -23.2181890 -0.484695E-08  0.931E-04    2.55      27.7  T
   7    -23.2181890 -0.243250E-08  0.277E-04    2.55      93.2  T
     SCC iter.                  ...        0 min,  0.002 sec
     gradient                   ...        0 min,  0.002 sec
 * total energy  :   -22.8704189 Eh     change       -0.6397607E-03 Eh
   gradient norm :     0.0044843 Eh/α   predicted    -0.6396013E-03 (  -0.02%)
   displ. norm   :     0.0531812 α      lambda       -0.6141725E-04
   maximum displ.:     0.0463519 α      in ANC's #1, #5, #6, ...

........................................................................
.............................. CYCLE    4 ..............................
........................................................................

 iter      E             dE          RMSdq      gap      omega  full diag
   1    -23.2173255 -0.232173E+02  0.488E-02    2.55       0.0  T
   2    -23.2173255 -0.871329E-07  0.289E-02    2.55       1.0  T
   3    -23.2173255  0.328068E-07  0.244E-03    2.55      10.6  T
   4    -23.2173256 -0.601047E-07  0.724E-04    2.55      35.6  T
   5    -23.2173256 -0.173199E-08  0.306E-04    2.55      84.2  T
     SCC iter.                  ...        0 min,  0.002 sec
     gradient                   ...        0 min,  0.002 sec
 * total energy  :   -22.8704576 Eh     change       -0.3870296E-04 Eh
   gradient norm :     0.0018976 Eh/α   predicted    -0.3079412E-04 ( -20.43%)
   displ. norm   :     0.0534187 α      lambda       -0.1667923E-04
   maximum displ.:     0.0498934 α      in ANC's #1, #5, #2, ...

........................................................................
.............................. CYCLE    5 ..............................
........................................................................

 iter      E             dE          RMSdq      gap      omega  full diag
   1    -23.2169959 -0.232170E+02  0.383E-02    2.55       0.0  T
   2    -23.2169961 -0.195169E-06  0.228E-02    2.55       1.1  T
   3    -23.2169958  0.361168E-06  0.637E-03    2.55       4.1  T
   4    -23.2169962 -0.448088E-06  0.846E-04    2.55      30.5  T
   5    -23.2169962 -0.159146E-08  0.441E-04    2.55      58.5  T
     SCC iter.                  ...        0 min,  0.002 sec
     gradient                   ...        0 min,  0.002 sec
 * total energy  :   -22.8704709 Eh     change       -0.1327224E-04 Eh
   gradient norm :     0.0010693 Eh/α   predicted    -0.8350650E-05 ( -37.08%)
   displ. norm   :     0.0205706 α      lambda       -0.3580372E-05
   maximum displ.:     0.0167029 α      in ANC's #1, #2, #5, ...

........................................................................
.............................. CYCLE    6 ..............................
........................................................................

 iter      E             dE          RMSdq      gap      omega  full diag
   1    -23.2173114 -0.232173E+02  0.129E-02    2.55       0.0  T
   2    -23.2173114 -0.227183E-07  0.767E-03    2.56       3.4  T
   3    -23.2173114  0.455276E-08  0.109E-03    2.56      23.7  T
   4    -23.2173114 -0.100399E-07  0.397E-04    2.56      65.0  T
   5    -23.2173114 -0.554984E-09  0.152E-04    2.56     169.3  T
     SCC iter.                  ...        0 min,  0.002 sec
     gradient                   ...        0 min,  0.002 sec
 * total energy  :   -22.8704747 Eh     change       -0.3806038E-05 Eh
   gradient norm :     0.0008165 Eh/α   predicted    -0.1789510E-05 ( -52.98%)
   displ. norm   :     0.0262122 α      lambda       -0.2710638E-05
   maximum displ.:     0.0191152 α      in ANC's #1, #2, #5, ...

   *** GEOMETRY OPTIMIZATION CONVERGED AFTER 6 ITERATIONS ***

------------------------------------------------------------------------
 total energy gain   :        -0.0070754 Eh       -4.4399 kcal/mol
 total RMSD          :         0.1112397 a0        0.0589 Å
 total power (kW/mol):        -3.0960634 (step) -352.1995 (real)
------------------------------------------------------------------------

 ANCopt (total)                0 d,  0 h,  0 min,  0.053 sec
 optimizer setup                ...        0 min,  0.000 sec (  0.186%)
 model hessian                  ...        0 min,  0.002 sec (  3.349%)
 ANC generation                 ...        0 min,  0.000 sec (  0.504%)
 coordinate transformation      ...        0 min,  0.000 sec (  0.088%)
 single point calculation       ...        0 min,  0.030 sec ( 56.840%)
 optimization log               ...        0 min,  0.019 sec ( 36.342%)
 hessian update                 ...        0 min,  0.000 sec (  0.106%)
 rational function              ...        0 min,  0.001 sec (  2.058%)

================
 final structure:
================
15
 xtb: 6.7.1 (edcfbbe)
C           -4.19037338228244       -4.15350397566166       -3.25009546312277
C           -2.89297391436008       -4.63463818491074       -3.21859247983197
H           -3.78747536380273       -1.34339786164642       -1.44618466056438
C           -4.52717511607206       -2.96983097891655       -2.60559076401716
H           -4.96335273157876       -4.69264519820359       -3.78199427765919
C           -1.90856100244427       -3.93509754179430       -2.54199682306240
H           -2.65370827537812       -5.55939420454902       -3.72317061850403
C           -2.23012787038527       -2.74938229683595       -1.90303015026129
H           -0.89670651988849       -4.31004499913104       -2.51437647215241
C           -3.52840333041278       -2.27255844015145       -1.93648550764432
H           -1.46999407565143       -2.19313929454626       -1.37409038565725
C           -5.92568185974879       -2.38432041615834       -2.72606311660205
H           -6.65879148835479       -3.25320752492048       -2.82645912423676
H           -6.19252576946635       -1.91773782153780       -1.71697421164497
O           -6.04443230017364       -1.50937226103639       -3.73006994503905
 
 Bond Distances (Angstroems)
 ---------------------------
C1-C2=1.3841         C1-C4=1.3892         C1-H5=1.0822         C2-C1=1.3841         C2-C6=1.3843         C2-H7=1.0803         
H3-C10=1.0821        C4-C1=1.3892         C4-C10=1.3898        C4-C12=1.5209        H5-C1=1.0822         C6-C2=1.3843         
C6-C8=1.3848         C6-H9=1.0794         H7-C2=1.0803         C8-C6=1.3848         C8-C10=1.3835        C8-H11=1.0803        
H9-C6=1.0794         C10-H3=1.0821        C10-C4=1.3898        C10-C8=1.3835        H11-C8=1.0803        C12-C4=1.5209        
C12-H13=1.1413       C12-H14=1.1433       C12-O15=1.3370       H13-C12=1.1413       H14-C12=1.1433       O15-C12=1.3370       
 C  H  Rav=1.0984 sigma=0.0278  Rmin=1.0794  Rmax=1.1433     7
 C  C  Rav=1.4052 sigma=0.0473  Rmin=1.3835  Rmax=1.5209     7
 O  C  Rav=1.3370 sigma=0.0000  Rmin=1.3370  Rmax=1.3370     1
 
 selected bond angles (degree)
 --------------------
C4-C1-C2=120.86                H5-C1-C2=120.50                H5-C1-C4=118.64                C6-C2-C1=120.14                
H7-C2-C1=119.64                H7-C2-C6=120.22                C10-C4-C1=118.46               C12-C4-C1=120.94               
C12-C4-C10=120.39              C8-C6-C2=119.54                H9-C6-C2=120.24                H9-C6-C8=120.22                
C10-C8-C6=120.12               H11-C8-C6=120.23               H11-C8-C10=119.65              C4-C10-H3=118.48               
C8-C10-H3=120.64               C8-C10-C4=120.87               
 
 selected dihedral angles (degree)
 ---------------------------------
C6-C2-C1-C4=359.86            C6-C2-C1-H5=179.65            H7-C2-C1-C4=179.75            H7-C2-C1-H5=359.54            
C10-C4-C1-C2=  0.52           C10-C4-C1-H5=180.72           C12-C4-C1-C2=175.33           C12-C4-C1-H5=355.53           
C8-C6-C2-C1=359.72            C8-C6-C2-H7=179.83            H9-C6-C2-C1=179.85            H9-C6-C2-H7=359.96            
C10-C8-C6-C2=  0.32           C10-C8-C6-H9=180.18           H11-C8-C6-C2=180.17           H11-C8-C6-H9=  0.04           
H3-C10-C4-C1=179.15           H3-C10-C4-C12=  4.31          C8-C10-C4-C1=359.52           C8-C10-C4-C12=184.68          
H3-C10-C8-C6=180.45           H3-C10-C8-H11=  0.59          C4-C10-C8-C6=  0.07           C4-C10-C8-H11=180.22          
           -------------------------------------------------
          |                Final Singlepoint                |
           -------------------------------------------------

          ...................................................
          :                      SETUP                      :
          :.................................................:
          :  # basis functions                  39          :
          :  # atomic orbitals                  39          :
          :  # shells                           23          :
          :  # electrons                        42          :
          :  max. iterations                   250          :
          :  Hamiltonian                  GFN2-xTB          :
          :  restarted?                      false          :
          :  GBSA solvation                   true          :
          :  PC potential                    false          :
          :  electronic temp.          300.0000000     K    :
          :  accuracy                    1.0000000          :
          :  -> integral cutoff          0.2500000E+02      :
          :  -> integral neglect         0.1000000E-07      :
          :  -> SCF convergence          0.1000000E-05 Eh   :
          :  -> wf. convergence          0.1000000E-03 e    :
          :  Broyden damping             0.4000000          :
          :  net charge                         -1          :
          :  unpaired electrons                  0          :
          ...................................................

 iter      E             dE          RMSdq      gap      omega  full diag
   1    -23.2173114 -0.232173E+02  0.735E-05    2.56       0.0  T
   2    -23.2173114 -0.219771E-10  0.438E-05    2.56     589.7  T
   3    -23.2173114 -0.757439E-11  0.268E-05    2.56     962.3  T

   *** convergence criteria satisfied after 3 iterations ***

         #    Occupation            Energy/Eh            Energy/eV
      -------------------------------------------------------------
         1        2.0000           -0.6326305             -17.2148
       ...           ...                  ...                  ...
        15        2.0000           -0.4386708             -11.9368
        16        2.0000           -0.4146214             -11.2824
        17        2.0000           -0.4120546             -11.2126
        18        2.0000           -0.3940730             -10.7233
        19        2.0000           -0.3840428             -10.4503
        20        2.0000           -0.3077404              -8.3740
        21        2.0000           -0.3065312              -8.3411 (HOMO)
        22                         -0.2125702              -5.7843 (LUMO)
        23                         -0.2096971              -5.7061
        24                         -0.0823803              -2.2417
        25                          0.1068113               2.9065
        26                          0.1209656               3.2916
       ...                                ...                  ...
        39                          0.6722340              18.2924
      -------------------------------------------------------------
                  HL-Gap            0.0939610 Eh            2.5568 eV
             Fermi-level           -0.2595507 Eh           -7.0627 eV

 SCC (total)                   0 d,  0 h,  0 min,  0.004 sec
 SCC setup                      ...        0 min,  0.000 sec (  4.844%)
 Dispersion                     ...        0 min,  0.000 sec (  1.622%)
 classical contributions        ...        0 min,  0.000 sec (  0.318%)
 integral evaluation            ...        0 min,  0.001 sec ( 19.447%)
 iterations                     ...        0 min,  0.001 sec ( 25.694%)
 molecular gradient             ...        0 min,  0.002 sec ( 45.505%)
 printout                       ...        0 min,  0.000 sec (  1.911%)

         :::::::::::::::::::::::::::::::::::::::::::::::::::::
         ::                     SUMMARY                     ::
         :::::::::::::::::::::::::::::::::::::::::::::::::::::
         :: total energy             -22.870474707497 Eh    ::
         :: total w/o Gsasa/hb       -22.868509441828 Eh    ::
         :: gradient norm              0.000816348074 Eh/a0 ::
         :: HOMO-LUMO gap              2.556809601767 eV    ::
         ::.................................................::
         :: SCC energy               -23.217289302616 Eh    ::
         :: -> isotropic ES            0.227759911435 Eh    ::
         :: -> anisotropic ES          0.003186399796 Eh    ::
         :: -> anisotropic XC          0.007189129859 Eh    ::
         :: -> dispersion             -0.012734678426 Eh    ::
         :: -> Gsolv                  -0.120828113991 Eh    ::
         ::    -> Gelec               -0.118862848322 Eh    ::
         ::    -> Gsasa                0.001076561236 Eh    ::
         ::    -> Ghb                 -0.004122586604 Eh    ::
         ::    -> Gshift               0.001080759698 Eh    ::
         :: repulsion energy           0.346814595119 Eh    ::
         :: add. restraining           0.000000000000 Eh    ::
         :: total charge              -1.000000000000 e     ::
         :::::::::::::::::::::::::::::::::::::::::::::::::::::

           ------------------------------------------------- 
          |                Numerical Hessian                |
           ------------------------------------------------- 
step length          :   0.00500
SCC accuracy         :   0.30000
Hessian scale factor :   1.00000
frozen atoms in %    :   0.00000    0
RMS gradient         :   0.00082
estimated CPU  time      0.02 min
estimated wall time      0.01 min

writing file <hessian>.

 projected vibrational frequencies (cm⁻¹)
eigval :       -0.00    -0.00    -0.00     0.00     0.00     0.00
eigval :       45.45   123.85   297.86   318.58   363.49   468.94
eigval :      568.63   590.64   672.00   752.27   807.09   873.08
eigval :      890.71   918.25   921.22   981.20   983.70  1067.36
eigval :     1082.78  1117.91  1175.22  1189.37  1205.48  1246.88
eigval :     1288.89  1328.57  1358.01  1435.64  1469.58  1500.74
eigval :     1589.90  1598.48  2163.81  2375.54  3044.54  3048.80
eigval :     3067.21  3069.02  3087.68
           -------------------------------------------------
          |                Property Printout                |
           -------------------------------------------------

    * Orbital Energies and Occupations

         #    Occupation            Energy/Eh            Energy/eV
      -------------------------------------------------------------
         1        2.0000           -0.6326305             -17.2148
       ...           ...                  ...                  ...
         9        2.0000           -0.4920931             -13.3905
        10        2.0000           -0.4885504             -13.2941
        11        2.0000           -0.4712558             -12.8235
        12        2.0000           -0.4692100             -12.7679
        13        2.0000           -0.4604362             -12.5291
        14        2.0000           -0.4553876             -12.3917
        15        2.0000           -0.4386709             -11.9368
        16        2.0000           -0.4146214             -11.2824
        17        2.0000           -0.4120546             -11.2126
        18        2.0000           -0.3940730             -10.7233
        19        2.0000           -0.3840428             -10.4503
        20        2.0000           -0.3077405              -8.3740
        21        2.0000           -0.3065313              -8.3411 (HOMO)
        22                         -0.2125702              -5.7843 (LUMO)
        23                         -0.2096971              -5.7061
        24                         -0.0823802              -2.2417
        25                          0.1068113               2.9065
        26                          0.1209656               3.2916
        27                          0.1284342               3.4949
        28                          0.1582757               4.3069
        29                          0.1707541               4.6465
        30                          0.1863713               5.0714
        31                          0.2097918               5.7087
        32                          0.2155209               5.8646
       ...                                ...                  ...
        39                          0.6722340              18.2924
      -------------------------------------------------------------
                  HL-Gap            0.0939611 Eh            2.5568 eV
             Fermi-level           -0.2595508 Eh           -7.0627 eV

     #   Z          covCN         q      C6AA      α(0)
     1   6 C        2.925    -0.035    28.872     8.812
     2   6 C        2.919    -0.040    28.990     8.829
     3   1 H        0.925     0.008     2.929     2.676
     4   6 C        2.965    -0.017    28.431     8.746
     5   1 H        0.925     0.008     2.924     2.674
     6   6 C        2.920    -0.045    29.106     8.847
     7   1 H        0.926     0.040     2.445     2.445
     8   6 C        2.919    -0.040    28.991     8.830
     9   1 H        0.926     0.047     2.358     2.401
    10   6 C        2.925    -0.033    28.816     8.803
    11   1 H        0.926     0.040     2.452     2.449
    12   6 C        3.663     0.192    17.796     6.051
    13   1 H        0.915    -0.127     6.608     4.021
    14   1 H        0.914    -0.128     6.676     4.041
    15   8 O        0.855    -0.870    33.797     7.794

 Mol. C6AA /au·bohr⁶  :       3069.458201
 Mol. C8AA /au·bohr⁸  :      71675.375638
 Mol. α(0) /au        :         87.420602


Wiberg/Mayer (AO) data.
largest (>0.10) Wiberg bond orders for each atom

 ---------------------------------------------------------------------------
     #   Z sym  total        # sym  WBO       # sym  WBO       # sym  WBO
 ---------------------------------------------------------------------------
     1   6 C    3.991 --     2 C    1.445     4 C    1.411     5 H    0.969
                             8 C    0.109
     2   6 C    3.990 --     1 C    1.445     6 C    1.437     7 H    0.970
                            10 C    0.110
     3   1 H    1.000 --    10 C    0.970
     4   6 C    3.978 --     1 C    1.411    10 C    1.409    12 C    0.963
                             6 C    0.110
     5   1 H    1.000 --     1 C    0.969
     6   6 C    3.990 --     2 C    1.437     8 C    1.434     9 H    0.970
                             4 C    0.110
     7   1 H    0.998 --     2 C    0.970
     8   6 C    3.990 --    10 C    1.449     6 C    1.434    11 H    0.970
                             1 C    0.109
     9   1 H    0.997 --     6 C    0.970
    10   6 C    3.991 --     8 C    1.449     4 C    1.409     3 H    0.970
                             2 C    0.110
    11   1 H    0.998 --     8 C    0.970
    12   6 C    3.976 --    15 O    1.132     4 C    0.963    13 H    0.925
                            14 H    0.922
    13   1 H    0.984 --    12 C    0.925
    14   1 H    0.983 --    12 C    0.922
    15   8 O    1.324 --    12 C    1.132
 ---------------------------------------------------------------------------

Topologies differ in total number of bonds
Writing topology from bond orders to xtbtopo.mol

molecular dipole:
                 x           y           z       tot (Debye)
 q only:       11.556       3.201       6.570
   full:       11.327       3.133       6.751      34.448
molecular quadrupole (traceless):
                xx          xy          yy          xz          yz          zz
 q only:     -104.387     -56.713      77.599    -113.317     -30.108      26.788
  q+dip:      -98.387     -52.758      77.551    -114.212     -26.853      20.836
   full:      -99.608     -52.472      77.283    -114.818     -28.844      22.325

           -------------------------------------------------
          |                Geometry Summary                 |
           -------------------------------------------------

      molecular mass/u    :      107.1301415
   center of mass at/Å    :       -3.9788446      -3.0340825      -2.7590331
  moments of inertia/u·Å² :        0.1041723E+03   0.3316912E+03   0.4047703E+03
rotational constants/cm⁻¹ :        0.1618245E+00   0.5082327E-01   0.4164741E-01

 * 13 selected distances

     #   Z          #   Z                                           value/Å
     1   6 C        2   6 C                                       1.3840984
     1   6 C        4   6 C                                       1.3892098
     1   6 C        5   1 H                                       1.0821677
     2   6 C        6   6 C                                       1.3842716
     2   6 C        7   1 H                                       1.0802875
     6   6 C        8   6 C                                       1.3847760
     6   6 C        9   1 H                                       1.0794435 (min)
     3   1 H       10   6 C                                       1.0820595
     4   6 C       10   6 C                                       1.3897612 (max)
     8   6 C       10   6 C                                       1.3834738
     8   6 C       11   1 H                                       1.0802718
    12   6 C       13   1 H                                       1.1412687
    12   6 C       14   1 H                                       1.1433135

 * 2 distinct bonds (by element types)

   Z      Z             #   av. dist./Å        max./Å        min./Å
   1 H    6 C           7     1.0984017     1.1433135     1.0794435
   6 C    6 C           6     1.3859318     1.3897612     1.3834738

           -------------------------------------------------
          |               Frequency Printout                |
           -------------------------------------------------
 projected vibrational frequencies (cm⁻¹)
eigval :       -0.00    -0.00    -0.00     0.00     0.00     0.00
eigval :       45.45   123.85   297.86   318.58   363.49   468.94
eigval :      568.63   590.64   672.00   752.27   807.09   873.08
eigval :      890.71   918.25   921.22   981.20   983.70  1067.36
eigval :     1082.78  1117.91  1175.22  1189.37  1205.48  1246.88
eigval :     1288.89  1328.57  1358.01  1435.64  1469.58  1500.74
eigval :     1589.90  1598.48  2163.81  2375.54  3044.54  3048.80
eigval :     3067.21  3069.02  3087.68
 reduced masses (amu)
   1: 12.94   2: 12.53   3: 11.65   4: 11.10   5: 10.44   6: 10.96   7: 11.40   8: 12.45
   9: 11.30  10:  8.20  11:  8.84  12: 10.41  13: 10.41  14: 11.16  15:  8.62  16:  6.45
  17:  9.79  18:  3.34  19:  4.13  20:  2.66  21:  4.17  22: 10.97  23:  5.78  24: 13.15
  25:  7.19  26:  3.95  27:  1.32  28:  3.70  29:  7.38  30:  2.89  31:  3.69  32: 10.82
  33:  2.98  34:  8.73  35:  8.48  36:  2.28  37: 11.47  38: 11.46  39:  1.75  40:  1.36
  41:  1.79  42:  1.78  43:  1.78  44:  1.85  45:  1.91
 IR intensities (km·mol⁻¹)
   1: 23.34   2: 20.34   3: 13.03   4:  1.66   5:  4.77   6:  1.06   7: 15.81   8: 30.06
   9: 30.33  10:  5.47  11:  0.01  12:  0.72  13: 25.44  14:  0.01  15:  9.09  16: 29.38
  17: 19.14  18:  0.01  19:  0.68  20:  0.13  21:  0.06  22:  4.37  23: 33.44  24:410.00
  25: 27.98  26:  2.91  27:  0.06  28:  1.37  29:  0.82  30: 10.05  31:  0.41  32:  5.25
  33:139.67  34:  0.01  35: 18.16  36:162.61  37:  2.70  38: 12.33  39:923.28  40:774.04
  41:146.71  42:111.13  43:  3.94  44:249.49  45:101.18
 Raman intensities (Ä⁴*amu⁻¹)
   1:  0.00   2:  0.00   3:  0.00   4:  0.00   5:  0.00   6:  0.00   7:  0.00   8:  0.00
   9:  0.00  10:  0.00  11:  0.00  12:  0.00  13:  0.00  14:  0.00  15:  0.00  16:  0.00
  17:  0.00  18:  0.00  19:  0.00  20:  0.00  21:  0.00  22:  0.00  23:  0.00  24:  0.00
  25:  0.00  26:  0.00  27:  0.00  28:  0.00  29:  0.00  30:  0.00  31:  0.00  32:  0.00
  33:  0.00  34:  0.00  35:  0.00  36:  0.00  37:  0.00  38:  0.00  39:  0.00  40:  0.00
  41:  0.00  42:  0.00  43:  0.00  44:  0.00  45:  0.00
 output can be read by thermo (or use thermo option).
 writing <g98.out> molden fake output.
 recommended (thermochemical) frequency scaling factor: 1.0
           -------------------------------------------------
          |             Thermodynamic Functions             |
           -------------------------------------------------

Refinement of some symmetry elements was terminated before convergence was reached.
Some symmetry elements may remain unidentified.
Molecule has no symmetry elements
It seems to be the C1 point group
c1  symmetry found (for desy threshold:  0.10E+00) used in thermo

          ...................................................
          :                      SETUP                      :
          :.................................................:
          :  # frequencies                          39      :
          :  # imaginary freq.                       0      :
          :  linear?                             false      :
          :  only rotor calc.                    false      :
          :  symmetry                               c1      :
          :  rotational number                       1      :
          :  scaling factor                  1.0000000      :
          :  rotor cutoff                   50.0000000 cm⁻¹ :
          :  imag. cutoff                  -20.0000000 cm⁻¹ :
          :.................................................:

    mode    ω/cm⁻¹     T·S(HO)/kcal·mol⁻¹    T·S(FR)/kcal·mol⁻¹   T·S(vib)
   ------------------------------------------------------------------------
       1     45.45    -1.49255 ( 40.58%)    -1.08441 ( 59.42%)    -1.25002
       2    123.85    -0.90620 ( 97.41%)    -0.78770 (  2.59%)    -0.90314
       3    297.86    -0.42602 ( 99.92%)    -0.52781 (  0.08%)    -0.42610
   ------------------------------------------------------------------------

   temp. (K)  partition function   enthalpy   heat capacity  entropy
                                   cal/mol     cal/K/mol   cal/K/mol   J/K/mol
 298.15  VIB   35.0                 2560.630     19.137     14.833
         ROT  0.286E+06              888.752      2.981     27.946
         INT  0.100E+08             3449.383     22.118     42.779
         TR   0.107E+28             1481.254      4.968     39.905
         TOT                        4930.6367    27.0863    82.6841   345.9501

       T/K    H(0)-H(T)+PV         H(T)/Eh          T*S/Eh         G(T)/Eh
   ------------------------------------------------------------------------
    298.15    0.785747E-02    0.121967E+00    0.392859E-01    0.826813E-01
   ------------------------------------------------------------------------

         :::::::::::::::::::::::::::::::::::::::::::::::::::::
         ::                  THERMODYNAMIC                  ::
         :::::::::::::::::::::::::::::::::::::::::::::::::::::
         :: total free energy         -22.787793399525 Eh   ::
         ::.................................................::
         :: total energy              -22.870474707697 Eh   ::
         :: zero point energy           0.114109698833 Eh   ::
         :: G(RRHO) w/o ZPVE           -0.031428390662 Eh   ::
         :: G(RRHO) contrib.            0.082681308172 Eh   ::
         :::::::::::::::::::::::::::::::::::::::::::::::::::::

optimized geometry written to: xtbopt.xyz


           -------------------------------------------------
          | TOTAL ENERGY              -22.870474707697 Eh   |
          | TOTAL ENTHALPY            -22.748507539068 Eh   |
          | TOTAL FREE ENERGY         -22.787793399525 Eh   |
          | GRADIENT NORM               0.000816353239 Eh/α |
          | HOMO-LUMO GAP               2.556812279386 eV   |
           -------------------------------------------------
########################################################################
[WARNING] Runtime exception occurred
-2- restart_readRestart: Dimension missmatch in restart file.
-1- restart_readRestart: Number of electron missmatch in restart file.
########################################################################

------------------------------------------------------------------------
 * finished run on 2025/10/18 at 01:12:42.508     
------------------------------------------------------------------------
 total:
 * wall-time:     0 d,  0 h,  0 min,  0.579 sec
 *  cpu-time:     0 d,  0 h,  0 min,  0.960 sec
 * ratio c/w:     1.659 speedup
 SCF:
 * wall-time:     0 d,  0 h,  0 min,  0.033 sec
 *  cpu-time:     0 d,  0 h,  0 min,  0.048 sec
 * ratio c/w:     1.461 speedup
 ANC optimizer:
 * wall-time:     0 d,  0 h,  0 min,  0.120 sec
 *  cpu-time:     0 d,  0 h,  0 min,  0.159 sec
 * ratio c/w:     1.331 speedup
 analytical hessian:
 * wall-time:     0 d,  0 h,  0 min,  0.382 sec
 *  cpu-time:     0 d,  0 h,  0 min,  0.697 sec
 * ratio c/w:     1.823 speedup

