15
 energy: -22.863399337930 gnorm: 0.062382407477 xtb: 6.7.1 (edcfbbe)
C           -4.20105400000000       -4.13483700000000       -3.29009200000000
C           -2.90344500000000       -4.64563800000000       -3.21575200000000
H           -3.77601000000000       -1.28267900000000       -1.50020800000000
C           -4.53224500000000       -2.92677900000000       -2.65798500000000
H           -4.96791100000000       -4.66016100000000       -3.85250200000000
C           -1.91917600000000       -3.95136300000000       -2.51311000000000
H           -2.66576800000000       -5.57804900000000       -3.71650800000000
C           -2.23024600000000       -2.74269600000000       -1.89070600000000
H           -0.90879600000000       -4.34322400000000       -2.46317400000000
C           -3.52853100000000       -2.23415600000000       -1.96375100000000
H           -1.46676800000000       -2.18641500000000       -1.35806500000000
C           -5.96132800000000       -2.38022300000000       -2.71690400000000
H           -6.61242100000000       -3.26971300000000       -2.74711600000000
H           -6.17155400000000       -2.02841300000000       -1.69298800000000
O           -6.02503000000000       -1.51392500000000       -3.71631300000000
15
 energy: -22.869779165548 gnorm: 0.018572771242 xtb: 6.7.1 (edcfbbe)
C           -4.18690674268607       -4.13965121023631       -3.27448584267106
C           -2.89244448550727       -4.63216469444324       -3.22600089844055
H           -3.77699776397064       -1.31384894357869       -1.48559964606440
C           -4.52463567949385       -2.95815662311601       -2.62083882836123
H           -4.95742620682800       -4.66877152441157       -3.82189773132160
C           -1.91401500472109       -3.94376168582949       -2.52703704451199
H           -2.65881744258596       -5.56731934487872       -3.71563806245088
C           -2.22656823867766       -2.74232584837189       -1.91060779991785
H           -0.91085224387879       -4.34098346180127       -2.46423880946320
C           -3.52214483370764       -2.25390579417483       -1.96001497942116
H           -1.46989036008821       -2.19314811783211       -1.36785988546639
C           -5.94246899186704       -2.38620503196846       -2.71511742570620
H           -6.64378211407039       -3.26625901807218       -2.79731828080916
H           -6.18849093681906       -1.96371284832336       -1.69692646664307
O           -6.05484195509833       -1.50805685296188       -3.71159229875127
15
 energy: -22.870418926216 gnorm: 0.004484356186 xtb: 6.7.1 (edcfbbe)
C           -4.18583850417951       -4.14718388819541       -3.25996184221930
C           -2.89235877073224       -4.63596899974860       -3.21641387151024
H           -3.78112072739949       -1.33102736532239       -1.46859038073733
C           -4.52158433553678       -2.96579812120050       -2.61340072922620
H           -4.95783058000116       -4.67972766795275       -3.80007088312627
C           -1.91129190491270       -3.94299496811303       -2.52943015156600
H           -2.65294832631521       -5.55859722786174       -3.72431810142701
C           -2.22906256766843       -2.75035278352502       -1.90282458407184
H           -0.90298585079485       -4.32604560892770       -2.48875892228915
C           -3.52367764319382       -2.26618646929815       -1.94844543914643
H           -1.46808847990474       -2.19109385513343       -1.37881723232626
C           -5.93017493357764       -2.38683253897260       -2.72022056650568
H           -6.65589102981476       -3.26005289434002       -2.82277369598063
H           -6.19256842516189       -1.93187931209686       -1.70631116207335
O           -6.06486092080679       -1.50452929931177       -3.71483643779432
15
 energy: -22.870457629180 gnorm: 0.001897628899 xtb: 6.7.1 (edcfbbe)
C           -4.18826234953278       -4.15016103784288       -3.25568090646625
C           -2.89221019153587       -4.63480955211794       -3.21872460503566
H           -3.78462448471058       -1.33651417109743       -1.45787424277182
C           -4.52413573901435       -2.96730680694031       -2.61041483613574
H           -4.96127049631347       -4.68643724994750       -3.79081095280800
C           -1.90922894932421       -3.93851455106592       -2.53683568585754
H           -2.65364025243491       -5.56024935320727       -3.72206384405800
C           -2.22897831205414       -2.74886095343800       -1.90450252138784
H           -0.90020341492244       -4.32013009212062       -2.49836252599776
C           -3.52594595646369       -2.26843348976549       -1.94351053827839
H           -1.46915926904298       -2.19275415291045       -1.37522959447949
C           -5.92781584418161       -2.38529740897833       -2.72360892367148
H           -6.65544418156044       -3.25817514795943       -2.82688324909487
H           -6.19035332580405       -1.92639804132515       -1.71027871086433
O           -6.05901023310447       -1.50422899128327       -3.72039286309283
15
 energy: -22.870470901419 gnorm: 0.001069277013 xtb: 6.7.1 (edcfbbe)
C           -4.19011590149423       -4.15267404116792       -3.25195174619759
C           -2.89298372986668       -4.63499353491623       -3.21841278937519
H           -3.78705034469263       -1.34173761129863       -1.44837213784826
C           -4.52652492051792       -2.96828991879994       -2.60823847777612
H           -4.96332378268171       -4.69221092203315       -3.78328748698808
C           -1.90874008657853       -3.93596424392751       -2.54067647694018
H           -2.65399274358625       -5.56067677093603       -3.72150175184714
C           -2.22996854402624       -2.74914236448852       -1.90324668105008
H           -0.89696774567693       -4.31166295967687       -2.51188379156060
C           -3.52793391798172       -2.27097486169434       -1.93865020915365
H           -1.47004825901781       -2.19358648346394       -1.37316771614375
C           -5.92572929227138       -2.38411798701210       -2.72616591546413
H           -6.65669672436958       -3.25488117707653       -2.82768008094311
H           -6.19072755502671       -1.92097155680898       -1.71484738210810
O           -6.04947945221168       -1.50638656669934       -3.72709135660399
15
 energy: -22.870474707457 gnorm: 0.000816575807 xtb: 6.7.1 (edcfbbe)
C           -4.19037338228244       -4.15350397566166       -3.25009546312277
C           -2.89297391436008       -4.63463818491074       -3.21859247983197
H           -3.78747536380273       -1.34339786164642       -1.44618466056438
C           -4.52717511607206       -2.96983097891655       -2.60559076401716
H           -4.96335273157876       -4.69264519820359       -3.78199427765919
C           -1.90856100244427       -3.93509754179430       -2.54199682306240
H           -2.65370827537812       -5.55939420454902       -3.72317061850403
C           -2.23012787038527       -2.74938229683595       -1.90303015026129
H           -0.89670651988849       -4.31004499913104       -2.51437647215241
C           -3.52840333041278       -2.27255844015145       -1.93648550764432
H           -1.46999407565143       -2.19313929454626       -1.37409038565725
C           -5.92568185974879       -2.38432041615834       -2.72606311660205
H           -6.65879148835479       -3.25320752492048       -2.82645912423676
H           -6.19252576946635       -1.91773782153780       -1.71697421164497
O           -6.04443230017364       -1.50937226103639       -3.73006994503905
