 Entering Gaussian System
 *********************************************
 Gaussian 98:
 frequency output generated by the xtb code
 *********************************************
                         Standard orientation:
 --------------------------------------------------------------------
  Center     Atomic     Atomic              Coordinates (Angstroms)
  Number     Number      Type              X           Y           Z
 --------------------------------------------------------------------
    1          7             0       -8.636039   -3.351357   -1.809327
    2          6             0       -7.704776   -2.626534   -1.804669
    3          6             0       -6.644956   -1.804346   -1.798159
    4          1             0       -5.728137   -2.068580   -1.281797
    5          1             0       -6.668363   -0.847296   -2.308535
 --------------------------------------------------------------------
     1 basis functions        1 primitive gaussians
     1 alpha electrons        1 beta electrons
 
 Harmonic frequencies (cm**-1), IR intensities (km*mol⁻¹),
 Raman scattering activities (A**4/amu), Raman depolarization ratios,
 reduced masses (AMU), force constants (mDyne/A) and normal coordinates:
                      1                      2                      3
                        a                      a                      a 
 Frequencies --  -270.1512               387.5501               493.5771
 Red. masses --     5.6065                 9.5175                 9.8615
 Frc consts  --     0.0000                 0.0000                 0.0000
 IR Inten    --    85.9502                18.5599                16.9159
 Raman Activ --     0.0000                 0.0000                 0.0000
 Depolar     --     0.0000                 0.0000                 0.0000
 Atom AN      X      Y      Z        X      Y      Z        X      Y      Z
   1   7     0.03  -0.04  -0.08    -0.23   0.29  -0.24     0.14  -0.18  -0.35
   2   6    -0.12   0.15   0.28     0.37  -0.48   0.40    -0.26   0.33   0.64
   3   6     0.19  -0.24  -0.45    -0.06   0.08  -0.07     0.04  -0.05  -0.10
   4   1    -0.19   0.24   0.45     0.12   0.32  -0.12     0.11  -0.15  -0.28
   5   1    -0.19   0.24   0.45    -0.34  -0.03  -0.12     0.12  -0.15  -0.28
                      4                      5                      6
                        a                      a                      a 
 Frequencies --   955.8503              1185.1657              1443.7101
 Red. masses --     5.2483                 9.6196                 4.2483
 Frc consts  --     0.0000                 0.0000                 0.0000
 IR Inten    --     1.3772                20.5867                 6.1590
 Raman Activ --     0.0000                 0.0000                 0.0000
 Depolar     --     0.0000                 0.0000                 0.0000
 Atom AN      X      Y      Z        X      Y      Z        X      Y      Z
   1   7     0.04  -0.05   0.04    -0.44  -0.35  -0.00    -0.15  -0.12  -0.00
   2   6    -0.21   0.27  -0.23    -0.16  -0.12  -0.00    -0.01  -0.01  -0.00
   3   6     0.23  -0.30   0.25     0.48   0.37   0.00     0.40   0.31   0.00
   4   1     0.29   0.46  -0.12     0.24   0.28  -0.05    -0.21  -0.53   0.19
   5   1    -0.51  -0.17  -0.12     0.33   0.16   0.05    -0.56  -0.07  -0.19
                      7                      8                      9
                        a                      a                      a 
 Frequencies --  2283.1252              2951.1830              2966.7419
 Red. masses --    12.5713                 2.0707                 1.4499
 Frc consts  --     0.0000                 0.0000                 0.0000
 IR Inten    --   720.0750               287.3142               153.4698
 Raman Activ --     0.0000                 0.0000                 0.0000
 Depolar     --     0.0000                 0.0000                 0.0000
 Atom AN      X      Y      Z        X      Y      Z        X      Y      Z
   1   7    -0.43  -0.33  -0.00     0.00  -0.00   0.00     0.00   0.00   0.00
   2   6     0.64   0.50   0.00    -0.01   0.01  -0.01    -0.01  -0.01  -0.00
   3   6    -0.16  -0.13  -0.00    -0.16   0.20  -0.17     0.16   0.12   0.00
   4   1    -0.04  -0.00  -0.01     0.58  -0.14   0.31    -0.57   0.20  -0.34
   5   1    -0.01  -0.03   0.01    -0.01  -0.60   0.31     0.05  -0.61   0.34
