      -----------------------------------------------------------      
     |                   =====================                   |     
     |                           x T B                           |     
     |                   =====================                   |     
     |                         S. Grimme                         |     
     |          Mulliken Center for Theoretical Chemistry        |     
     |                    University of Bonn                     |     
      -----------------------------------------------------------      

   * xtb version 6.7.1 (edcfbbe) compiled by 'albert@albert-system' on 2024-07-22

   xtb is free software: you can redistribute it and/or modify it under
   the terms of the GNU Lesser General Public License as published by
   the Free Software Foundation, either version 3 of the License, or
   (at your option) any later version.
   
   xtb is distributed in the hope that it will be useful,
   but WITHOUT ANY WARRANTY; without even the implied warranty of
   MERCHANTABILITY or FITNESS FOR A PARTICULAR PURPOSE.  See the
   GNU Lesser General Public License for more details.
   
   Cite this work as:
   * C. Bannwarth, E. Caldeweyher, S. Ehlert, A. Hansen, P. Pracht,
     J. Seibert, S. Spicher, S. Grimme, WIREs Comput. Mol. Sci., 2020, 11,
     e01493. DOI: 10.1002/wcms.1493
   
   for GFN2-xTB:
   * C. Bannwarth, S. Ehlert and S. Grimme., J. Chem. Theory Comput., 2019,
     15, 1652-1671. DOI: 10.1021/acs.jctc.8b01176
   for GFN1-xTB:
   * S. Grimme, C. Bannwarth, P. Shushkov, J. Chem. Theory Comput., 2017,
     13, 1989-2009. DOI: 10.1021/acs.jctc.7b00118
   for GFN0-xTB:
   * P. Pracht, E. Caldeweyher, S. Ehlert, S. Grimme, ChemRxiv, 2019, preprint.
     DOI: 10.26434/chemrxiv.8326202.v1
   for GFN-FF:
   * S. Spicher and S. Grimme, Angew. Chem. Int. Ed., 2020, 59, 15665-15673.
     DOI: 10.1002/anie.202004239
   
   for ALPB and GBSA implicit solvation:
   * S. Ehlert, M. Stahn, S. Spicher, S. Grimme, J. Chem. Theory Comput.,
     2021, 17, 4250-4261. DOI: 10.1021/acs.jctc.1c00471
   
   for ddCOSMO and CPCM-X implicit solvation:
   * M. Stahn, S. Ehlert, S. Grimme, J. Phys. Chem. A,
     2023, XX, XXXX-XXXX. DOI: 10.1021/acs.jpca.3c04382
   
   for DFT-D4:
   * E. Caldeweyher, C. Bannwarth and S. Grimme, J. Chem. Phys., 2017,
     147, 034112. DOI: 10.1063/1.4993215
   * E. Caldeweyher, S. Ehlert, A. Hansen, H. Neugebauer, S. Spicher,
     C. Bannwarth and S. Grimme, J. Chem. Phys., 2019, 150, 154122.
     DOI: 10.1063/1.5090222
   * E. Caldeweyher, J.-M. Mewes, S. Ehlert and S. Grimme, Phys. Chem. Chem. Phys.
     2020, 22, 8499-8512. DOI: 10.1039/D0CP00502A
   
   for sTDA-xTB:
   * S. Grimme and C. Bannwarth, J. Chem. Phys., 2016, 145, 054103.
     DOI: 10.1063/1.4959605
   
   in the mass-spec context:
   * V. Asgeirsson, C. Bauer and S. Grimme, Chem. Sci., 2017, 8, 4879.
     DOI: 10.1039/c7sc00601b
   * J. Koopman and S. Grimme, ACS Omega 2019, 4, 12, 15120-15133.
     DOI: 10.1021/acsomega.9b02011
   
   for metadynamics refer to:
   * S. Grimme, J. Chem. Theory Comput., 2019, 155, 2847-2862
     DOI: 10.1021/acs.jctc.9b00143
   
   for SPH calculations refer to:
   * S. Spicher and S. Grimme, J. Chem. Theory Comput., 2021, 17, 1701-1714
     DOI: 10.1021/acs.jctc.0c01306
   
   for ONIOM refer to:
   * C. Plett, A. Katbashev, S. Ehlert, S. Grimme, M. Bursch,
     Phys. Chem. Chem. Phys., 2023, 25, 17860-17868. DOI: 10.1039/D3CP02178E
   
   for DIPRO refer to:
   * J. Kohn, N. Gildemeister, S. Grimme, D. Fazzi, A. Hansen,
     J. Chem. Phys., 2023, just accepted.
   
   for PTB refer to:
   * S. Grimme, M. Mueller, A. Hansen, J. Chem. Phys., 2023, 158, 124111.
     DOI: 10.1063/5.0137838
   
   with help from (in alphabetical order)
   P. Atkinson, C. Bannwarth, F. Bohle, G. Brandenburg, E. Caldeweyher
   M. Checinski, S. Dohm, S. Ehlert, S. Ehrlich, I. Gerasimov, C. Hölzer
   A. Katbashev, J. Kohn, J. Koopman, C. Lavigne, S. Lehtola, F. März, M. Müller,
   F. Musil, H. Neugebauer, J. Pisarek, C. Plett, P. Pracht, F. Pultar,
   J. Seibert, P. Shushkov, S. Spicher, M. Stahn, M. Steiner, T. Strunk,
   J. Stückrath, T. Rose, and J. Unsleber
   
 * started run on 2025/10/17 at 21:45:18.914     
   ID    Z sym.   atoms
    1    7 N      1
    2    6 C      2, 3
    3    1 H      4, 5

           -------------------------------------------------
          |                Calculation Setup                |
           -------------------------------------------------

          program call               : xtb tb_lite_results_shiftn0p2_gp36_b0_rot90_solute.xyz --charge -1 --ohess
          hostname                   : m003
          coordinate file            : tb_lite_results_shiftn0p2_gp36_b0_rot90_solute.xyz
          omp threads                :                     2


           -------------------------------------------------
          |                 G F N 2 - x T B                 |
           -------------------------------------------------

        Reference                      10.1021/acs.jctc.8b01176
      * Hamiltonian:
        H0-scaling (s, p, d)           1.850000    2.230000    2.230000
        zeta-weighting                 0.500000
      * Dispersion:
        s8                             2.700000
        a1                             0.520000
        a2                             5.000000
        s9                             5.000000
      * Repulsion:
        kExp                           1.500000    1.000000
        rExp                           1.000000
      * Coulomb:
        alpha                          2.000000
        third order                    shell-resolved
        anisotropic                    true
        a3                             3.000000
        a5                             4.000000
        cn-shift                       1.200000
        cn-exp                         4.000000
        max-rad                        5.000000


          ...................................................
          :                      SETUP                      :
          :.................................................:
          :  # basis functions                  14          :
          :  # atomic orbitals                  14          :
          :  # shells                            8          :
          :  # electrons                        16          :
          :  max. iterations                   250          :
          :  Hamiltonian                  GFN2-xTB          :
          :  restarted?                      false          :
          :  GBSA solvation                  false          :
          :  PC potential                    false          :
          :  electronic temp.          300.0000000     K    :
          :  accuracy                    1.0000000          :
          :  -> integral cutoff          0.2500000E+02      :
          :  -> integral neglect         0.1000000E-07      :
          :  -> SCF convergence          0.1000000E-05 Eh   :
          :  -> wf. convergence          0.1000000E-03 e    :
          :  Broyden damping             0.4000000          :
          :  net charge                         -1          :
          :  unpaired electrons                  0          :
          ...................................................

 iter      E             dE          RMSdq      gap      omega  full diag
   1     -8.4500191 -0.845002E+01  0.577E+00    4.37       0.0  T
   2     -8.4610525 -0.110334E-01  0.319E+00    3.46       1.0  T
   3     -8.4600478  0.100472E-02  0.137E+00    3.79       1.0  T
   4     -8.4633505 -0.330269E-02  0.335E-01    3.42       1.0  T
   5     -8.4633721 -0.216611E-04  0.176E-01    3.45       1.0  T
   6     -8.4635084 -0.136291E-03  0.557E-02    3.46       1.0  T
   7     -8.4635069  0.156491E-05  0.450E-02    3.44       1.0  T
   8     -8.4635150 -0.813455E-05  0.729E-03    3.45       6.1  T
   9     -8.4635152 -0.174510E-06  0.192E-03    3.45      23.2  T
  10     -8.4635152 -0.131121E-07  0.195E-04    3.45     229.1  T
  11     -8.4635152 -0.101780E-09  0.391E-05    3.45    1144.7  T

   *** convergence criteria satisfied after 11 iterations ***

         #    Occupation            Energy/Eh            Energy/eV
      -------------------------------------------------------------
         1        2.0000           -0.3431459              -9.3375
         2        2.0000           -0.3180852              -8.6555
         3        2.0000           -0.2459867              -6.6936
         4        2.0000           -0.2384513              -6.4886
         5        2.0000           -0.1793479              -4.8803
         6        2.0000           -0.1640008              -4.4627
         7        2.0000           -0.1414106              -3.8480
         8        2.0000           -0.0567740              -1.5449 (HOMO)
         9                          0.0700665               1.9066 (LUMO)
        10                          0.1328060               3.6138
        11                          0.3541221               9.6362
        12                          0.5470691              14.8865
        13                          0.5503589              14.9760
        14                          1.2975860              35.3091
      -------------------------------------------------------------
                  HL-Gap            0.1268405 Eh            3.4515 eV
             Fermi-level            0.0066463 Eh            0.1809 eV

 SCC (total)                   0 d,  0 h,  0 min,  0.027 sec
 SCC setup                      ...        0 min,  0.000 sec (  0.820%)
 Dispersion                     ...        0 min,  0.000 sec (  0.303%)
 classical contributions        ...        0 min,  0.000 sec (  0.138%)
 integral evaluation            ...        0 min,  0.000 sec (  1.400%)
 iterations                     ...        0 min,  0.025 sec ( 95.375%)
 molecular gradient             ...        0 min,  0.000 sec (  1.508%)
 printout                       ...        0 min,  0.000 sec (  0.325%)

         :::::::::::::::::::::::::::::::::::::::::::::::::::::
         ::                     SUMMARY                     ::
         :::::::::::::::::::::::::::::::::::::::::::::::::::::
         :: total energy              -8.320347682776 Eh    ::
         :: gradient norm              0.044585011063 Eh/a0 ::
         :: HOMO-LUMO gap              3.451505251218 eV    ::
         ::.................................................::
         :: SCC energy                -8.463515157156 Eh    ::
         :: -> isotropic ES            0.161323625571 Eh    ::
         :: -> anisotropic ES          0.014703404222 Eh    ::
         :: -> anisotropic XC          0.013269242063 Eh    ::
         :: -> dispersion             -0.002191907944 Eh    ::
         :: repulsion energy           0.143167474380 Eh    ::
         :: add. restraining           0.000000000000 Eh    ::
         :: total charge              -1.000000000000 e     ::
         :::::::::::::::::::::::::::::::::::::::::::::::::::::

      ----------------------------------------------------------- 
     |                   =====================                   |
     |                        A N C O P T                        |
     |                   =====================                   |
     |               Approximate Normal Coordinate               |
     |                Rational Function Optimizer                |
      ----------------------------------------------------------- 
      ----------------------------------------------------------- 
     |                   =====================                   |
     |                        A N C O P T                        |
     |                   =====================                   |
     |               Approximate Normal Coordinate               |
     |                Rational Function Optimizer                |
      ----------------------------------------------------------- 

          ...................................................
          :                      SETUP                      :
          :.................................................:
          :   optimization level            normal          :
          :   max. optcycles                   200          :
          :   ANC micro-cycles                  20          :
          :   degrees of freedom                 9          :
          :.................................................:
          :   RF solver                   davidson          :
          :   write xtbopt.log                true          :
          :   linear?                        false          :
          :   energy convergence         0.5000000E-05 Eh   :
          :   grad. convergence          0.1000000E-02 Eh/α :
          :   maxmium RF displ.          1.0000000          :
          :   Hlow (freq-cutoff)         0.1000000E-01      :
          :   Hmax (freq-cutoff)         5.0000000          :
          :   S6 in model hess.         20.0000000          :
          ...................................................

generating ANC from exact Hessian ...
Using Lindh-Hessian (1995)
 Shifting diagonal of input Hessian by   9.541042152261548E-003
 Lowest  eigenvalues of input Hessian
    0.000000    0.000000    0.000000    0.000000    0.000000    0.000000
    0.010000    0.010623    0.098754    0.156744    0.379652    0.486422
    1.128858    1.300060    2.472339
 Highest eigenvalues
    0.156744    0.379652    0.486422    1.128858    1.300060    2.472339
 

........................................................................
.............................. CYCLE    1 ..............................
........................................................................

 iter      E             dE          RMSdq      gap      omega  full diag
   1     -8.4635152 -0.846352E+01  0.938E-06    3.45       0.0  T
   2     -8.4635152 -0.165201E-12  0.456E-06    3.45    9798.5  T
   3     -8.4635152 -0.781597E-13  0.227E-06    3.45   19704.8  T
     SCC iter.                  ...        0 min,  0.000 sec
     gradient                   ...        0 min,  0.000 sec
 * total energy  :    -8.3203477 Eh     change       -0.5375256E-11 Eh
   gradient norm :     0.0445852 Eh/α   predicted     0.0000000E+00 (-100.00%)
   displ. norm   :     0.0721923 α      lambda       -0.2657219E-02
   maximum displ.:     0.0581282 α      in ANC's #5, #7, #4, ...

........................................................................
.............................. CYCLE    2 ..............................
........................................................................

 iter      E             dE          RMSdq      gap      omega  full diag
   1     -8.4822207 -0.848222E+01  0.249E-01    3.67       0.0  T
   2     -8.4822418 -0.211242E-04  0.203E-01    3.64       1.0  T
   3     -8.4823353 -0.934990E-04  0.962E-02    3.65       1.0  T
   4     -8.4823376 -0.229074E-05  0.257E-02    3.66       1.7  T
   5     -8.4823399 -0.228378E-05  0.620E-03    3.65       7.2  T
   6     -8.4823399 -0.281454E-07  0.691E-04    3.65      64.8  T
   7     -8.4823399 -0.278719E-09  0.210E-04    3.65     213.1  T
     SCC iter.                  ...        0 min,  0.001 sec
     gradient                   ...        0 min,  0.000 sec
 * total energy  :    -8.3217425 Eh     change       -0.1394792E-02 Eh
   gradient norm :     0.0107766 Eh/α   predicted    -0.1335535E-02 (  -4.25%)
   displ. norm   :     0.0133083 α      lambda       -0.7068660E-04
   maximum displ.:     0.0083933 α      in ANC's #4, #2, #5, ...

........................................................................
.............................. CYCLE    3 ..............................
........................................................................

 iter      E             dE          RMSdq      gap      omega  full diag
   1     -8.4826102 -0.848261E+01  0.617E-02    3.63       0.0  T
   2     -8.4826156 -0.539588E-05  0.481E-02    3.65       1.0  T
   3     -8.4826237 -0.808003E-05  0.162E-02    3.64       2.8  T
   4     -8.4826237  0.140690E-08  0.101E-02    3.64       4.4  T
   5     -8.4826239 -0.226100E-06  0.148E-03    3.64      30.2  T
   6     -8.4826239 -0.178878E-08  0.240E-04    3.64     186.7  T
   7     -8.4826239 -0.182112E-10  0.663E-05    3.64     674.6  T
     SCC iter.                  ...        0 min,  0.001 sec
     gradient                   ...        0 min,  0.000 sec
 * total energy  :    -8.3217840 Eh     change       -0.4149537E-04 Eh
   gradient norm :     0.0019616 Eh/α   predicted    -0.3534843E-04 ( -14.81%)
   displ. norm   :     0.0646358 α      lambda       -0.3071074E-04
   maximum displ.:     0.0625443 α      in ANC's #2, #4, #7, ...

........................................................................
.............................. CYCLE    4 ..............................
........................................................................

 iter      E             dE          RMSdq      gap      omega  full diag
   1     -8.4820619 -0.848206E+01  0.132E-01    3.62       0.0  T
   2     -8.4820663 -0.438310E-05  0.762E-02    3.63       1.0  T
   3     -8.4820628  0.347924E-05  0.498E-02    3.62       1.0  T
   4     -8.4820696 -0.678650E-05  0.114E-02    3.62       3.9  T
   5     -8.4820701 -0.532520E-06  0.188E-03    3.63      23.8  T
   6     -8.4820701 -0.648775E-09  0.299E-04    3.63     149.3  T
   7     -8.4820701 -0.489404E-10  0.630E-05    3.63     709.4  T
     SCC iter.                  ...        0 min,  0.001 sec
     gradient                   ...        0 min,  0.000 sec
 * total energy  :    -8.3216786 Eh     change        0.1054187E-03 Eh
   gradient norm :     0.0072670 Eh/α   predicted    -0.1538403E-04 (-114.59%)
   displ. norm   :     0.0389922 α      lambda       -0.1546495E-03
   maximum displ.:     0.0389031 α      in ANC's #2, #5, #9, ...

........................................................................
.............................. CYCLE    5 ..............................
........................................................................

 iter      E             dE          RMSdq      gap      omega  full diag
   1     -8.4823423 -0.848234E+01  0.750E-02    3.64       0.0  T
   2     -8.4823434 -0.108441E-05  0.438E-02    3.63       1.0  T
   3     -8.4823418  0.151069E-05  0.266E-02    3.64       1.7  T
   4     -8.4823441 -0.229362E-05  0.571E-03    3.63       7.8  T
   5     -8.4823443 -0.133607E-06  0.103E-03    3.63      43.5  T
   6     -8.4823443 -0.242052E-09  0.168E-04    3.63     266.1  T
   7     -8.4823443 -0.142428E-10  0.277E-05    3.63    1612.5  T
     SCC iter.                  ...        0 min,  0.001 sec
     gradient                   ...        0 min,  0.000 sec
 * total energy  :    -8.3217799 Eh     change       -0.1013918E-03 Eh
   gradient norm :     0.0029640 Eh/α   predicted    -0.7744253E-04 ( -23.62%)
   displ. norm   :     0.0173887 α      lambda       -0.2466431E-04
   maximum displ.:     0.0167037 α      in ANC's #2, #4, #5, ...

........................................................................
.............................. CYCLE    6 ..............................
........................................................................

 iter      E             dE          RMSdq      gap      omega  full diag
   1     -8.4823128 -0.848231E+01  0.374E-02    3.64       0.0  T
   2     -8.4823134 -0.530970E-06  0.228E-02    3.63       2.0  T
   3     -8.4823136 -0.190503E-06  0.149E-02    3.64       3.0  T
   4     -8.4823140 -0.442559E-06  0.393E-03    3.64      11.4  T
   5     -8.4823141 -0.579922E-07  0.578E-04    3.64      77.4  T
   6     -8.4823141 -0.133003E-09  0.108E-04    3.64     415.9  T
     SCC iter.                  ...        0 min,  0.001 sec
     gradient                   ...        0 min,  0.000 sec
 * total energy  :    -8.3217923 Eh     change       -0.1236500E-04 Eh
   gradient norm :     0.0002624 Eh/α   predicted    -0.1233548E-04 (  -0.24%)
   displ. norm   :     0.0013419 α      lambda       -0.1668278E-06
   maximum displ.:     0.0010320 α      in ANC's #3, #6, #5, ...

........................................................................
.............................. CYCLE    7 ..............................
........................................................................

 iter      E             dE          RMSdq      gap      omega  full diag
   1     -8.4824170 -0.848242E+01  0.483E-03    3.64       0.0  T
   2     -8.4824170 -0.233152E-08  0.311E-03    3.64      14.4  T
   3     -8.4824170 -0.224870E-08  0.202E-03    3.64      22.1  T
   4     -8.4824170 -0.107737E-07  0.198E-04    3.64     225.9  T
   5     -8.4824170 -0.991758E-10  0.825E-05    3.64     542.3  T
     SCC iter.                  ...        0 min,  0.000 sec
     gradient                   ...        0 min,  0.000 sec
 * total energy  :    -8.3217925 Eh     change       -0.1501824E-06 Eh
   gradient norm :     0.0001917 Eh/α   predicted    -0.8366833E-07 ( -44.29%)
   displ. norm   :     0.0017134 α      lambda       -0.1198782E-06
   maximum displ.:     0.0014519 α      in ANC's #3, #6, #2, ...

   *** GEOMETRY OPTIMIZATION CONVERGED AFTER 7 ITERATIONS ***

------------------------------------------------------------------------
 total energy gain   :        -0.0014448 Eh       -0.9066 kcal/mol
 total RMSD          :         0.0334352 a0        0.0177 Å
 total power (kW/mol):        -0.5418940 (step) -404.0552 (real)
------------------------------------------------------------------------

 ANCopt (total)                0 d,  0 h,  0 min,  0.009 sec
 optimizer setup                ...        0 min,  0.000 sec (  2.647%)
 model hessian                  ...        0 min,  0.000 sec (  1.286%)
 ANC generation                 ...        0 min,  0.000 sec (  0.776%)
 coordinate transformation      ...        0 min,  0.000 sec (  0.515%)
 single point calculation       ...        0 min,  0.008 sec ( 84.883%)
 optimization log               ...        0 min,  0.000 sec (  2.723%)
 hessian update                 ...        0 min,  0.000 sec (  0.639%)
 rational function              ...        0 min,  0.000 sec (  3.251%)

================
 final structure:
================
5
 xtb: 6.7.1 (edcfbbe)
N           -8.63601427435221       -3.35139877892452       -1.80936281653877
C           -7.70475491411232       -2.62657127554020       -1.80470081057418
C           -6.64493998889618       -1.80437736528137       -1.79818529081475
H           -5.72812083792312       -2.06860789111629       -1.28182081735714
H           -6.66835015931108       -0.84732674186264       -2.30855930965976
 
 Bond Distances (Angstroems)
 ---------------------------
N1-C2=1.1801         C2-N1=1.1801         C2-C3=1.3414         C3-C2=1.3414         C3-H4=1.0849         C3-H5=1.0849         
H4-C3=1.0849         H5-C3=1.0849         
 C  H  Rav=1.0849 sigma=0.0000  Rmin=1.0849  Rmax=1.0849     2
 C  C  Rav=1.3414 sigma=0.0000  Rmin=1.3414  Rmax=1.3414     1
 N  C  Rav=1.1801 sigma=0.0000  Rmin=1.1801  Rmax=1.1801     1
 
 selected bond angles (degree)
 --------------------
C3-C2-N1=179.90                H4-C3-C2=121.38                H5-C3-C2=121.43                H5-C3-H4=117.19                
 
 selected dihedral angles (degree)
 ---------------------------------
H4-C3-C2-N1=356.11            H5-C3-C2-N1=176.13            
           -------------------------------------------------
          |                Final Singlepoint                |
           -------------------------------------------------

          ...................................................
          :                      SETUP                      :
          :.................................................:
          :  # basis functions                  14          :
          :  # atomic orbitals                  14          :
          :  # shells                            8          :
          :  # electrons                        16          :
          :  max. iterations                   250          :
          :  Hamiltonian                  GFN2-xTB          :
          :  restarted?                      false          :
          :  GBSA solvation                  false          :
          :  PC potential                    false          :
          :  electronic temp.          300.0000000     K    :
          :  accuracy                    1.0000000          :
          :  -> integral cutoff          0.2500000E+02      :
          :  -> integral neglect         0.1000000E-07      :
          :  -> SCF convergence          0.1000000E-05 Eh   :
          :  -> wf. convergence          0.1000000E-03 e    :
          :  Broyden damping             0.4000000          :
          :  net charge                         -1          :
          :  unpaired electrons                  0          :
          ...................................................

 iter      E             dE          RMSdq      gap      omega  full diag
   1     -8.4824170 -0.848242E+01  0.105E-05    3.64       0.0  T
   2     -8.4824170 -0.266454E-13  0.561E-06    3.64    7978.0  T
   3     -8.4824170  0.284217E-13  0.328E-06    3.64   13620.7  T

   *** convergence criteria satisfied after 3 iterations ***

         #    Occupation            Energy/Eh            Energy/eV
      -------------------------------------------------------------
         1        2.0000           -0.3451642              -9.3924
         2        2.0000           -0.3194444              -8.6925
         3        2.0000           -0.2468333              -6.7167
         4        2.0000           -0.2383280              -6.4852
         5        2.0000           -0.1815680              -4.9407
         6        2.0000           -0.1637557              -4.4560
         7        2.0000           -0.1383253              -3.7640
         8        2.0000           -0.0555612              -1.5119 (HOMO)
         9                          0.0780733               2.1245 (LUMO)
        10                          0.1469068               3.9975
        11                          0.3726816              10.1412
        12                          0.5548451              15.0981
        13                          0.6051456              16.4668
        14                          1.4046124              38.2214
      -------------------------------------------------------------
                  HL-Gap            0.1336345 Eh            3.6364 eV
             Fermi-level            0.0112560 Eh            0.3063 eV

 SCC (total)                   0 d,  0 h,  0 min,  0.001 sec
 SCC setup                      ...        0 min,  0.000 sec ( 10.755%)
 Dispersion                     ...        0 min,  0.000 sec (  2.053%)
 classical contributions        ...        0 min,  0.000 sec (  0.847%)
 integral evaluation            ...        0 min,  0.000 sec ( 18.403%)
 iterations                     ...        0 min,  0.000 sec ( 27.875%)
 molecular gradient             ...        0 min,  0.000 sec ( 31.648%)
 printout                       ...        0 min,  0.000 sec (  5.595%)

         :::::::::::::::::::::::::::::::::::::::::::::::::::::
         ::                     SUMMARY                     ::
         :::::::::::::::::::::::::::::::::::::::::::::::::::::
         :: total energy              -8.321792458564 Eh    ::
         :: gradient norm              0.000192472838 Eh/a0 ::
         :: HOMO-LUMO gap              3.636379420083 eV    ::
         ::.................................................::
         :: SCC energy                -8.482417032583 Eh    ::
         :: -> isotropic ES            0.162523294794 Eh    ::
         :: -> anisotropic ES          0.014046962852 Eh    ::
         :: -> anisotropic XC          0.012747780659 Eh    ::
         :: -> dispersion             -0.002201809044 Eh    ::
         :: repulsion energy           0.160624574019 Eh    ::
         :: add. restraining           0.000000000000 Eh    ::
         :: total charge              -1.000000000000 e     ::
         :::::::::::::::::::::::::::::::::::::::::::::::::::::

           ------------------------------------------------- 
          |                Numerical Hessian                |
           ------------------------------------------------- 
step length          :   0.00500
SCC accuracy         :   0.30000
Hessian scale factor :   1.00000
frozen atoms in %    :   0.00000    0
RMS gradient         :   0.00019
estimated CPU  time      0.00 min
estimated wall time      0.00 min

writing file <hessian>.

 projected vibrational frequencies (cm⁻¹)
eigval :       -0.00    -0.00    -0.00     0.00     0.00     0.00
eigval :     -270.15   387.55   493.58   955.85  1185.17  1443.71
eigval :     2283.13  2951.18  2966.74
           -------------------------------------------------
          |                Property Printout                |
           -------------------------------------------------

    * Orbital Energies and Occupations

         #    Occupation            Energy/Eh            Energy/eV
      -------------------------------------------------------------
         1        2.0000           -0.3451642              -9.3924
         2        2.0000           -0.3194444              -8.6925
         3        2.0000           -0.2468333              -6.7167
         4        2.0000           -0.2383280              -6.4852
         5        2.0000           -0.1815680              -4.9407
         6        2.0000           -0.1637557              -4.4560
         7        2.0000           -0.1383253              -3.7640
         8        2.0000           -0.0555612              -1.5119 (HOMO)
         9                          0.0780733               2.1245 (LUMO)
        10                          0.1469068               3.9975
        11                          0.3726816              10.1412
        12                          0.5548451              15.0981
        13                          0.6051456              16.4669
        14                          1.4046124              38.2214
      -------------------------------------------------------------
                  HL-Gap            0.1336345 Eh            3.6364 eV
             Fermi-level            0.0112560 Eh            0.3063 eV

     #   Z          covCN         q      C6AA      α(0)
     1   7 N        0.911    -0.580    35.862     8.661
     2   6 C        1.891     0.045    29.977     8.843
     3   6 C        2.832    -0.259    35.054     9.702
     4   1 H        0.925    -0.103     5.665     3.722
     5   1 H        0.925    -0.103     5.668     3.723

 Mol. C6AA /au·bohr⁶  :        489.125873
 Mol. C8AA /au·bohr⁸  :      11200.506518
 Mol. α(0) /au        :         34.650871


Wiberg/Mayer (AO) data.
largest (>0.10) Wiberg bond orders for each atom

 ---------------------------------------------------------------------------
     #   Z sym  total        # sym  WBO       # sym  WBO       # sym  WBO
 ---------------------------------------------------------------------------
     1   7 N    2.791 --     2 C    2.451     3 C    0.282
     2   6 C    3.947 --     1 N    2.451     3 C    1.483
     3   6 C    3.673 --     2 C    1.483     5 H    0.954     4 H    0.954
                             1 N    0.282
     4   1 H    0.989 --     3 C    0.954
     5   1 H    0.989 --     3 C    0.954
 ---------------------------------------------------------------------------

Topologies differ in total number of bonds
Writing topology from bond orders to xtbtopo.mol

molecular dipole:
                 x           y           z       tot (Debye)
 q only:       14.475       4.900       3.409
   full:       14.918       5.244       3.411      41.117
molecular quadrupole (traceless):
                xx          xy          yy          xz          yz          zz
 q only:     -194.770    -111.307      85.997     -74.312     -24.736     108.772
  q+dip:     -205.455    -121.577      89.260     -76.252     -26.996     116.195
   full:     -206.048    -122.710      89.248     -76.066     -27.251     116.800

           -------------------------------------------------
          |                Geometry Summary                 |
           -------------------------------------------------

      molecular mass/u    :       40.0440565
   center of mass at/Å    :       -7.6367941      -2.5746299      -1.8038675
  moments of inertia/u·Å² :        0.1728503E+01   0.4815207E+02   0.4988057E+02
rotational constants/cm⁻¹ :        0.9752733E+01   0.3500915E+00   0.3379599E+00

 * 4 selected distances

     #   Z          #   Z                                           value/Å
     1   7 N        2   6 C                                       1.1801021
     2   6 C        3   6 C                                       1.3413625 (max)
     3   6 C        4   1 H                                       1.0848998
     3   6 C        5   1 H                                       1.0848852 (min)

 * 3 distinct bonds (by element types)

   Z      Z             #   av. dist./Å        max./Å        min./Å
   1 H    6 C           2     1.0848925     1.0848998     1.0848852
   6 C    6 C           1     1.3413625     1.3413625     1.3413625
   6 C    7 N           1     1.1801021     1.1801021     1.1801021

           -------------------------------------------------
          |               Frequency Printout                |
           -------------------------------------------------
 projected vibrational frequencies (cm⁻¹)
eigval :       -0.00    -0.00    -0.00     0.00     0.00     0.00
eigval :     -270.15   387.55   493.58   955.85  1185.17  1443.71
eigval :     2283.13  2951.18  2966.74
 reduced masses (amu)
   1:  3.44   2:  9.98   3: 13.41   4: 12.79   5:  7.86   6: 12.45   7:  5.61   8:  9.52
   9:  9.86  10:  5.25  11:  9.62  12:  4.25  13: 12.57  14:  2.07  15:  1.45
 IR intensities (km·mol⁻¹)
   1:  0.88   2:  6.26   3: 23.48   4: 20.34   5:  1.72   6: 24.76   7: 85.95   8: 18.56
   9: 16.92  10:  1.38  11: 20.59  12:  6.16  13:720.08  14:287.31  15:153.47
 Raman intensities (Ä⁴*amu⁻¹)
   1:  0.00   2:  0.00   3:  0.00   4:  0.00   5:  0.00   6:  0.00   7:  0.00   8:  0.00
   9:  0.00  10:  0.00  11:  0.00  12:  0.00  13:  0.00  14:  0.00  15:  0.00
 output can be read by thermo (or use thermo option).
 writing <g98.out> molden fake output.
 recommended (thermochemical) frequency scaling factor: 1.0
           -------------------------------------------------
          |             Thermodynamic Functions             |
           -------------------------------------------------

Refinement of some symmetry elements was terminated before convergence was reached.
Some symmetry elements may remain unidentified.
Molecule has the following symmetry elements: (C2) (sigma) 
WARNING: These symmetry elements match no point group I know of. Sorry.
Trying fallback mode to highest recognized Axis...
c2  symmetry found (for desy threshold:  0.10E+00) used in thermo

          ...................................................
          :                      SETUP                      :
          :.................................................:
          :  # frequencies                           8      :
          :  # imaginary freq.                       1      :
          :  linear?                             false      :
          :  only rotor calc.                    false      :
          :  symmetry                               c2      :
          :  rotational number                       2      :
          :  scaling factor                  1.0000000      :
          :  rotor cutoff                   50.0000000 cm⁻¹ :
          :  imag. cutoff                  -20.0000000 cm⁻¹ :
          :.................................................:

    mode    ω/cm⁻¹     T·S(HO)/kcal·mol⁻¹    T·S(FR)/kcal·mol⁻¹   T·S(vib)
   ------------------------------------------------------------------------
   ------------------------------------------------------------------------

   temp. (K)  partition function   enthalpy   heat capacity  entropy
                                   cal/mol     cal/K/mol   cal/K/mol   J/K/mol
 298.15  VIB   1.32                  388.065      3.499      1.855
         ROT  0.246E+04              888.752      2.981     18.498
         INT  0.325E+04             1276.817      6.480     20.353
         TR   0.245E+27             1481.254      4.968     36.973
         TOT                        2758.0710    11.4484    57.3266   239.8543

       T/K    H(0)-H(T)+PV         H(T)/Eh          T*S/Eh         G(T)/Eh
   ------------------------------------------------------------------------
    298.15    0.439527E-02    0.332526E-01    0.272377E-01    0.601489E-02
   ------------------------------------------------------------------------

         :::::::::::::::::::::::::::::::::::::::::::::::::::::
         ::                  THERMODYNAMIC                  ::
         :::::::::::::::::::::::::::::::::::::::::::::::::::::
         :: total free energy          -8.315777563715 Eh   ::
         ::.................................................::
         :: total energy               -8.321792458564 Eh   ::
         :: zero point energy           0.028857329052 Eh   ::
         :: G(RRHO) w/o ZPVE           -0.022842434203 Eh   ::
         :: G(RRHO) contrib.            0.006014894849 Eh   ::
         :::::::::::::::::::::::::::::::::::::::::::::::::::::
imag cut-off (cm-1) :    5.00
 found            1  significant imaginary frequency
 writing imag mode distorted coords to xtbhess.xyz
 for further optimization.

optimized geometry written to: xtbopt.xyz


           -------------------------------------------------
          | TOTAL ENERGY               -8.321792458564 Eh   |
          | TOTAL ENTHALPY             -8.288539863594 Eh   |
          | TOTAL FREE ENERGY          -8.315777563715 Eh   |
          | GRADIENT NORM               0.000192453576 Eh/α |
          | HOMO-LUMO GAP               3.636379323650 eV   |
           -------------------------------------------------

------------------------------------------------------------------------
 * finished run on 2025/10/17 at 21:45:19.698     
------------------------------------------------------------------------
 total:
 * wall-time:     0 d,  0 h,  0 min,  0.783 sec
 *  cpu-time:     0 d,  0 h,  0 min,  0.588 sec
 * ratio c/w:     0.751 speedup
 SCF:
 * wall-time:     0 d,  0 h,  0 min,  0.027 sec
 *  cpu-time:     0 d,  0 h,  0 min,  0.034 sec
 * ratio c/w:     1.247 speedup
 ANC optimizer:
 * wall-time:     0 d,  0 h,  0 min,  0.274 sec
 *  cpu-time:     0 d,  0 h,  0 min,  0.264 sec
 * ratio c/w:     0.962 speedup
 analytical hessian:
 * wall-time:     0 d,  0 h,  0 min,  0.050 sec
 *  cpu-time:     0 d,  0 h,  0 min,  0.068 sec
 * ratio c/w:     1.368 speedup

