5
 energy: -8.320347682781 gnorm: 0.044585240714 xtb: 6.7.1 (edcfbbe)
N           -8.65426403456430       -3.36885642858181       -1.80834126785780
C           -7.71320406355432       -2.63037677014919       -1.80568376953849
C           -6.62948094707820       -1.79160935756193       -1.79906600951632
H           -5.71759420084580       -2.07410365663549       -1.27435444358598
H           -6.66763692855228       -0.83333583979660       -2.31518355444600
5
 energy: -8.321742474860 gnorm: 0.010776781938 xtb: 6.7.1 (edcfbbe)
N           -8.63265902980487       -3.35134194043443       -1.80856930792240
C           -7.70549942088542       -2.62470306621350       -1.80483866710996
C           -6.64117300666812       -1.80091033557424       -1.79893991895128
H           -5.72989970245905       -2.07566402468758       -1.27897141414790
H           -6.67294901477745       -0.84566268581527       -2.31130973681305
5
 energy: -8.321783970234 gnorm: 0.001974572225 xtb: 6.7.1 (edcfbbe)
N           -8.63366765618929       -3.35144247726852       -1.80833234698308
C           -7.70368258137619       -2.62540979890232       -1.80760760771430
C           -6.64362033801939       -1.80276595041478       -1.79853960824502
H           -5.73063116121229       -2.07217581331554       -1.27966289252464
H           -6.67057843779775       -0.84648801282385       -2.30848658947755
5
 energy: -8.321678551571 gnorm: 0.007550670253 xtb: 6.7.1 (edcfbbe)
N           -8.63612341540178       -3.35222992981739       -1.81290014060628
C           -7.71060697090814       -2.61818834717486       -1.78125081166656
C           -6.64548944960994       -1.80625785137636       -1.80008645514413
H           -5.72395936460191       -2.06883387187163       -1.29184918719082
H           -6.66600097407313       -0.85277205248477       -2.31654245033679
5
 energy: -8.321779943380 gnorm: 0.003025839021 xtb: 6.7.1 (edcfbbe)
N           -8.63622978243346       -3.35215103926833       -1.81033351887745
C           -7.70688806278707       -2.62394397528752       -1.79757419375468
C           -6.64555009386616       -1.80521930597547       -1.79887370133510
H           -5.72685077233478       -2.06804889060602       -1.28522472579777
H           -6.66666146317343       -0.84891884158767       -2.31062290517959
5
 energy: -8.321792308378 gnorm: 0.000263210899 xtb: 6.7.1 (edcfbbe)
N           -8.63590143900439       -3.35173485320388       -1.80925794817896
C           -7.70503813666950       -2.62630252436847       -1.80457290951456
C           -6.64484612642465       -1.80422765345270       -1.79832221808787
H           -5.72820719643906       -2.06887298835021       -1.28181140256142
H           -6.66818727605732       -0.84714403334976       -2.30866456660177
5
 energy: -8.321792458560 gnorm: 0.000192721837 xtb: 6.7.1 (edcfbbe)
N           -8.63601427435221       -3.35139877892452       -1.80936281653877
C           -7.70475491411232       -2.62657127554020       -1.80470081057418
C           -6.64493998889618       -1.80437736528137       -1.79818529081475
H           -5.72812083792312       -2.06860789111629       -1.28182081735714
H           -6.66835015931108       -0.84732674186264       -2.30855930965976
