5
 energy: -8.321792458564 gnorm: 0.000192472838 xtb: 6.7.1 (edcfbbe)
N           -8.63603813792801       -3.35135671870925       -1.80932682185400
C           -7.70477496624953       -2.62653408326193       -1.80466933166049
C           -6.64495571331862       -1.80434571082199       -1.79815894635218
H           -5.72813614341314       -2.06858013589015       -1.28179721203180
H           -6.66836265417961       -0.84729585560385       -2.30853455384484
