1
 energy: -4.898861342172 gnorm: 0.000000000000 xtb: 6.7.1 (edcfbbe)
Cl           0.00000000000000        0.00000000000000        0.00000000000000
