 Entering Gaussian System
 *********************************************
 Gaussian 98:
 frequency output generated by the xtb code
 *********************************************
                         Standard orientation:
 --------------------------------------------------------------------
  Center     Atomic     Atomic              Coordinates (Angstroms)
  Number     Number      Type              X           Y           Z
 --------------------------------------------------------------------
    1          6             0       -3.772253   -3.918425   -2.816313
    2          6             0       -4.247185   -2.415083   -2.908756
    3          8             0       -3.298881   -1.534628   -2.784167
    4          1             0       -4.600423   -4.614120   -2.974887
    5          6             0       -5.416268   -2.272757   -1.843400
    6          1             0       -4.800609   -2.367344   -3.929485
    7          1             0       -3.007575   -4.099592   -3.570302
    8          6             0       -5.996344   -0.870202   -1.905441
    9          1             0       -3.335000   -4.100734   -1.835032
   10          1             0       -6.194557   -3.026101   -2.018564
   11          1             0       -4.985963   -2.442148   -0.851951
   12          1             0       -6.573979   -0.735532   -2.820356
   13          1             0       -6.638964   -0.642066   -1.049129
   14          1             0       -5.156140   -0.177525   -1.926887
 --------------------------------------------------------------------
     1 basis functions        1 primitive gaussians
     1 alpha electrons        1 beta electrons
 
 Harmonic frequencies (cm**-1), IR intensities (km*mol⁻¹),
 Raman scattering activities (A**4/amu), Raman depolarization ratios,
 reduced masses (AMU), force constants (mDyne/A) and normal coordinates:
                      1                      2                      3
                        a                      a                      a 
 Frequencies --    93.5529               188.7202               195.9811
 Red. masses --     8.0541                 4.1887                 1.9256
 Frc consts  --     0.0000                 0.0000                 0.0000
 IR Inten    --     5.8561                 7.7345                 1.3277
 Raman Activ --     0.0000                 0.0000                 0.0000
 Depolar     --     0.0000                 0.0000                 0.0000
 Atom AN      X      Y      Z        X      Y      Z        X      Y      Z
   1   6    -0.21  -0.02  -0.22     0.06   0.01  -0.15     0.03   0.02  -0.10
   2   6     0.07   0.10   0.10    -0.07  -0.05   0.07    -0.01  -0.00   0.05
   3   8     0.30  -0.13   0.08    -0.20   0.07   0.26    -0.01  -0.02   0.19
   4   1    -0.09   0.05  -0.13     0.04  -0.01  -0.12    -0.08  -0.00   0.50
   5   6     0.27   0.16   0.29    -0.03  -0.07   0.09    -0.04  -0.01   0.02
   6   1    -0.03   0.10   0.05    -0.02   0.01   0.02    -0.00   0.02   0.02
   7   1    -0.06   0.01  -0.06     0.05   0.07  -0.03    -0.38  -0.13  -0.40
   8   6    -0.36  -0.12  -0.20     0.18   0.01  -0.22     0.02   0.01  -0.12
   9   1    -0.09  -0.10  -0.07    -0.02  -0.05  -0.04     0.51   0.15  -0.23
  10   1     0.15  -0.06   0.24    -0.02  -0.02   0.09    -0.02   0.00   0.00
  11   1     0.17   0.23   0.08     0.02   0.03   0.02    -0.03   0.00   0.01
  12   1    -0.11  -0.20  -0.08    -0.30  -0.15   0.13     0.04  -0.01  -0.06
  13   1    -0.15  -0.04  -0.09     0.42   0.27   0.14    -0.03   0.03  -0.07
  14   1    -0.21   0.09  -0.11     0.13  -0.10  -0.54     0.01  -0.01  -0.02
                      4                      5                      6
                        a                      a                      a 
 Frequencies --   242.4147               362.4306               470.2123
 Red. masses --     6.5697                 9.5123                 9.8505
 Frc consts  --     0.0000                 0.0000                 0.0000
 IR Inten    --     5.0780                 6.5519                 2.2594
 Raman Activ --     0.0000                 0.0000                 0.0000
 Depolar     --     0.0000                 0.0000                 0.0000
 Atom AN      X      Y      Z        X      Y      Z        X      Y      Z
   1   6     0.10  -0.01  -0.19    -0.41  -0.02   0.17     0.10  -0.39  -0.04
   2   6    -0.16  -0.08   0.16     0.13   0.16  -0.06     0.06  -0.18  -0.20
   3   8    -0.33   0.08   0.06    -0.10   0.45   0.03    -0.37   0.17   0.29
   4   1     0.08  -0.03  -0.18    -0.26   0.16   0.10    -0.00  -0.07  -0.00
   5   6     0.02  -0.05   0.30     0.21  -0.22  -0.05     0.27   0.24  -0.21
   6   1    -0.11  -0.02   0.07     0.05   0.04  -0.02     0.11  -0.12  -0.11
   7   1     0.09   0.13  -0.03    -0.16  -0.24   0.06     0.02  -0.16  -0.01
   8   6     0.30   0.03  -0.24     0.23  -0.29  -0.10    -0.07   0.18   0.08
   9   1    -0.02  -0.08  -0.05    -0.17  -0.03   0.07     0.02  -0.12  -0.01
  10   1    -0.02  -0.00   0.15     0.08  -0.08  -0.03     0.05   0.04   0.16
  11   1     0.02   0.06   0.09     0.08  -0.07  -0.02     0.24   0.18  -0.11
  12   1     0.41   0.03  -0.27     0.10  -0.10  -0.05    -0.06   0.09   0.05
  13   1    -0.19   0.04  -0.29     0.04  -0.06  -0.06    -0.03  -0.12   0.06
  14   1     0.13  -0.03   0.19     0.08  -0.10  -0.02    -0.09   0.14   0.09
                      7                      8                      9
                        a                      a                      a 
 Frequencies --   494.4628               741.4602               813.3829
 Red. masses --     8.6009                 8.0129                 3.8444
 Frc consts  --     0.0000                 0.0000                 0.0000
 IR Inten    --     2.2278                33.8465                12.8854
 Raman Activ --     0.0000                 0.0000                 0.0000
 Depolar     --     0.0000                 0.0000                 0.0000
 Atom AN      X      Y      Z        X      Y      Z        X      Y      Z
   1   6     0.08  -0.37  -0.09     0.13  -0.15  -0.10     0.04  -0.27  -0.09
   2   6     0.31  -0.04   0.37     0.21   0.06  -0.44    -0.12   0.20  -0.15
   3   8     0.03   0.33  -0.26     0.13   0.10   0.03    -0.05   0.01   0.07
   4   1    -0.10   0.06  -0.12    -0.03   0.01   0.07     0.10  -0.21   0.09
   5   6    -0.17   0.04   0.09    -0.40  -0.11   0.33     0.19   0.06   0.19
   6   1     0.04  -0.10   0.11     0.08   0.09  -0.07    -0.11   0.16   0.03
   7   1    -0.07  -0.08  -0.12     0.09  -0.31   0.08     0.11  -0.17   0.10
   8   6    -0.12   0.12   0.01    -0.12   0.06   0.07     0.08   0.06   0.04
   9   1     0.05  -0.38  -0.09    -0.08   0.12   0.05    -0.05   0.21   0.05
  10   1    -0.04   0.05  -0.19    -0.11  -0.07   0.27    -0.05   0.21  -0.32
  11   1    -0.26  -0.08   0.10     0.04   0.09   0.04    -0.17  -0.34   0.08
  12   1    -0.06   0.02   0.02     0.07   0.06  -0.04     0.01  -0.34  -0.04
  13   1    -0.01   0.06   0.01    -0.05   0.25  -0.05    -0.10   0.03  -0.08
  14   1    -0.03   0.03  -0.03     0.11  -0.15   0.01    -0.18   0.24  -0.13
                     10                     11                     12
                        a                      a                      a 
 Frequencies --   851.4220               944.3258              1005.1148
 Red. masses --     7.9603                 3.1157                 6.5256
 Frc consts  --     0.0000                 0.0000                 0.0000
 IR Inten    --    48.4688                16.2735                54.6810
 Raman Activ --     0.0000                 0.0000                 0.0000
 Depolar     --     0.0000                 0.0000                 0.0000
 Atom AN      X      Y      Z        X      Y      Z        X      Y      Z
   1   6    -0.02  -0.44   0.07    -0.05  -0.03   0.27     0.41  -0.00   0.06
   2   6    -0.33   0.46   0.12    -0.05   0.13  -0.22    -0.29   0.38   0.04
   3   8     0.18   0.11  -0.04     0.06   0.00   0.02    -0.02  -0.22  -0.01
   4   1     0.19  -0.35   0.03     0.03  -0.01  -0.12    -0.23   0.42  -0.03
   5   6    -0.04  -0.02  -0.13    -0.11   0.02   0.00    -0.09   0.02  -0.05
   6   1    -0.04   0.16   0.05     0.21  -0.14  -0.15    -0.10   0.04   0.01
   7   1     0.03   0.10   0.00    -0.12   0.35  -0.13    -0.00  -0.34  -0.01
   8   6    -0.02  -0.09  -0.04     0.02  -0.02   0.18     0.13  -0.08  -0.06
   9   1     0.09  -0.03  -0.01     0.17  -0.36  -0.08    -0.04  -0.28   0.03
  10   1     0.14  -0.16   0.04    -0.11   0.08   0.06    -0.12   0.07   0.10
  11   1     0.08   0.15  -0.05     0.25  -0.21  -0.16     0.06   0.02  -0.05
  12   1     0.01   0.18   0.01     0.12  -0.33  -0.08    -0.04  -0.05   0.03
  13   1     0.07   0.02   0.03    -0.13   0.25  -0.12     0.03  -0.17   0.02
  14   1     0.14  -0.19   0.05    -0.03   0.03  -0.12    -0.06   0.09   0.01
                     13                     14                     15
                        a                      a                      a 
 Frequencies --  1015.2367              1086.5737              1107.1569
 Red. masses --     4.5465                 8.0646                 8.0310
 Frc consts  --     0.0000                 0.0000                 0.0000
 IR Inten    --     8.5138                47.0238                15.1306
 Raman Activ --     0.0000                 0.0000                 0.0000
 Depolar     --     0.0000                 0.0000                 0.0000
 Atom AN      X      Y      Z        X      Y      Z        X      Y      Z
   1   6     0.13   0.05   0.01    -0.00  -0.01   0.12     0.03  -0.01  -0.21
   2   6    -0.03   0.07  -0.00     0.12   0.08  -0.34    -0.01  -0.12   0.33
   3   8    -0.17  -0.19   0.03    -0.13  -0.11   0.07     0.02   0.04  -0.06
   4   1    -0.09   0.17  -0.01     0.01   0.00  -0.06    -0.01  -0.01   0.07
   5   6     0.28   0.00  -0.03    -0.03   0.48   0.20    -0.16   0.45  -0.26
   6   1    -0.08  -0.04  -0.01    -0.02  -0.04  -0.06     0.04  -0.02   0.02
   7   1    -0.01  -0.13  -0.00    -0.05   0.13  -0.05     0.08  -0.17   0.06
   8   6    -0.30   0.13   0.13     0.07  -0.41  -0.05     0.04  -0.33   0.24
   9   1    -0.03  -0.07   0.01     0.07  -0.13  -0.03    -0.09   0.20   0.03
  10   1     0.38  -0.23  -0.32     0.10   0.08  -0.20    -0.07   0.12   0.05
  11   1     0.03  -0.10  -0.01    -0.33   0.17   0.20     0.12   0.09  -0.14
  12   1     0.11   0.08  -0.08    -0.00   0.06   0.03     0.15  -0.30  -0.06
  13   1    -0.06   0.45  -0.07     0.10  -0.13   0.06    -0.06   0.16  -0.06
  14   1     0.17  -0.25  -0.05     0.10  -0.19   0.06     0.10  -0.19  -0.09
                     16                     17                     18
                        a                      a                      a 
 Frequencies --  1228.7833              1265.8436              1276.9303
 Red. masses --     8.4740                 5.5196                 5.4494
 Frc consts  --     0.0000                 0.0000                 0.0000
 IR Inten    --   167.5635               102.4514               117.9128
 Raman Activ --     0.0000                 0.0000                 0.0000
 Depolar     --     0.0000                 0.0000                 0.0000
 Atom AN      X      Y      Z        X      Y      Z        X      Y      Z
   1   6     0.07   0.01   0.03    -0.05   0.00  -0.08     0.01   0.08  -0.12
   2   6    -0.40  -0.31  -0.14     0.22   0.23   0.19    -0.34  -0.13  -0.01
   3   8     0.33   0.28   0.07    -0.21  -0.18  -0.08     0.21   0.16   0.04
   4   1    -0.05   0.08  -0.01     0.03  -0.06   0.04     0.02  -0.03   0.03
   5   6     0.26   0.06   0.05     0.03   0.11   0.24    -0.23   0.14   0.24
   6   1    -0.12  -0.06   0.10     0.27  -0.03  -0.14     0.26  -0.42  -0.14
   7   1    -0.01  -0.03  -0.01     0.05  -0.01   0.04     0.02  -0.16   0.03
   8   6    -0.23  -0.07  -0.08    -0.14  -0.08  -0.24     0.12   0.06  -0.08
   9   1    -0.01  -0.07   0.00    -0.01   0.09  -0.00    -0.05  -0.00  -0.00
  10   1    -0.27   0.33   0.04    -0.15   0.21  -0.03     0.33  -0.27  -0.24
  11   1    -0.02  -0.22   0.01     0.34  -0.41  -0.17     0.13  -0.10  -0.05
  12   1     0.00   0.18  -0.03    -0.06   0.27   0.01    -0.05  -0.05   0.02
  13   1     0.05   0.05   0.03     0.11  -0.07   0.07     0.02  -0.20   0.03
  14   1     0.13  -0.24   0.03     0.06  -0.13   0.10    -0.02   0.07   0.03
                     19                     20                     21
                        a                      a                      a 
 Frequencies --  1308.5944              1344.2757              1369.9581
 Red. masses --     3.3763                 3.0993                 2.5736
 Frc consts  --     0.0000                 0.0000                 0.0000
 IR Inten    --    47.8211                 8.2422                70.0229
 Raman Activ --     0.0000                 0.0000                 0.0000
 Depolar     --     0.0000                 0.0000                 0.0000
 Atom AN      X      Y      Z        X      Y      Z        X      Y      Z
   1   6    -0.02  -0.00  -0.12     0.14  -0.39   0.03     0.04   0.09   0.05
   2   6    -0.13   0.24   0.09    -0.07  -0.06   0.00    -0.15  -0.18   0.06
   3   8    -0.01  -0.07  -0.02     0.02   0.03  -0.02    -0.07  -0.02  -0.11
   4   1    -0.01  -0.00   0.03    -0.32   0.41  -0.06     0.04  -0.03   0.01
   5   6     0.25  -0.19  -0.06    -0.04   0.02   0.05     0.07   0.01   0.03
   6   1     0.43  -0.43  -0.27     0.13   0.09  -0.04     0.49   0.60  -0.16
   7   1     0.02  -0.01   0.01    -0.04   0.47  -0.15    -0.02  -0.10   0.01
   8   6    -0.05  -0.01   0.08     0.01   0.04  -0.02    -0.06   0.20   0.02
   9   1    -0.05   0.12   0.01    -0.09   0.47   0.13     0.02  -0.16  -0.02
  10   1    -0.17   0.14   0.15     0.07  -0.06  -0.04     0.03  -0.02   0.00
  11   1    -0.37   0.21   0.23     0.02  -0.03  -0.01    -0.11   0.03   0.07
  12   1     0.04   0.01  -0.01    -0.01  -0.03  -0.00     0.02  -0.22  -0.05
  13   1    -0.01   0.12  -0.02     0.00  -0.07   0.01    -0.02  -0.24   0.06
  14   1    -0.01  -0.01  -0.03     0.02  -0.01   0.00     0.17  -0.20  -0.03
                     22                     23                     24
                        a                      a                      a 
 Frequencies --  1385.1708              1487.4511              1499.5530
 Red. masses --     3.2981                 1.9490                 1.6206
 Frc consts  --     0.0000                 0.0000                 0.0000
 IR Inten    --    73.3864                 6.3488                 2.9688
 Raman Activ --     0.0000                 0.0000                 0.0000
 Depolar     --     0.0000                 0.0000                 0.0000
 Atom AN      X      Y      Z        X      Y      Z        X      Y      Z
   1   6     0.04   0.03   0.02    -0.01   0.00   0.03    -0.02  -0.00   0.02
   2   6    -0.16  -0.17   0.04    -0.00   0.00  -0.00     0.01   0.02   0.01
   3   8     0.01   0.05  -0.05    -0.00  -0.00   0.00    -0.01  -0.01  -0.00
   4   1    -0.01   0.02   0.00     0.02   0.00  -0.10     0.01   0.01  -0.08
   5   6    -0.00   0.02   0.04     0.02   0.24  -0.15     0.03   0.06   0.00
   6   1     0.27   0.31  -0.07    -0.00   0.01  -0.01     0.01  -0.02  -0.00
   7   1    -0.01  -0.03  -0.01    -0.02  -0.06  -0.00     0.00  -0.04   0.01
   8   6     0.12  -0.36   0.00    -0.01  -0.04  -0.03     0.18  -0.01   0.13
   9   1    -0.01  -0.05   0.00     0.06   0.04  -0.02     0.06   0.04  -0.02
  10   1     0.04  -0.01  -0.10     0.18  -0.32   0.55     0.02  -0.03   0.09
  11   1     0.02   0.06   0.00    -0.34  -0.54   0.05    -0.04  -0.12   0.01
  12   1    -0.03   0.40   0.09     0.10   0.03  -0.06    -0.28   0.30   0.23
  13   1     0.01   0.43  -0.11     0.13   0.04   0.07    -0.55  -0.19  -0.36
  14   1    -0.32   0.36   0.02    -0.08   0.09   0.03     0.13  -0.15  -0.42
                     25                     26                     27
                        a                      a                      a 
 Frequencies --  1502.5011              1512.8440              1519.3854
 Red. masses --     1.6575                 1.6218                 1.6628
 Frc consts  --     0.0000                 0.0000                 0.0000
 IR Inten    --     5.8423                 2.8116                 3.6314
 Raman Activ --     0.0000                 0.0000                 0.0000
 Depolar     --     0.0000                 0.0000                 0.0000
 Atom AN      X      Y      Z        X      Y      Z        X      Y      Z
   1   6     0.08   0.01  -0.22    -0.00  -0.00  -0.01     0.21   0.07   0.08
   2   6     0.02   0.00  -0.04     0.01   0.01  -0.01     0.04   0.02   0.01
   3   8    -0.01  -0.00   0.01     0.00  -0.00   0.00    -0.01  -0.01  -0.00
   4   1    -0.11  -0.03   0.70    -0.02   0.01   0.05     0.21  -0.23  -0.07
   5   6     0.01   0.04  -0.02    -0.04  -0.02   0.05     0.00   0.00   0.00
   6   1    -0.02   0.02   0.00    -0.01  -0.00  -0.01    -0.01  -0.02   0.00
   7   1     0.16   0.35   0.07     0.03   0.03   0.02    -0.48  -0.07  -0.48
   8   6     0.03   0.00  -0.00    -0.14  -0.03   0.18    -0.00  -0.00   0.01
   9   1    -0.35  -0.35   0.08    -0.00  -0.03  -0.00    -0.55   0.04   0.26
  10   1     0.03  -0.06   0.09    -0.00   0.01  -0.06    -0.01   0.01   0.02
  11   1    -0.06  -0.09   0.01     0.05   0.04  -0.01     0.01  -0.02  -0.00
  12   1    -0.06   0.02   0.04     0.52   0.29  -0.28     0.01   0.03  -0.00
  13   1    -0.05   0.00  -0.04     0.12  -0.28   0.17    -0.01  -0.02  -0.01
  14   1     0.01  -0.01  -0.00    -0.12   0.11  -0.59     0.00  -0.01  -0.04
                     28                     29                     30
                        a                      a                      a 
 Frequencies --  2102.1983              2878.1785              2919.6433
 Red. masses --     1.5751                 1.7798                 1.7312
 Frc consts  --     0.0000                 0.0000                 0.0000
 IR Inten    --   583.6438               126.3538               131.6494
 Raman Activ --     0.0000                 0.0000                 0.0000
 Depolar     --     0.0000                 0.0000                 0.0000
 Atom AN      X      Y      Z        X      Y      Z        X      Y      Z
   1   6     0.01  -0.03   0.02    -0.03  -0.02  -0.00    -0.01  -0.01  -0.01
   2   6     0.03  -0.07   0.17     0.01   0.01   0.01    -0.00  -0.00   0.00
   3   8     0.08   0.07   0.02     0.00  -0.00  -0.00     0.00   0.00   0.00
   4   1     0.01   0.00   0.00     0.10   0.08   0.02     0.05   0.04   0.01
   5   6    -0.01  -0.01   0.04     0.19   0.17   0.08     0.04  -0.02   0.06
   6   1    -0.43   0.09  -0.87    -0.01  -0.00  -0.01    -0.00   0.00   0.00
   7   1    -0.01   0.00   0.00     0.00  -0.01  -0.01    -0.01  -0.00   0.00
   8   6     0.00  -0.00  -0.01    -0.01   0.00  -0.00     0.13  -0.04  -0.21
   9   1     0.01  -0.02   0.01    -0.00  -0.00   0.00     0.00  -0.00   0.00
  10   1     0.00   0.01   0.00    -0.66  -0.65  -0.18     0.01   0.01   0.01
  11   1    -0.01   0.00   0.02    -0.02   0.05  -0.10    -0.12   0.04  -0.25
  12   1    -0.00   0.01   0.01     0.02  -0.01   0.04     0.08  -0.02   0.05
  13   1    -0.00   0.00  -0.00     0.02  -0.01  -0.03    -0.53   0.17   0.73
  14   1     0.00  -0.00   0.00     0.02   0.02  -0.00     0.01  -0.02  -0.04
                     31                     32                     33
                        a                      a                      a 
 Frequencies --  2929.3419              2942.1477              2988.1070
 Red. masses --     1.7259                 1.6501                 1.8228
 Frc consts  --     0.0000                 0.0000                 0.0000
 IR Inten    --   194.2137               101.9355                43.4278
 Raman Activ --     0.0000                 0.0000                 0.0000
 Depolar     --     0.0000                 0.0000                 0.0000
 Atom AN      X      Y      Z        X      Y      Z        X      Y      Z
   1   6     0.20   0.14   0.03     0.03   0.02   0.03     0.02  -0.02   0.24
   2   6     0.01   0.01   0.00    -0.00   0.00  -0.01     0.00  -0.00   0.01
   3   8    -0.00   0.00  -0.00     0.00   0.00   0.00    -0.00  -0.00  -0.00
   4   1    -0.74  -0.58  -0.14    -0.09  -0.07  -0.01     0.01   0.01   0.04
   5   6     0.04   0.01   0.04    -0.07   0.06  -0.21    -0.00  -0.00   0.00
   6   1    -0.01  -0.00  -0.01     0.01  -0.00  -0.00    -0.00  -0.01  -0.00
   7   1     0.01   0.03   0.04     0.02  -0.00  -0.01     0.24  -0.05  -0.19
   8   6    -0.00  -0.00  -0.01     0.05  -0.01  -0.05    -0.08   0.01  -0.09
   9   1     0.03   0.03  -0.01    -0.03   0.01  -0.08    -0.32   0.11  -0.71
  10   1    -0.08  -0.08  -0.01    -0.11  -0.09  -0.06     0.02   0.02   0.01
  11   1    -0.06   0.02  -0.13     0.38  -0.13   0.81    -0.02   0.01  -0.04
  12   1     0.02  -0.00   0.03    -0.02   0.01  -0.05     0.23  -0.05   0.38
  13   1    -0.01   0.00   0.01    -0.16   0.05   0.23     0.02  -0.01  -0.06
  14   1     0.01   0.00  -0.00     0.00  -0.00  -0.01     0.02   0.02  -0.01
                     34                     35                     36
                        a                      a                      a 
 Frequencies --  2990.5884              3002.5007              3008.6337
 Red. masses --     1.7451                 1.5141                 1.6658
 Frc consts  --     0.0000                 0.0000                 0.0000
 IR Inten    --   185.5668                75.5957                19.2957
 Raman Activ --     0.0000                 0.0000                 0.0000
 Depolar     --     0.0000                 0.0000                 0.0000
 Atom AN      X      Y      Z        X      Y      Z        X      Y      Z
   1   6     0.02  -0.01   0.13    -0.19   0.05   0.08     0.00   0.00  -0.00
   2   6     0.00  -0.00   0.01    -0.01   0.00   0.00     0.00   0.00  -0.00
   3   8    -0.00   0.00  -0.00     0.00   0.00  -0.00    -0.00  -0.00   0.00
   4   1    -0.00  -0.01   0.02    -0.06  -0.02   0.01    -0.00  -0.00  -0.00
   5   6     0.02  -0.00   0.03    -0.00   0.00  -0.00     0.01   0.01   0.00
   6   1    -0.00  -0.00  -0.01    -0.00   0.00  -0.00     0.00   0.00   0.00
   7   1     0.11  -0.02  -0.08     0.62  -0.12  -0.64    -0.01   0.00   0.01
   8   6     0.14  -0.01   0.17     0.01   0.00   0.00     0.18   0.16  -0.02
   9   1    -0.17   0.06  -0.38     0.11  -0.04   0.34    -0.00   0.00  -0.00
  10   1    -0.02  -0.02  -0.00     0.00   0.00  -0.00    -0.02  -0.02  -0.01
  11   1    -0.04   0.01  -0.10     0.00  -0.00   0.00     0.00   0.00   0.00
  12   1    -0.44   0.09  -0.72    -0.01   0.00  -0.02     0.06   0.01   0.06
  13   1    -0.01   0.01   0.07    -0.01   0.00   0.01     0.04   0.02  -0.02
  14   1    -0.03  -0.04   0.03    -0.01  -0.01   0.00    -0.75  -0.61   0.01
