      -----------------------------------------------------------      
     |                   =====================                   |     
     |                           x T B                           |     
     |                   =====================                   |     
     |                         S. Grimme                         |     
     |          Mulliken Center for Theoretical Chemistry        |     
     |                    University of Bonn                     |     
      -----------------------------------------------------------      

   * xtb version 6.7.1 (edcfbbe) compiled by 'albert@albert-system' on 2024-07-22

   xtb is free software: you can redistribute it and/or modify it under
   the terms of the GNU Lesser General Public License as published by
   the Free Software Foundation, either version 3 of the License, or
   (at your option) any later version.
   
   xtb is distributed in the hope that it will be useful,
   but WITHOUT ANY WARRANTY; without even the implied warranty of
   MERCHANTABILITY or FITNESS FOR A PARTICULAR PURPOSE.  See the
   GNU Lesser General Public License for more details.
   
   Cite this work as:
   * C. Bannwarth, E. Caldeweyher, S. Ehlert, A. Hansen, P. Pracht,
     J. Seibert, S. Spicher, S. Grimme, WIREs Comput. Mol. Sci., 2020, 11,
     e01493. DOI: 10.1002/wcms.1493
   
   for GFN2-xTB:
   * C. Bannwarth, S. Ehlert and S. Grimme., J. Chem. Theory Comput., 2019,
     15, 1652-1671. DOI: 10.1021/acs.jctc.8b01176
   for GFN1-xTB:
   * S. Grimme, C. Bannwarth, P. Shushkov, J. Chem. Theory Comput., 2017,
     13, 1989-2009. DOI: 10.1021/acs.jctc.7b00118
   for GFN0-xTB:
   * P. Pracht, E. Caldeweyher, S. Ehlert, S. Grimme, ChemRxiv, 2019, preprint.
     DOI: 10.26434/chemrxiv.8326202.v1
   for GFN-FF:
   * S. Spicher and S. Grimme, Angew. Chem. Int. Ed., 2020, 59, 15665-15673.
     DOI: 10.1002/anie.202004239
   
   for ALPB and GBSA implicit solvation:
   * S. Ehlert, M. Stahn, S. Spicher, S. Grimme, J. Chem. Theory Comput.,
     2021, 17, 4250-4261. DOI: 10.1021/acs.jctc.1c00471
   
   for ddCOSMO and CPCM-X implicit solvation:
   * M. Stahn, S. Ehlert, S. Grimme, J. Phys. Chem. A,
     2023, XX, XXXX-XXXX. DOI: 10.1021/acs.jpca.3c04382
   
   for DFT-D4:
   * E. Caldeweyher, C. Bannwarth and S. Grimme, J. Chem. Phys., 2017,
     147, 034112. DOI: 10.1063/1.4993215
   * E. Caldeweyher, S. Ehlert, A. Hansen, H. Neugebauer, S. Spicher,
     C. Bannwarth and S. Grimme, J. Chem. Phys., 2019, 150, 154122.
     DOI: 10.1063/1.5090222
   * E. Caldeweyher, J.-M. Mewes, S. Ehlert and S. Grimme, Phys. Chem. Chem. Phys.
     2020, 22, 8499-8512. DOI: 10.1039/D0CP00502A
   
   for sTDA-xTB:
   * S. Grimme and C. Bannwarth, J. Chem. Phys., 2016, 145, 054103.
     DOI: 10.1063/1.4959605
   
   in the mass-spec context:
   * V. Asgeirsson, C. Bauer and S. Grimme, Chem. Sci., 2017, 8, 4879.
     DOI: 10.1039/c7sc00601b
   * J. Koopman and S. Grimme, ACS Omega 2019, 4, 12, 15120-15133.
     DOI: 10.1021/acsomega.9b02011
   
   for metadynamics refer to:
   * S. Grimme, J. Chem. Theory Comput., 2019, 155, 2847-2862
     DOI: 10.1021/acs.jctc.9b00143
   
   for SPH calculations refer to:
   * S. Spicher and S. Grimme, J. Chem. Theory Comput., 2021, 17, 1701-1714
     DOI: 10.1021/acs.jctc.0c01306
   
   for ONIOM refer to:
   * C. Plett, A. Katbashev, S. Ehlert, S. Grimme, M. Bursch,
     Phys. Chem. Chem. Phys., 2023, 25, 17860-17868. DOI: 10.1039/D3CP02178E
   
   for DIPRO refer to:
   * J. Kohn, N. Gildemeister, S. Grimme, D. Fazzi, A. Hansen,
     J. Chem. Phys., 2023, just accepted.
   
   for PTB refer to:
   * S. Grimme, M. Mueller, A. Hansen, J. Chem. Phys., 2023, 158, 124111.
     DOI: 10.1063/5.0137838
   
   with help from (in alphabetical order)
   P. Atkinson, C. Bannwarth, F. Bohle, G. Brandenburg, E. Caldeweyher
   M. Checinski, S. Dohm, S. Ehlert, S. Ehrlich, I. Gerasimov, C. Hölzer
   A. Katbashev, J. Kohn, J. Koopman, C. Lavigne, S. Lehtola, F. März, M. Müller,
   F. Musil, H. Neugebauer, J. Pisarek, C. Plett, P. Pracht, F. Pultar,
   J. Seibert, P. Shushkov, S. Spicher, M. Stahn, M. Steiner, T. Strunk,
   J. Stückrath, T. Rose, and J. Unsleber
   
 * started run on 2025/10/18 at 01:00:00.558     
   ID    Z sym.   atoms
    1    6 C      1, 2, 5, 8
    2    8 O      3
    3    1 H      4, 6, 7, 9-14

           -------------------------------------------------
          |                Calculation Setup                |
           -------------------------------------------------

          program call               : xtb xyz.xyz --charge -1 --ohess
          hostname                   : m003
          coordinate file            : xyz.xyz
          omp threads                :                     2


           -------------------------------------------------
          |                 G F N 2 - x T B                 |
           -------------------------------------------------

        Reference                      10.1021/acs.jctc.8b01176
      * Hamiltonian:
        H0-scaling (s, p, d)           1.850000    2.230000    2.230000
        zeta-weighting                 0.500000
      * Dispersion:
        s8                             2.700000
        a1                             0.520000
        a2                             5.000000
        s9                             5.000000
      * Repulsion:
        kExp                           1.500000    1.000000
        rExp                           1.000000
      * Coulomb:
        alpha                          2.000000
        third order                    shell-resolved
        anisotropic                    true
        a3                             3.000000
        a5                             4.000000
        cn-shift                       1.200000
        cn-exp                         4.000000
        max-rad                        5.000000


          ...................................................
          :                      SETUP                      :
          :.................................................:
          :  # basis functions                  29          :
          :  # atomic orbitals                  29          :
          :  # shells                           19          :
          :  # electrons                        32          :
          :  max. iterations                   250          :
          :  Hamiltonian                  GFN2-xTB          :
          :  restarted?                      false          :
          :  GBSA solvation                  false          :
          :  PC potential                    false          :
          :  electronic temp.          300.0000000     K    :
          :  accuracy                    1.0000000          :
          :  -> integral cutoff          0.2500000E+02      :
          :  -> integral neglect         0.1000000E-07      :
          :  -> SCF convergence          0.1000000E-05 Eh   :
          :  -> wf. convergence          0.1000000E-03 e    :
          :  Broyden damping             0.4000000          :
          :  net charge                         -1          :
          :  unpaired electrons                  0          :
          ...................................................

 iter      E             dE          RMSdq      gap      omega  full diag
   1    -17.4284965 -0.174285E+02  0.406E+00   12.22       0.0  T
   2    -17.5466613 -0.118165E+00  0.172E+00    9.72       1.0  T
   3    -17.5490102 -0.234885E-02  0.949E-01    9.21       1.0  T
   4    -17.5494441 -0.433901E-03  0.248E-01    8.94       1.0  T
   5    -17.5494989 -0.547963E-04  0.675E-02    9.07       1.0  T
   6    -17.5495121 -0.132207E-04  0.246E-02    9.09       1.1  T
   7    -17.5495129 -0.788379E-06  0.577E-03    9.08       4.6  T
   8    -17.5495130 -0.693220E-07  0.292E-03    9.08       9.1  T
   9    -17.5495130 -0.695570E-08  0.756E-04    9.08      35.4  T
  10    -17.5495130 -0.158262E-08  0.272E-04    9.08      98.1  T

   *** convergence criteria satisfied after 10 iterations ***

         #    Occupation            Energy/Eh            Energy/eV
      -------------------------------------------------------------
         1        2.0000           -0.4389666             -11.9449
       ...           ...                  ...                  ...
        10        2.0000           -0.2843650              -7.7380
        11        2.0000           -0.2698828              -7.3439
        12        2.0000           -0.2516923              -6.8489
        13        2.0000           -0.2406402              -6.5482
        14        2.0000           -0.2053507              -5.5879
        15        2.0000           -0.0847287              -2.3056
        16        2.0000           -0.0828078              -2.2533 (HOMO)
        17                          0.2510318               6.8309 (LUMO)
        18                          0.2788073               7.5867
        19                          0.2912744               7.9260
        20                          0.3128246               8.5124
        21                          0.3201201               8.7109
       ...                                ...                  ...
        29                          0.5260362              14.3142
      -------------------------------------------------------------
                  HL-Gap            0.3338396 Eh            9.0842 eV
             Fermi-level            0.0841120 Eh            2.2888 eV

 SCC (total)                   0 d,  0 h,  0 min,  0.031 sec
 SCC setup                      ...        0 min,  0.000 sec (  0.629%)
 Dispersion                     ...        0 min,  0.000 sec (  0.393%)
 classical contributions        ...        0 min,  0.000 sec (  0.114%)
 integral evaluation            ...        0 min,  0.001 sec (  2.367%)
 iterations                     ...        0 min,  0.028 sec ( 91.024%)
 molecular gradient             ...        0 min,  0.002 sec (  5.064%)
 printout                       ...        0 min,  0.000 sec (  0.298%)

         :::::::::::::::::::::::::::::::::::::::::::::::::::::
         ::                     SUMMARY                     ::
         :::::::::::::::::::::::::::::::::::::::::::::::::::::
         :: total energy             -17.369069162397 Eh    ::
         :: gradient norm              0.061186936363 Eh/a0 ::
         :: HOMO-LUMO gap              9.084238528552 eV    ::
         ::.................................................::
         :: SCC energy               -17.549506538210 Eh    ::
         :: -> isotropic ES            0.201289973389 Eh    ::
         :: -> anisotropic ES          0.015403379629 Eh    ::
         :: -> anisotropic XC          0.002758407000 Eh    ::
         :: -> dispersion             -0.008255451416 Eh    ::
         :: repulsion energy           0.180437375813 Eh    ::
         :: add. restraining           0.000000000000 Eh    ::
         :: total charge              -1.000000000000 e     ::
         :::::::::::::::::::::::::::::::::::::::::::::::::::::

      ----------------------------------------------------------- 
     |                   =====================                   |
     |                        A N C O P T                        |
     |                   =====================                   |
     |               Approximate Normal Coordinate               |
     |                Rational Function Optimizer                |
      ----------------------------------------------------------- 
      ----------------------------------------------------------- 
     |                   =====================                   |
     |                        A N C O P T                        |
     |                   =====================                   |
     |               Approximate Normal Coordinate               |
     |                Rational Function Optimizer                |
      ----------------------------------------------------------- 

          ...................................................
          :                      SETUP                      :
          :.................................................:
          :   optimization level            normal          :
          :   max. optcycles                   200          :
          :   ANC micro-cycles                  20          :
          :   degrees of freedom                36          :
          :.................................................:
          :   RF solver                   davidson          :
          :   write xtbopt.log                true          :
          :   linear?                        false          :
          :   energy convergence         0.5000000E-05 Eh   :
          :   grad. convergence          0.1000000E-02 Eh/α :
          :   maxmium RF displ.          1.0000000          :
          :   Hlow (freq-cutoff)         0.1000000E-01      :
          :   Hmax (freq-cutoff)         5.0000000          :
          :   S6 in model hess.         20.0000000          :
          ...................................................

generating ANC from exact Hessian ...
Using Lindh-Hessian (1995)
 Shifting diagonal of input Hessian by   6.087409692206263E-003
 Lowest  eigenvalues of input Hessian
    0.000000    0.000000    0.000000    0.000000    0.000000    0.000000
    0.010000    0.012774    0.013539    0.017243    0.020828    0.041593
    0.042329    0.049316    0.054125    0.054706    0.057249    0.063948
 Highest eigenvalues
    1.064628    1.087169    1.108717    1.126261    1.223491    1.510525
 

........................................................................
.............................. CYCLE    1 ..............................
........................................................................

 iter      E             dE          RMSdq      gap      omega  full diag
   1    -17.5495130 -0.175495E+02  0.481E-05    9.08       0.0  T
   2    -17.5495130 -0.805045E-11  0.234E-05    9.08    1142.8  T
   3    -17.5495130 -0.746070E-12  0.112E-05    9.08    2396.2  T
     SCC iter.                  ...        0 min,  0.001 sec
     gradient                   ...        0 min,  0.001 sec
 * total energy  :   -17.3690692 Eh     change       -0.1780620E-09 Eh
   gradient norm :     0.0611869 Eh/α   predicted     0.0000000E+00 (-100.00%)
   displ. norm   :     0.1595039 α      lambda       -0.3914221E-02
   maximum displ.:     0.1054621 α      in ANC's #5, #13, #9, ...

........................................................................
.............................. CYCLE    2 ..............................
........................................................................

 iter      E             dE          RMSdq      gap      omega  full diag
   1    -17.5614472 -0.175614E+02  0.221E-01    9.40       0.0  T
   2    -17.5616474 -0.200204E-03  0.118E-01    9.48       1.0  T
   3    -17.5616645 -0.170944E-04  0.662E-02    9.50       1.0  T
   4    -17.5616678 -0.332711E-05  0.999E-03    9.52       2.7  T
   5    -17.5616681 -0.285481E-06  0.246E-03    9.51      10.9  T
   6    -17.5616681 -0.172073E-07  0.847E-04    9.51      31.6  T
   7    -17.5616681 -0.231889E-09  0.241E-04    9.51     111.0  T
     SCC iter.                  ...        0 min,  0.002 sec
     gradient                   ...        0 min,  0.001 sec
 * total energy  :   -17.3717523 Eh     change       -0.2683139E-02 Eh
   gradient norm :     0.0349442 Eh/α   predicted    -0.2006902E-02 ( -25.20%)
   displ. norm   :     0.1147165 α      lambda       -0.1937244E-02
   maximum displ.:     0.0555489 α      in ANC's #5, #3, #36, ...

........................................................................
.............................. CYCLE    3 ..............................
........................................................................

 iter      E             dE          RMSdq      gap      omega  full diag
   1    -17.5697410 -0.175697E+02  0.197E-01    9.47       0.0  T
   2    -17.5700773 -0.336321E-03  0.875E-02    9.60       1.0  T
   3    -17.5701079 -0.306009E-04  0.505E-02    9.62       1.0  T
   4    -17.5701096 -0.166961E-05  0.196E-02    9.63       1.4  T
   5    -17.5701098 -0.247112E-06  0.392E-03    9.63       6.8  T
   6    -17.5701098 -0.193761E-07  0.608E-04    9.63      44.0  T
   7    -17.5701098 -0.278277E-09  0.233E-04    9.63     114.5  T
     SCC iter.                  ...        0 min,  0.002 sec
     gradient                   ...        0 min,  0.001 sec
 * total energy  :   -17.3727624 Eh     change       -0.1010076E-02 Eh
   gradient norm :     0.0086587 Eh/α   predicted    -0.9813679E-03 (  -2.84%)
   displ. norm   :     0.0582972 α      lambda       -0.2521592E-03
   maximum displ.:     0.0372129 α      in ANC's #3, #4, #24, ...

........................................................................
.............................. CYCLE    4 ..............................
........................................................................

 iter      E             dE          RMSdq      gap      omega  full diag
   1    -17.5680317 -0.175680E+02  0.560E-02    9.57       0.0  T
   2    -17.5680431 -0.114494E-04  0.281E-02    9.61       1.0  T
   3    -17.5680439 -0.821081E-06  0.139E-02    9.61       1.9  T
   4    -17.5680442 -0.209243E-06  0.468E-03    9.62       5.7  T
   5    -17.5680442 -0.376750E-07  0.112E-03    9.61      23.9  T
   6    -17.5680442 -0.174417E-08  0.381E-04    9.61      70.1  T
   7    -17.5680442 -0.110244E-09  0.126E-04    9.61     211.3  T
     SCC iter.                  ...        0 min,  0.002 sec
     gradient                   ...        0 min,  0.001 sec
 * total energy  :   -17.3729274 Eh     change       -0.1650410E-03 Eh
   gradient norm :     0.0038194 Eh/α   predicted    -0.1265088E-03 ( -23.35%)
   displ. norm   :     0.0645684 α      lambda       -0.8939866E-04
   maximum displ.:     0.0461075 α      in ANC's #3, #4, #6, ...

........................................................................
.............................. CYCLE    5 ..............................
........................................................................

 iter      E             dE          RMSdq      gap      omega  full diag
   1    -17.5662223 -0.175662E+02  0.378E-02    9.52       0.0  T
   2    -17.5662252 -0.291412E-05  0.201E-02    9.53       1.3  T
   3    -17.5662254 -0.206652E-06  0.759E-03    9.54       3.5  T
   4    -17.5662255 -0.582744E-07  0.252E-03    9.54      10.6  T
   5    -17.5662255 -0.135777E-07  0.633E-04    9.53      42.2  T
   6    -17.5662255 -0.865633E-09  0.253E-04    9.53     105.8  T
     SCC iter.                  ...        0 min,  0.001 sec
     gradient                   ...        0 min,  0.001 sec
 * total energy  :   -17.3729787 Eh     change       -0.5130383E-04 Eh
   gradient norm :     0.0013004 Eh/α   predicted    -0.4488513E-04 ( -12.51%)
   displ. norm   :     0.0601582 α      lambda       -0.1700895E-04
   maximum displ.:     0.0436554 α      in ANC's #3, #4, #2, ...

........................................................................
.............................. CYCLE    6 ..............................
........................................................................

 iter      E             dE          RMSdq      gap      omega  full diag
   1    -17.5658770 -0.175659E+02  0.194E-02    9.53       0.0  T
   2    -17.5658772 -0.270322E-06  0.112E-02    9.53       2.4  T
   3    -17.5658772 -0.152066E-07  0.273E-03    9.54       9.8  T
   4    -17.5658773 -0.165459E-07  0.895E-04    9.53      29.9  T
   5    -17.5658773 -0.243506E-08  0.191E-04    9.53     139.9  T
     SCC iter.                  ...        0 min,  0.001 sec
     gradient                   ...        0 min,  0.001 sec
 * total energy  :   -17.3729972 Eh     change       -0.1850331E-04 Eh
   gradient norm :     0.0016550 Eh/α   predicted    -0.8519292E-05 ( -53.96%)
   displ. norm   :     0.0907942 α      lambda       -0.2098175E-04
   maximum displ.:     0.0637057 α      in ANC's #3, #4, #2, ...

........................................................................
.............................. CYCLE    7 ..............................
........................................................................

 iter      E             dE          RMSdq      gap      omega  full diag
   1    -17.5661697 -0.175662E+02  0.271E-02    9.55       0.0  T
   2    -17.5661699 -0.229545E-06  0.161E-02    9.55       1.7  T
   3    -17.5661699 -0.155887E-08  0.249E-03    9.55      10.8  T
   4    -17.5661699 -0.263963E-07  0.756E-04    9.55      35.4  T
   5    -17.5661699 -0.106067E-08  0.304E-04    9.55      88.0  T
     SCC iter.                  ...        0 min,  0.001 sec
     gradient                   ...        0 min,  0.001 sec
 * total energy  :   -17.3730191 Eh     change       -0.2188062E-04 Eh
   gradient norm :     0.0016204 Eh/α   predicted    -0.1052956E-04 ( -51.88%)
   displ. norm   :     0.0730981 α      lambda       -0.1114541E-04
   maximum displ.:     0.0532701 α      in ANC's #3, #1, #4, ...

........................................................................
.............................. CYCLE    8 ..............................
........................................................................

 iter      E             dE          RMSdq      gap      omega  full diag
   1    -17.5664256 -0.175664E+02  0.215E-02    9.57       0.0  T
   2    -17.5664258 -0.183539E-06  0.126E-02    9.57       2.1  T
   3    -17.5664258 -0.486675E-08  0.242E-03    9.57      11.1  T
   4    -17.5664258 -0.229487E-07  0.787E-04    9.57      34.0  T
   5    -17.5664258 -0.102931E-08  0.260E-04    9.57     102.9  T
     SCC iter.                  ...        0 min,  0.001 sec
     gradient                   ...        0 min,  0.001 sec
 * total energy  :   -17.3730305 Eh     change       -0.1134380E-04 Eh
   gradient norm :     0.0009383 Eh/α   predicted    -0.5583887E-05 ( -50.78%)
   displ. norm   :     0.0522038 α      lambda       -0.5131817E-05
   maximum displ.:     0.0393388 α      in ANC's #3, #1, #4, ...

........................................................................
.............................. CYCLE    9 ..............................
........................................................................

 iter      E             dE          RMSdq      gap      omega  full diag
   1    -17.5665100 -0.175665E+02  0.194E-02    9.57       0.0  T
   2    -17.5665101 -0.105656E-06  0.113E-02    9.57       2.4  T
   3    -17.5665101 -0.849114E-08  0.149E-03    9.57      17.9  T
   4    -17.5665101 -0.503072E-08  0.541E-04    9.57      49.4  T
   5    -17.5665101 -0.373088E-09  0.201E-04    9.57     133.0  T
     SCC iter.                  ...        0 min,  0.001 sec
     gradient                   ...        0 min,  0.001 sec
 * total energy  :   -17.3730345 Eh     change       -0.4047883E-05 Eh
   gradient norm :     0.0005090 Eh/α   predicted    -0.2567850E-05 ( -36.56%)
   displ. norm   :     0.0192596 α      lambda       -0.1279596E-05
   maximum displ.:     0.0124859 α      in ANC's #1, #3, #4, ...

   *** GEOMETRY OPTIMIZATION CONVERGED AFTER 9 ITERATIONS ***

------------------------------------------------------------------------
 total energy gain   :        -0.0039653 Eh       -2.4883 kcal/mol
 total RMSD          :         0.1365030 a0        0.0722 Å
 total power (kW/mol):        -1.1567763 (step) -279.9121 (real)
------------------------------------------------------------------------

 ANCopt (total)                0 d,  0 h,  0 min,  0.037 sec
 optimizer setup                ...        0 min,  0.000 sec (  0.960%)
 model hessian                  ...        0 min,  0.003 sec (  8.850%)
 ANC generation                 ...        0 min,  0.000 sec (  0.680%)
 coordinate transformation      ...        0 min,  0.000 sec (  0.178%)
 single point calculation       ...        0 min,  0.031 sec ( 82.873%)
 optimization log               ...        0 min,  0.001 sec (  1.349%)
 hessian update                 ...        0 min,  0.000 sec (  0.252%)
 rational function              ...        0 min,  0.001 sec (  3.843%)

================
 final structure:
================
14
 xtb: 6.7.1 (edcfbbe)
C           -3.77222277572632       -3.91843932588265       -2.81633228339022
C           -4.24716171918470       -2.41509951546878       -2.90877518074987
O           -3.29886258979088       -1.53464025070185       -2.78418127422238
H           -4.60038814003052       -4.61413889067419       -2.97491074966139
C           -5.41624882532803       -2.27278145860149       -1.84342260782107
H           -4.80058208134591       -2.36736246137780       -3.92950572110973
H           -3.00754058806304       -4.09960076204542       -3.57031888968363
C           -5.99633260229881       -0.87023010745723       -1.90546356441602
H           -3.33497229788694       -4.10074829596473       -1.83505042681119
H           -6.19453313520738       -3.02613011960525       -2.01859050756076
H           -4.98594725242213       -2.44217233836580       -0.85197248807450
H           -6.57396424982983       -0.73556146794800       -2.82038006980165
H           -6.63895604510199       -0.64209862899228       -1.04915298405655
H           -5.15613169778353       -0.17754837691452       -1.92690525264106
 
 Bond Distances (Angstroems)
 ---------------------------
C1-C2=1.5793         C1-H4=1.0932         C1-H7=1.0891         C1-H9=1.0897         C2-C1=1.5793         C2-O3=1.3000         
C2-C5=1.5881         C2-H6=1.1621         O3-C2=1.3000         H4-C1=1.0932         C5-C2=1.5881         C5-C8=1.5190         
C5-H10=1.0972        C5-H11=1.0940        H6-C2=1.1621         H7-C1=1.0891         C8-C5=1.5190         C8-H12=1.0904        
C8-H13=1.0947        C8-H14=1.0891        H9-C1=1.0897         H10-C5=1.0972        H11-C5=1.0940        H12-C8=1.0904        
H13-C8=1.0947        H14-C8=1.0891        
 C  H  Rav=1.0999 sigma=0.0221  Rmin=1.0891  Rmax=1.1621     9
 C  C  Rav=1.5621 sigma=0.0307  Rmin=1.5190  Rmax=1.5881     3
 O  C  Rav=1.3000 sigma=0.0000  Rmin=1.3000  Rmax=1.3000     1
 
 selected bond angles (degree)
 --------------------
H4-C1-C2=111.68                H7-C1-C2=109.21                H7-C1-H4=109.00                H9-C1-C2=109.43                
H9-C1-H4=109.16                H9-C1-H7=108.29                O3-C2-C1=114.82                C5-C2-C1=105.51                
C5-C2-O3=114.33                H6-C2-C1=103.52                H6-C2-O3=113.81                H6-C2-C5=103.59                
C8-C5-C2=109.66                H10-C5-C2=110.70               H10-C5-C8=110.89               H11-C5-C2=107.73               
H11-C5-C8=109.28               H11-C5-H10=108.50              H12-C8-C5=110.52               H13-C8-C5=112.62               
H13-C8-H12=108.64              H14-C8-C5=107.06               H14-C8-H12=108.28              H14-C8-H13=109.62              
 
 selected dihedral angles (degree)
 ---------------------------------
O3-C2-C1-H4=182.72            O3-C2-C1-H7=303.35            O3-C2-C1-H9= 61.74            C5-C2-C1-H4= 55.89            
C5-C2-C1-H7=176.52            C5-C2-C1-H9=294.91            H6-C2-C1-H4=307.37            H6-C2-C1-H7= 68.01            
H6-C2-C1-H9=186.39            C8-C5-C2-C1=182.99            C8-C5-C2-O3= 55.87            C8-C5-C2-H6=291.45            
H10-C5-C2-C1=305.66           H10-C5-C2-O3=178.54           H10-C5-C2-H6= 54.12           H11-C5-C2-C1= 64.15           
H11-C5-C2-O3=297.03           H11-C5-C2-H6=172.61           H12-C8-C5-C2= 71.50           H12-C8-C5-H10=308.94          
H12-C8-C5-H11=189.38          H13-C8-C5-C2=193.22           H13-C8-C5-H10= 70.66          H13-C8-C5-H11=311.10          
H14-C8-C5-C2=313.78           H14-C8-C5-H10=191.22          H14-C8-C5-H11= 71.66          
           -------------------------------------------------
          |                Final Singlepoint                |
           -------------------------------------------------

          ...................................................
          :                      SETUP                      :
          :.................................................:
          :  # basis functions                  29          :
          :  # atomic orbitals                  29          :
          :  # shells                           19          :
          :  # electrons                        32          :
          :  max. iterations                   250          :
          :  Hamiltonian                  GFN2-xTB          :
          :  restarted?                      false          :
          :  GBSA solvation                  false          :
          :  PC potential                    false          :
          :  electronic temp.          300.0000000     K    :
          :  accuracy                    1.0000000          :
          :  -> integral cutoff          0.2500000E+02      :
          :  -> integral neglect         0.1000000E-07      :
          :  -> SCF convergence          0.1000000E-05 Eh   :
          :  -> wf. convergence          0.1000000E-03 e    :
          :  Broyden damping             0.4000000          :
          :  net charge                         -1          :
          :  unpaired electrons                  0          :
          ...................................................

 iter      E             dE          RMSdq      gap      omega  full diag
   1    -17.5665101 -0.175665E+02  0.513E-05    9.57       0.0  T
   2    -17.5665101 -0.149214E-11  0.308E-05    9.57     866.6  T
   3    -17.5665101  0.319744E-13  0.769E-06    9.57    3474.2  T

   *** convergence criteria satisfied after 3 iterations ***

         #    Occupation            Energy/Eh            Energy/eV
      -------------------------------------------------------------
         1        2.0000           -0.4356408             -11.8544
       ...           ...                  ...                  ...
        10        2.0000           -0.2799447              -7.6177
        11        2.0000           -0.2669295              -7.2635
        12        2.0000           -0.2488654              -6.7720
        13        2.0000           -0.2421679              -6.5897
        14        2.0000           -0.2152600              -5.8575
        15        2.0000           -0.0972844              -2.6472
        16        2.0000           -0.0947282              -2.5777 (HOMO)
        17                          0.2568668               6.9897 (LUMO)
        18                          0.2873222               7.8184
        19                          0.2888987               7.8613
        20                          0.3183167               8.6618
        21                          0.3284594               8.9378
       ...                                ...                  ...
        29                          0.6283369              17.0979
      -------------------------------------------------------------
                  HL-Gap            0.3515950 Eh            9.5674 eV
             Fermi-level            0.0810693 Eh            2.2060 eV

 SCC (total)                   0 d,  0 h,  0 min,  0.003 sec
 SCC setup                      ...        0 min,  0.000 sec (  2.912%)
 Dispersion                     ...        0 min,  0.000 sec (  1.725%)
 classical contributions        ...        0 min,  0.000 sec (  0.465%)
 integral evaluation            ...        0 min,  0.000 sec ( 18.994%)
 iterations                     ...        0 min,  0.001 sec ( 25.420%)
 molecular gradient             ...        0 min,  0.001 sec ( 47.244%)
 printout                       ...        0 min,  0.000 sec (  2.291%)

         :::::::::::::::::::::::::::::::::::::::::::::::::::::
         ::                     SUMMARY                     ::
         :::::::::::::::::::::::::::::::::::::::::::::::::::::
         :: total energy             -17.373034498003 Eh    ::
         :: gradient norm              0.000509605010 Eh/a0 ::
         :: HOMO-LUMO gap              9.567388087701 eV    ::
         ::.................................................::
         :: SCC energy               -17.566503870926 Eh    ::
         :: -> isotropic ES            0.191629678394 Eh    ::
         :: -> anisotropic ES          0.014026593034 Eh    ::
         :: -> anisotropic XC          0.002247167383 Eh    ::
         :: -> dispersion             -0.008380308730 Eh    ::
         :: repulsion energy           0.193469372924 Eh    ::
         :: add. restraining           0.000000000000 Eh    ::
         :: total charge              -1.000000000000 e     ::
         :::::::::::::::::::::::::::::::::::::::::::::::::::::

           ------------------------------------------------- 
          |                Numerical Hessian                |
           ------------------------------------------------- 
step length          :   0.00500
SCC accuracy         :   0.30000
Hessian scale factor :   1.00000
frozen atoms in %    :   0.00000    0
RMS gradient         :   0.00051
estimated CPU  time      0.01 min
estimated wall time      0.01 min

writing file <hessian>.

 projected vibrational frequencies (cm⁻¹)
eigval :       -0.00    -0.00    -0.00     0.00     0.00     0.00
eigval :       93.55   188.72   195.98   242.41   362.43   470.21
eigval :      494.46   741.46   813.38   851.42   944.33  1005.11
eigval :     1015.24  1086.57  1107.16  1228.78  1265.84  1276.93
eigval :     1308.59  1344.28  1369.96  1385.17  1487.45  1499.55
eigval :     1502.50  1512.84  1519.39  2102.20  2878.18  2919.64
eigval :     2929.34  2942.15  2988.11  2990.59  3002.50  3008.63
           -------------------------------------------------
          |                Property Printout                |
           -------------------------------------------------

    * Orbital Energies and Occupations

         #    Occupation            Energy/Eh            Energy/eV
      -------------------------------------------------------------
         1        2.0000           -0.4356408             -11.8544
       ...           ...                  ...                  ...
         4        2.0000           -0.3868714             -10.5273
         5        2.0000           -0.3446043              -9.3772
         6        2.0000           -0.3261909              -8.8761
         7        2.0000           -0.3193288              -8.6894
         8        2.0000           -0.3057746              -8.3206
         9        2.0000           -0.2983672              -8.1190
        10        2.0000           -0.2799447              -7.6177
        11        2.0000           -0.2669295              -7.2635
        12        2.0000           -0.2488655              -6.7720
        13        2.0000           -0.2421680              -6.5897
        14        2.0000           -0.2152601              -5.8575
        15        2.0000           -0.0972845              -2.6472
        16        2.0000           -0.0947284              -2.5777 (HOMO)
        17                          0.2568668               6.9897 (LUMO)
        18                          0.2873221               7.8184
        19                          0.2888986               7.8613
        20                          0.3183167               8.6618
        21                          0.3284593               8.9378
        22                          0.3362515               9.1499
        23                          0.3514636               9.5638
        24                          0.3663625               9.9692
        25                          0.3900146              10.6128
        26                          0.4111023              11.1867
        27                          0.4314985              11.7417
       ...                                ...                  ...
        29                          0.6283367              17.0979
      -------------------------------------------------------------
                  HL-Gap            0.3515951 Eh            9.5674 eV
             Fermi-level            0.0810692 Eh            2.2060 eV

     #   Z          covCN         q      C6AA      α(0)
     1   6 C        3.745    -0.098    22.445     6.758
     2   6 C        3.699     0.195    17.659     6.010
     3   8 O        0.855    -0.757    30.326     7.383
     4   1 H        0.924    -0.036     3.755     3.030
     5   6 C        3.793    -0.062    21.695     6.633
     6   1 H        0.907    -0.132     6.853     4.095
     7   1 H        0.925    -0.006     3.155     2.778
     8   6 C        3.751    -0.076    22.012     6.691
     9   1 H        0.925    -0.009     3.222     2.807
    10   1 H        0.924    -0.038     3.800     3.049
    11   1 H        0.924    -0.010     3.228     2.810
    12   1 H        0.924    -0.000     3.062     2.737
    13   1 H        0.924    -0.021     3.442     2.901
    14   1 H        0.925     0.049     2.336     2.390

 Mol. C6AA /au·bohr⁶  :       1656.736982
 Mol. C8AA /au·bohr⁸  :      33060.964920
 Mol. α(0) /au        :         60.071965


Wiberg/Mayer (AO) data.
largest (>0.10) Wiberg bond orders for each atom

 ---------------------------------------------------------------------------
     #   Z sym  total        # sym  WBO       # sym  WBO       # sym  WBO
 ---------------------------------------------------------------------------
     1   6 C    3.977 --     7 H    0.991     9 H    0.991     4 H    0.989
                             2 C    0.921
     2   6 C    3.975 --     3 O    1.236     1 C    0.921     5 C    0.905
                             6 H    0.901
     3   8 O    1.461 --     2 C    1.236
     4   1 H    0.999 --     1 C    0.989
     5   6 C    3.973 --     8 C    1.022    11 H    0.982    10 H    0.980
                             2 C    0.905
     6   1 H    0.982 --     2 C    0.901
     7   1 H    1.000 --     1 C    0.991
     8   6 C    3.996 --     5 C    1.022    12 H    0.990    13 H    0.987
                            14 H    0.982
     9   1 H    1.000 --     1 C    0.991
    10   1 H    0.999 --     5 C    0.980
    11   1 H    1.000 --     5 C    0.982
    12   1 H    1.000 --     8 C    0.990
    13   1 H    0.999 --     8 C    0.987
    14   1 H    0.998 --     8 C    0.982
 ---------------------------------------------------------------------------

Topologies differ in total number of bonds
Writing topology from bond orders to xtbtopo.mol

molecular dipole:
                 x           y           z       tot (Debye)
 q only:        7.263       3.707       5.199
   full:        6.917       3.368       5.223      23.637
molecular quadrupole (traceless):
                xx          xy          yy          xz          yz          zz
 q only:      -34.288     -41.553      25.892     -55.422     -29.191       8.396
  q+dip:      -30.326     -36.080      25.372     -52.984     -26.704       4.954
   full:      -30.349     -36.116      25.739     -53.099     -26.667       4.609

           -------------------------------------------------
          |                Geometry Summary                 |
           -------------------------------------------------

      molecular mass/u    :       73.1138153
   center of mass at/Å    :       -4.5384887      -2.1986810      -2.4547593
  moments of inertia/u·Å² :        0.6007043E+02   0.1427443E+03   0.1843135E+03
rotational constants/cm⁻¹ :        0.2806311E+00   0.1180967E+00   0.9146175E-01

 * 9 selected distances

     #   Z          #   Z                                           value/Å
     1   6 C        4   1 H                                       1.0931620
     1   6 C        7   1 H                                       1.0890612 (min)
     5   6 C        8   6 C                                       1.5190448 (max)
     1   6 C        9   1 H                                       1.0896508
     5   6 C       10   1 H                                       1.0972441
     5   6 C       11   1 H                                       1.0939956
     8   6 C       12   1 H                                       1.0903515
     8   6 C       13   1 H                                       1.0946583
     8   6 C       14   1 H                                       1.0891306

 * 2 distinct bonds (by element types)

   Z      Z             #   av. dist./Å        max./Å        min./Å
   1 H    6 C           8     1.0921568     1.0972441     1.0890612
   6 C    6 C           1     1.5190448     1.5190448     1.5190448

           -------------------------------------------------
          |               Frequency Printout                |
           -------------------------------------------------
 projected vibrational frequencies (cm⁻¹)
eigval :       -0.00    -0.00    -0.00     0.00     0.00     0.00
eigval :       93.55   188.72   195.98   242.41   362.43   470.21
eigval :      494.46   741.46   813.38   851.42   944.33  1005.11
eigval :     1015.24  1086.57  1107.16  1228.78  1265.84  1276.93
eigval :     1308.59  1344.28  1369.96  1385.17  1487.45  1499.55
eigval :     1502.50  1512.84  1519.39  2102.20  2878.18  2919.64
eigval :     2929.34  2942.15  2988.11  2990.59  3002.50  3008.63
 reduced masses (amu)
   1:  9.39   2: 10.66   3: 12.21   4: 10.33   5: 11.64   6: 10.81   7:  8.05   8:  4.19
   9:  1.93  10:  6.57  11:  9.51  12:  9.85  13:  8.60  14:  8.01  15:  3.84  16:  7.96
  17:  3.12  18:  6.53  19:  4.55  20:  8.06  21:  8.03  22:  8.47  23:  5.52  24:  5.45
  25:  3.38  26:  3.10  27:  2.57  28:  3.30  29:  1.95  30:  1.62  31:  1.66  32:  1.62
  33:  1.66  34:  1.58  35:  1.78  36:  1.73  37:  1.73  38:  1.65  39:  1.82  40:  1.75
  41:  1.51  42:  1.67
 IR intensities (km·mol⁻¹)
   1:  1.07   2:  7.74   3: 18.08   4:  5.68   5: 16.05   6: 11.99   7:  5.86   8:  7.73
   9:  1.33  10:  5.08  11:  6.55  12:  2.26  13:  2.23  14: 33.85  15: 12.89  16: 48.47
  17: 16.27  18: 54.68  19:  8.51  20: 47.02  21: 15.13  22:167.56  23:102.45  24:117.91
  25: 47.82  26:  8.24  27: 70.02  28: 73.39  29:  6.35  30:  2.97  31:  5.84  32:  2.81
  33:  3.63  34:583.64  35:126.35  36:131.65  37:194.21  38:101.94  39: 43.43  40:185.57
  41: 75.60  42: 19.30
 Raman intensities (Ä⁴*amu⁻¹)
   1:  0.00   2:  0.00   3:  0.00   4:  0.00   5:  0.00   6:  0.00   7:  0.00   8:  0.00
   9:  0.00  10:  0.00  11:  0.00  12:  0.00  13:  0.00  14:  0.00  15:  0.00  16:  0.00
  17:  0.00  18:  0.00  19:  0.00  20:  0.00  21:  0.00  22:  0.00  23:  0.00  24:  0.00
  25:  0.00  26:  0.00  27:  0.00  28:  0.00  29:  0.00  30:  0.00  31:  0.00  32:  0.00
  33:  0.00  34:  0.00  35:  0.00  36:  0.00  37:  0.00  38:  0.00  39:  0.00  40:  0.00
  41:  0.00  42:  0.00
 output can be read by thermo (or use thermo option).
 writing <g98.out> molden fake output.
 recommended (thermochemical) frequency scaling factor: 1.0
           -------------------------------------------------
          |             Thermodynamic Functions             |
           -------------------------------------------------

Refinement of some symmetry elements was terminated before convergence was reached.
Some symmetry elements may remain unidentified.
Molecule has no symmetry elements
It seems to be the C1 point group
c1  symmetry found (for desy threshold:  0.10E+00) used in thermo

          ...................................................
          :                      SETUP                      :
          :.................................................:
          :  # frequencies                          36      :
          :  # imaginary freq.                       0      :
          :  linear?                             false      :
          :  only rotor calc.                    false      :
          :  symmetry                               c1      :
          :  rotational number                       1      :
          :  scaling factor                  1.0000000      :
          :  rotor cutoff                   50.0000000 cm⁻¹ :
          :  imag. cutoff                  -20.0000000 cm⁻¹ :
          :.................................................:

    mode    ω/cm⁻¹     T·S(HO)/kcal·mol⁻¹    T·S(FR)/kcal·mol⁻¹   T·S(vib)
   ------------------------------------------------------------------------
       1     93.55    -1.06868 ( 92.46%)    -0.87054 (  7.54%)    -1.05373
       2    188.72    -0.66796 ( 99.51%)    -0.66286 (  0.49%)    -0.66794
       3    195.98    -0.64713 ( 99.58%)    -0.65169 (  0.42%)    -0.64715
       4    242.41    -0.53222 ( 99.82%)    -0.58874 (  0.18%)    -0.53232
   ------------------------------------------------------------------------

   temp. (K)  partition function   enthalpy   heat capacity  entropy
                                   cal/mol     cal/K/mol   cal/K/mol   J/K/mol
 298.15  VIB   18.3                 2332.921     16.559     13.547
         ROT  0.960E+05              888.752      2.981     25.780
         INT  0.175E+07             3221.673     19.540     39.327
         TR   0.605E+27             1481.254      4.968     38.767
         TOT                        4702.9268    24.5081    78.0938   326.7444

       T/K    H(0)-H(T)+PV         H(T)/Eh          T*S/Eh         G(T)/Eh
   ------------------------------------------------------------------------
    298.15    0.749459E-02    0.126130E+00    0.371049E-01    0.890255E-01
   ------------------------------------------------------------------------

         :::::::::::::::::::::::::::::::::::::::::::::::::::::
         ::                  THERMODYNAMIC                  ::
         :::::::::::::::::::::::::::::::::::::::::::::::::::::
         :: total free energy         -17.284009032664 Eh   ::
         ::.................................................::
         :: total energy              -17.373034498003 Eh   ::
         :: zero point energy           0.118635756843 Eh   ::
         :: G(RRHO) w/o ZPVE           -0.029610291504 Eh   ::
         :: G(RRHO) contrib.            0.089025465339 Eh   ::
         :::::::::::::::::::::::::::::::::::::::::::::::::::::

optimized geometry written to: xtbopt.xyz


           -------------------------------------------------
          | TOTAL ENERGY              -17.373034498003 Eh   |
          | TOTAL ENTHALPY            -17.246904150215 Eh   |
          | TOTAL FREE ENERGY         -17.284009032664 Eh   |
          | GRADIENT NORM               0.000509634937 Eh/α |
          | HOMO-LUMO GAP               9.567389846789 eV   |
           -------------------------------------------------

------------------------------------------------------------------------
 * finished run on 2025/10/18 at 01:00:01.035     
------------------------------------------------------------------------
 total:
 * wall-time:     0 d,  0 h,  0 min,  0.476 sec
 *  cpu-time:     0 d,  0 h,  0 min,  0.711 sec
 * ratio c/w:     1.494 speedup
 SCF:
 * wall-time:     0 d,  0 h,  0 min,  0.031 sec
 *  cpu-time:     0 d,  0 h,  0 min,  0.040 sec
 * ratio c/w:     1.299 speedup
 ANC optimizer:
 * wall-time:     0 d,  0 h,  0 min,  0.145 sec
 *  cpu-time:     0 d,  0 h,  0 min,  0.187 sec
 * ratio c/w:     1.284 speedup
 analytical hessian:
 * wall-time:     0 d,  0 h,  0 min,  0.206 sec
 *  cpu-time:     0 d,  0 h,  0 min,  0.381 sec
 * ratio c/w:     1.849 speedup

