14
 energy: -17.369069162575 gnorm: 0.061186874354 xtb: 6.7.1 (edcfbbe)
C           -3.78783400000000       -3.92637900000000       -2.83233000000000
C           -4.25871500000000       -2.45169100000000       -2.90622900000000
O           -3.23023900000000       -1.56276800000000       -2.79140400000000
H           -4.61437100000000       -4.64834100000000       -2.96158600000000
C           -5.38099200000000       -2.24785700000000       -1.84676300000000
H           -4.80596400000000       -2.37025400000000       -3.90375500000000
H           -3.03385500000000       -4.12037700000000       -3.61180100000000
C           -6.01106200000000       -0.85961800000000       -1.90789500000000
H           -3.31439700000000       -4.11087000000000       -1.85182900000000
H           -6.16195700000000       -3.02140600000000       -1.97217500000000
H           -4.92559600000000       -2.40808400000000       -0.85045500000000
H           -6.52190000000000       -0.70185500000000       -2.87260800000000
H           -6.74913200000000       -0.69541300000000       -1.10787300000000
H           -5.22783000000000       -0.09163900000000       -1.81825900000000
14
 energy: -17.371752301796 gnorm: 0.034944272186 xtb: 6.7.1 (edcfbbe)
C           -3.79325152131508       -3.91836343670976       -2.82428396674954
C           -4.26017032083179       -2.43477950445149       -2.91450762863251
O           -3.25762589518279       -1.56177575469867       -2.79441285119964
H           -4.61921212027398       -4.63007841535804       -2.95832690659520
C           -5.38307428583757       -2.25655043813740       -1.83797216465202
H           -4.79378158927625       -2.35162821570393       -3.92284042106669
H           -3.04372317203624       -4.10824163077416       -3.59537348891688
C           -6.00243996988629       -0.87185029206853       -1.91002481158454
H           -3.32564536039762       -4.10408301059806       -1.85293783227117
H           -6.16541837541395       -3.02169382303915       -1.96888454127450
H           -4.93478242925693       -2.39727604497802       -0.84479290106932
H           -6.50670369571173       -0.72600752071958       -2.86979927794546
H           -6.73074544399696       -0.70549674444501       -1.10733171189280
H           -5.20726982058281       -0.12872716831821       -1.83347349614973
14
 energy: -17.372762377464 gnorm: 0.008658812846 xtb: 6.7.1 (edcfbbe)
C           -3.78774475766109       -3.92148073229409       -2.82502687854610
C           -4.24604376154905       -2.41976845843078       -2.90579051599646
O           -3.28020658257264       -1.55291411339552       -2.79173434077553
H           -4.62099917943774       -4.61629650356867       -2.96200114366373
C           -5.39268508424394       -2.26172822325812       -1.83221049895770
H           -4.79731609698167       -2.34877803264676       -3.91296406974075
H           -3.04293903376270       -4.10813063373941       -3.59330496162130
C           -6.00168440510142       -0.87413885630163       -1.91201808741813
H           -3.32967157024373       -4.10370620896827       -1.85732872473232
H           -6.16786772293804       -3.02701151713292       -1.97099453519370
H           -4.94358645544498       -2.39543224606241       -0.84716916183635
H           -6.50493046236831       -0.73870186218178       -2.86623836973620
H           -6.71790249547913       -0.69269228169648       -1.10558091494341
H           -5.19026639221556       -0.15577233032315       -1.85259979683833
14
 energy: -17.372927418465 gnorm: 0.003819442284 xtb: 6.7.1 (edcfbbe)
C           -3.78482488196405       -3.92156334440095       -2.82412551527361
C           -4.24347300478750       -2.41382845696842       -2.90790417882690
O           -3.28152840231292       -1.54770135926960       -2.78627865635267
H           -4.62189135491372       -4.61050319346520       -2.96580265118682
C           -5.39539157187926       -2.26492277052932       -1.82956147458814
H           -4.80233031575006       -2.35240149754284       -3.91879083786845
H           -3.03832754169885       -4.10893671503404       -3.59273861587134
C           -6.00136876886710       -0.87407819601055       -1.91170954462684
H           -3.33037316127461       -4.10656216276338       -1.85292668518309
H           -6.16776508524678       -3.03114490129153       -1.97496545583925
H           -4.94803715020770       -2.40383368324128       -0.84280245365401
H           -6.51397147919169       -0.74196657897473       -2.86323621197043
H           -6.70987415025068       -0.68093482481028       -1.10017482837120
H           -5.18468713165508       -0.15817431569787       -1.86394489038727
14
 energy: -17.372978722293 gnorm: 0.001300438169 xtb: 6.7.1 (edcfbbe)
C           -3.77991983101270       -3.92397059635125       -2.82452965510639
C           -4.24078664858055       -2.41285488647051       -2.90585733577460
O           -3.28241619730272       -1.54363110042665       -2.78492239557216
H           -4.61836649034202       -4.61003277823072       -2.97083167432561
C           -5.39980723635031       -2.26486194105520       -1.82942703066517
H           -4.80421994105860       -2.35658862454858       -3.91976041518664
H           -3.03044102408895       -4.11115614273927       -3.59230363771454
C           -6.00249180873116       -0.87212204940315       -1.91007676367385
H           -3.32820124389855       -4.11252686039964       -1.85095479378544
H           -6.17131796628848       -3.03023916005963       -1.98183655381494
H           -4.95630615546426       -2.40995628285536       -0.84012395472117
H           -6.52776444666114       -0.74246349059511       -2.85696090596900
H           -6.70052864122412       -0.66815319660994       -1.09094290883408
H           -5.18127636899644       -0.15799489025499       -1.87643397485641
14
 energy: -17.372997225607 gnorm: 0.001655025280 xtb: 6.7.1 (edcfbbe)
C           -3.77816231231414       -3.92376646447103       -2.82253623516237
C           -4.24046527329524       -2.41280661310091       -2.90561721698292
O           -3.28414829469215       -1.54176648611228       -2.78515695501445
H           -4.61504674641263       -4.61053008730115       -2.97285583329878
C           -5.40284856917582       -2.26575071760446       -1.83165216092340
H           -4.80380449660785       -2.35831178964954       -3.92185074629171
H           -3.02530040494833       -4.10904074613423       -3.58787209661910
C           -6.00135506584614       -0.87169178824882       -1.90926638421636
H           -3.32908184422898       -4.11375058884487       -1.84759575334730
H           -6.17479639407131       -3.02928480542563       -1.99048478208874
H           -4.96322703443631       -2.41721131867121       -0.84091463715965
H           -6.54051675756504       -0.74174218036318       -2.84893840088814
H           -6.68726390325898       -0.66179542252731       -1.08128515111444
H           -5.17782690314708       -0.15910299154536       -1.88893564689263
14
 energy: -17.373019106223 gnorm: 0.001620535271 xtb: 6.7.1 (edcfbbe)
C           -3.77638152914007       -3.92179065305304       -2.81954491606301
C           -4.24185373469183       -2.41391956297989       -2.90651309092557
O           -3.28770445726359       -1.54029254012316       -2.78551523800746
H           -4.60977551852678       -4.61172783067344       -2.97412689527836
C           -5.40722340816371       -2.26740502889306       -1.83710916582991
H           -4.80116758455306       -2.36170202244695       -3.92551491496353
H           -3.01820459889176       -4.10513418947256       -3.57983440537744
C           -5.99966274208801       -0.87138902885317       -1.90739594373509
H           -3.33255438097878       -4.10993016045631       -1.84210951411527
H           -6.18121363551163       -3.02714303636923       -2.00392572369807
H           -4.97272695473517       -2.42691395699548       -0.84542247553994
H           -6.55753391394885       -0.74015962569884       -2.83588929001499
H           -6.66682067796566       -0.65469654058669       -1.06595128316740
H           -5.17102086354109       -0.16434782339815       -1.90610914328396
14
 energy: -17.373030450019 gnorm: 0.000938434679 xtb: 6.7.1 (edcfbbe)
C           -3.77459442885149       -3.91972831130112       -2.81711797700254
C           -4.24445371544964       -2.41452613726897       -2.90792065120731
O           -3.29381938929710       -1.53667863319026       -2.78467892110814
H           -4.60488478249562       -4.61306995283866       -2.97441128458115
C           -5.41191373871828       -2.27076739527269       -1.84128766702718
H           -4.80117717040443       -2.36362035253642       -3.92762832227726
H           -3.01252411701914       -4.10191959545957       -3.57342549235426
C           -5.99731334225224       -0.87096278296645       -1.90668151338857
H           -3.33488701692650       -4.10468300313911       -1.83741373471517
H           -6.18800041971074       -3.02728193089865       -2.01317284262262
H           -4.97957695302472       -2.43622916231708       -0.84995437078117
H           -6.56797737489628       -0.73759763925449       -2.82650396861632
H           -6.64978537951756       -0.64835525415931       -1.05594432794257
H           -5.16293617143626       -0.17113184939718       -1.91882092637576
14
 energy: -17.373034497902 gnorm: 0.000509047593 xtb: 6.7.1 (edcfbbe)
C           -3.77222277572632       -3.91843932588265       -2.81633228339022
C           -4.24716171918470       -2.41509951546878       -2.90877518074987
O           -3.29886258979088       -1.53464025070185       -2.78418127422238
H           -4.60038814003052       -4.61413889067419       -2.97491074966139
C           -5.41624882532803       -2.27278145860149       -1.84342260782107
H           -4.80058208134591       -2.36736246137780       -3.92950572110973
H           -3.00754058806304       -4.09960076204542       -3.57031888968363
C           -5.99633260229881       -0.87023010745723       -1.90546356441602
H           -3.33497229788694       -4.10074829596473       -1.83505042681119
H           -6.19453313520738       -3.02613011960525       -2.01859050756076
H           -4.98594725242213       -2.44217233836580       -0.85197248807450
H           -6.57396424982983       -0.73556146794800       -2.82038006980165
H           -6.63895604510199       -0.64209862899228       -1.04915298405655
H           -5.15613169778353       -0.17754837691452       -1.92690525264106
