 Entering Gaussian System
 *********************************************
 Gaussian 98:
 frequency output generated by the xtb code
 *********************************************
                         Standard orientation:
 --------------------------------------------------------------------
  Center     Atomic     Atomic              Coordinates (Angstroms)
  Number     Number      Type              X           Y           Z
 --------------------------------------------------------------------
    1          6             0       -4.079256    0.631536    0.112145
    2         16             0       -2.483568    1.555577    0.367291
    3          1             0       -4.103877    0.302739   -0.919957
    4          1             0       -4.057612   -0.213436    0.787868
    5          1             0       -4.901699    1.299925    0.339890
    6          6             0       -1.428112    0.297210   -0.279270
    7          1             0       -1.208924   -0.339083    0.607876
    8          8             0       -2.487115    2.644887   -0.701246
    9          1             0       -0.475000    0.833043   -0.494783
 --------------------------------------------------------------------
     1 basis functions        1 primitive gaussians
     1 alpha electrons        1 beta electrons
 
 Harmonic frequencies (cm**-1), IR intensities (km*mol⁻¹),
 Raman scattering activities (A**4/amu), Raman depolarization ratios,
 reduced masses (AMU), force constants (mDyne/A) and normal coordinates:
                      1                      2                      3
                        a                      a                      a 
 Frequencies --    98.1929               162.5979               277.9885
 Red. masses --     1.6610                 2.5968                10.9332
 Frc consts  --     0.0000                 0.0000                 0.0000
 IR Inten    --     2.3070                11.1015                 2.9804
 Raman Activ --     0.0000                 0.0000                 0.0000
 Depolar     --     0.0000                 0.0000                 0.0000
 Atom AN      X      Y      Z        X      Y      Z        X      Y      Z
   1   6     0.02  -0.04   0.04    -0.13   0.16  -0.11     0.21  -0.37   0.02
   2  16     0.01  -0.04  -0.01     0.02  -0.13   0.07    -0.12   0.26  -0.01
   3   1     0.23  -0.48   0.16     0.03  -0.06   0.00     0.14  -0.20   0.03
   4   1    -0.23   0.30   0.41    -0.16   0.12   0.06     0.23  -0.06   0.06
   5   1     0.01   0.16  -0.49    -0.01   0.13  -0.18    -0.08  -0.26  -0.04
   6   6     0.00   0.06  -0.17     0.09  -0.05   0.08    -0.45  -0.17   0.01
   7   1    -0.14  -0.11  -0.11     0.54   0.33   0.14     0.03   0.08   0.05
   8   8    -0.02   0.07   0.09    -0.04  -0.07   0.07     0.35   0.24   0.04
   9   1     0.06  -0.01   0.14    -0.20   0.12  -0.57    -0.16  -0.11  -0.28
                      4                      5                      6
                        a                      a                      a 
 Frequencies --   313.3648               375.8364               625.2476
 Red. masses --    13.8047                16.9940                16.9458
 Frc consts  --     0.0000                 0.0000                 0.0000
 IR Inten    --    22.2972                16.3697               118.3654
 Raman Activ --     0.0000                 0.0000                 0.0000
 Depolar     --     0.0000                 0.0000                 0.0000
 Atom AN      X      Y      Z        X      Y      Z        X      Y      Z
   1   6     0.32   0.13  -0.22    -0.13  -0.05   0.11    -0.59  -0.38  -0.07
   2  16     0.31   0.12   0.09     0.02  -0.14  -0.50     0.53   0.20   0.07
   3   1     0.22   0.09  -0.09    -0.20  -0.10   0.07    -0.08  -0.03  -0.04
   4   1    -0.00   0.00  -0.11     0.04   0.04   0.10    -0.25  -0.14  -0.06
   5   1     0.07   0.04  -0.15     0.01   0.02   0.11    -0.15  -0.07  -0.07
   6   6    -0.21  -0.36   0.11     0.23  -0.29   0.26    -0.07   0.12   0.08
   7   1    -0.10  -0.03   0.10    -0.01   0.09   0.22    -0.08  -0.03  -0.03
   8   8    -0.59   0.05   0.03    -0.09   0.51   0.24    -0.05   0.03  -0.04
   9   1     0.00  -0.23  -0.04     0.07  -0.10   0.07     0.02  -0.10  -0.08
                      7                      8                      9
                        a                      a                      a 
 Frequencies --   739.5652               853.8027               871.7072
 Red. masses --    15.4925                 5.1438                 5.3425
 Frc consts  --     0.0000                 0.0000                 0.0000
 IR Inten    --    92.7833                34.5005                25.5382
 Raman Activ --     0.0000                 0.0000                 0.0000
 Depolar     --     0.0000                 0.0000                 0.0000
 Atom AN      X      Y      Z        X      Y      Z        X      Y      Z
   1   6    -0.19  -0.02   0.03     0.16  -0.25   0.28    -0.14   0.22   0.27
   2  16    -0.21   0.36   0.25    -0.15  -0.06  -0.01     0.09  -0.22  -0.17
   3   1     0.11   0.03  -0.00     0.22   0.29  -0.04     0.56   0.19   0.01
   4   1     0.01  -0.03  -0.03    -0.57  -0.26  -0.15     0.07  -0.09  -0.11
   5   1    -0.16  -0.12  -0.06     0.27   0.27  -0.08    -0.42  -0.32  -0.19
   6   6     0.46  -0.55  -0.32    -0.00  -0.03  -0.02    -0.05   0.05   0.03
   7   1     0.16  -0.09  -0.03    -0.00   0.05   0.04    -0.01   0.08   0.06
   8   8     0.01   0.05  -0.08     0.10   0.24  -0.15     0.01   0.06   0.01
   9   1     0.12  -0.04   0.06     0.00  -0.02  -0.02    -0.08   0.19   0.14
                     10                     11                     12
                        a                      a                      a 
 Frequencies --   949.5224               986.9920              1062.0285
 Red. masses --    17.4679                 6.2367                 4.2213
 Frc consts  --     0.0000                 0.0000                 0.0000
 IR Inten    --   375.4365                50.0857                16.4841
 Raman Activ --     0.0000                 0.0000                 0.0000
 Depolar     --     0.0000                 0.0000                 0.0000
 Atom AN      X      Y      Z        X      Y      Z        X      Y      Z
   1   6    -0.03   0.07  -0.06    -0.02  -0.08  -0.11    -0.04   0.06   0.00
   2  16     0.01  -0.37   0.35     0.17  -0.10   0.22    -0.08  -0.15   0.18
   3   1    -0.03  -0.06   0.01    -0.16  -0.08  -0.01     0.05  -0.01   0.01
   4   1     0.14   0.06   0.04     0.02   0.03   0.04     0.07   0.02   0.01
   5   1    -0.05  -0.06   0.03     0.07   0.05   0.04    -0.06  -0.04   0.00
   6   6     0.03   0.05   0.15    -0.19  -0.18  -0.25     0.13   0.19  -0.23
   7   1     0.07  -0.26  -0.21     0.01   0.41   0.30    -0.37   0.45   0.36
   8   8    -0.04   0.52  -0.51     0.00   0.15  -0.19     0.04   0.01  -0.10
   9   1    -0.02  -0.07  -0.12    -0.15   0.44   0.43     0.28  -0.48  -0.19
                     13                     14                     15
                        a                      a                      a 
 Frequencies --  1247.0357              1429.4099              1433.4927
 Red. masses --     2.8355                 1.7026                 1.6861
 Frc consts  --     0.0000                 0.0000                 0.0000
 IR Inten    --     0.6525                 1.5132                 2.1583
 Raman Activ --     0.0000                 0.0000                 0.0000
 Depolar     --     0.0000                 0.0000                 0.0000
 Atom AN      X      Y      Z        X      Y      Z        X      Y      Z
   1   6    -0.34  -0.21  -0.05    -0.05   0.01   0.24    -0.13   0.21  -0.03
   2  16    -0.01   0.00  -0.02    -0.00  -0.00   0.01    -0.00   0.01  -0.00
   3   1     0.46   0.23  -0.09    -0.29  -0.05   0.05     0.31  -0.63   0.19
   4   1     0.47   0.15   0.18     0.42  -0.28  -0.34    -0.02  -0.30  -0.40
   5   1     0.34   0.39   0.11     0.05   0.28  -0.62     0.17   0.13   0.34
   6   6    -0.01   0.00   0.01    -0.02   0.01  -0.01    -0.01  -0.00  -0.00
   7   1     0.01  -0.01  -0.01     0.03   0.00  -0.00     0.02  -0.00  -0.00
   8   8     0.00  -0.01   0.01    -0.00  -0.00  -0.00     0.00  -0.00   0.00
   9   1    -0.01   0.01   0.00     0.02  -0.02   0.02     0.00  -0.00   0.01
                     16                     17                     18
                        a                      a                      a 
 Frequencies --  1495.3682              2636.3815              2689.4445
 Red. masses --     2.0619                 1.9618                 1.4583
 Frc consts  --     0.0000                 0.0000                 0.0000
 IR Inten    --    87.6606               761.6676               558.3839
 Raman Activ --     0.0000                 0.0000                 0.0000
 Depolar     --     0.0000                 0.0000                 0.0000
 Atom AN      X      Y      Z        X      Y      Z        X      Y      Z
   1   6     0.01  -0.00   0.00    -0.01   0.01  -0.00    -0.01   0.00   0.00
   2  16    -0.00   0.03   0.03    -0.00  -0.01   0.01     0.00  -0.01  -0.01
   3   1    -0.02  -0.02   0.01     0.00  -0.00   0.00     0.00   0.00   0.00
   4   1     0.02  -0.02  -0.02     0.00  -0.00   0.00    -0.00   0.00  -0.00
   5   1     0.02   0.03  -0.02     0.00  -0.01  -0.00     0.00  -0.01  -0.00
   6   6     0.27  -0.12   0.06    -0.15  -0.19   0.17    -0.16   0.07  -0.11
   7   1    -0.66  -0.09   0.06    -0.13   0.33  -0.43     0.09  -0.50   0.60
   8   8     0.00  -0.01  -0.00     0.00  -0.00  -0.00    -0.00   0.01  -0.00
   9   1    -0.35   0.41  -0.40     0.67   0.35  -0.18     0.46   0.29  -0.19
                     19                     20                     21
                        a                      a                      a 
 Frequencies --  3043.9753              3062.6560              3077.8008
 Red. masses --     1.2595                 1.9861                 1.9379
 Frc consts  --     0.0000                 0.0000                 0.0000
 IR Inten    --     9.8233                17.5190                20.9730
 Raman Activ --     0.0000                 0.0000                 0.0000
 Depolar     --     0.0000                 0.0000                 0.0000
 Atom AN      X      Y      Z        X      Y      Z        X      Y      Z
   1   6     0.14  -0.03   0.04     0.11  -0.17  -0.21    -0.05   0.20  -0.20
   2  16     0.00   0.00   0.00    -0.00  -0.00  -0.00    -0.00   0.00  -0.00
   3   1     0.01  -0.16  -0.51     0.02   0.21   0.74    -0.00   0.10   0.22
   4   1     0.03  -0.25   0.20     0.01   0.05  -0.09     0.03  -0.71   0.57
   5   1    -0.57   0.49   0.17    -0.43   0.35   0.10     0.14  -0.10  -0.07
   6   6    -0.00  -0.00  -0.00    -0.00   0.00   0.00     0.00   0.00  -0.00
   7   1    -0.00  -0.00   0.00     0.00  -0.00   0.00     0.00  -0.00   0.00
   8   8     0.00   0.00  -0.00    -0.00   0.00   0.00     0.00  -0.00   0.00
   9   1     0.01   0.01  -0.00     0.01   0.00  -0.00    -0.00  -0.00   0.00
