      -----------------------------------------------------------      
     |                   =====================                   |     
     |                           x T B                           |     
     |                   =====================                   |     
     |                         S. Grimme                         |     
     |          Mulliken Center for Theoretical Chemistry        |     
     |                    University of Bonn                     |     
      -----------------------------------------------------------      

   * xtb version 6.7.1 (edcfbbe) compiled by 'albert@albert-system' on 2024-07-22

   xtb is free software: you can redistribute it and/or modify it under
   the terms of the GNU Lesser General Public License as published by
   the Free Software Foundation, either version 3 of the License, or
   (at your option) any later version.
   
   xtb is distributed in the hope that it will be useful,
   but WITHOUT ANY WARRANTY; without even the implied warranty of
   MERCHANTABILITY or FITNESS FOR A PARTICULAR PURPOSE.  See the
   GNU Lesser General Public License for more details.
   
   Cite this work as:
   * C. Bannwarth, E. Caldeweyher, S. Ehlert, A. Hansen, P. Pracht,
     J. Seibert, S. Spicher, S. Grimme, WIREs Comput. Mol. Sci., 2020, 11,
     e01493. DOI: 10.1002/wcms.1493
   
   for GFN2-xTB:
   * C. Bannwarth, S. Ehlert and S. Grimme., J. Chem. Theory Comput., 2019,
     15, 1652-1671. DOI: 10.1021/acs.jctc.8b01176
   for GFN1-xTB:
   * S. Grimme, C. Bannwarth, P. Shushkov, J. Chem. Theory Comput., 2017,
     13, 1989-2009. DOI: 10.1021/acs.jctc.7b00118
   for GFN0-xTB:
   * P. Pracht, E. Caldeweyher, S. Ehlert, S. Grimme, ChemRxiv, 2019, preprint.
     DOI: 10.26434/chemrxiv.8326202.v1
   for GFN-FF:
   * S. Spicher and S. Grimme, Angew. Chem. Int. Ed., 2020, 59, 15665-15673.
     DOI: 10.1002/anie.202004239
   
   for ALPB and GBSA implicit solvation:
   * S. Ehlert, M. Stahn, S. Spicher, S. Grimme, J. Chem. Theory Comput.,
     2021, 17, 4250-4261. DOI: 10.1021/acs.jctc.1c00471
   
   for ddCOSMO and CPCM-X implicit solvation:
   * M. Stahn, S. Ehlert, S. Grimme, J. Phys. Chem. A,
     2023, XX, XXXX-XXXX. DOI: 10.1021/acs.jpca.3c04382
   
   for DFT-D4:
   * E. Caldeweyher, C. Bannwarth and S. Grimme, J. Chem. Phys., 2017,
     147, 034112. DOI: 10.1063/1.4993215
   * E. Caldeweyher, S. Ehlert, A. Hansen, H. Neugebauer, S. Spicher,
     C. Bannwarth and S. Grimme, J. Chem. Phys., 2019, 150, 154122.
     DOI: 10.1063/1.5090222
   * E. Caldeweyher, J.-M. Mewes, S. Ehlert and S. Grimme, Phys. Chem. Chem. Phys.
     2020, 22, 8499-8512. DOI: 10.1039/D0CP00502A
   
   for sTDA-xTB:
   * S. Grimme and C. Bannwarth, J. Chem. Phys., 2016, 145, 054103.
     DOI: 10.1063/1.4959605
   
   in the mass-spec context:
   * V. Asgeirsson, C. Bauer and S. Grimme, Chem. Sci., 2017, 8, 4879.
     DOI: 10.1039/c7sc00601b
   * J. Koopman and S. Grimme, ACS Omega 2019, 4, 12, 15120-15133.
     DOI: 10.1021/acsomega.9b02011
   
   for metadynamics refer to:
   * S. Grimme, J. Chem. Theory Comput., 2019, 155, 2847-2862
     DOI: 10.1021/acs.jctc.9b00143
   
   for SPH calculations refer to:
   * S. Spicher and S. Grimme, J. Chem. Theory Comput., 2021, 17, 1701-1714
     DOI: 10.1021/acs.jctc.0c01306
   
   for ONIOM refer to:
   * C. Plett, A. Katbashev, S. Ehlert, S. Grimme, M. Bursch,
     Phys. Chem. Chem. Phys., 2023, 25, 17860-17868. DOI: 10.1039/D3CP02178E
   
   for DIPRO refer to:
   * J. Kohn, N. Gildemeister, S. Grimme, D. Fazzi, A. Hansen,
     J. Chem. Phys., 2023, just accepted.
   
   for PTB refer to:
   * S. Grimme, M. Mueller, A. Hansen, J. Chem. Phys., 2023, 158, 124111.
     DOI: 10.1063/5.0137838
   
   with help from (in alphabetical order)
   P. Atkinson, C. Bannwarth, F. Bohle, G. Brandenburg, E. Caldeweyher
   M. Checinski, S. Dohm, S. Ehlert, S. Ehrlich, I. Gerasimov, C. Hölzer
   A. Katbashev, J. Kohn, J. Koopman, C. Lavigne, S. Lehtola, F. März, M. Müller,
   F. Musil, H. Neugebauer, J. Pisarek, C. Plett, P. Pracht, F. Pultar,
   J. Seibert, P. Shushkov, S. Spicher, M. Stahn, M. Steiner, T. Strunk,
   J. Stückrath, T. Rose, and J. Unsleber
   
 * started run on 2025/10/18 at 18:46:12.101     
   ID    Z sym.   atoms
    1    6 C      1, 6
    2   16 S      2
    3    1 H      3-5, 7, 9
    4    8 O      8

           -------------------------------------------------
          |                Calculation Setup                |
           -------------------------------------------------

          program call               : xtb xyz.xyz --alpb water --charge -1 --ohess
          hostname                   : m003
          coordinate file            : xyz.xyz
          omp threads                :                     2


           -------------------------------------------------
          |                 G F N 2 - x T B                 |
           -------------------------------------------------

        Reference                      10.1021/acs.jctc.8b01176
      * Hamiltonian:
        H0-scaling (s, p, d)           1.850000    2.230000    2.230000
        zeta-weighting                 0.500000
      * Dispersion:
        s8                             2.700000
        a1                             0.520000
        a2                             5.000000
        s9                             5.000000
      * Repulsion:
        kExp                           1.500000    1.000000
        rExp                           1.000000
      * Coulomb:
        alpha                          2.000000
        third order                    shell-resolved
        anisotropic                    true
        a3                             3.000000
        a5                             4.000000
        cn-shift                       1.200000
        cn-exp                         4.000000
        max-rad                        5.000000

      * Solvation model:               ALPB
        Solvent                        water
        Parameter file                 internal GFN2-xTB/ALPB
        Dielectric constant                8.0200E+01
        Reference state                gsolv [1 M gas/solution]
        Free energy shift                  1.0808E-03 Eh       6.7819E-01 kcal/mol
        Temperature                        2.9815E+02 K
        Density                            1.0000E+00 kg/L
        Solvent mass                       1.8000E+01 g/mol
        Interaction kernel             P16
        Born radius scaling (c1)           1.4744E+00
        Born radii integrator          GBOBC
        Born offset                        0.0000E+00 a0       0.0000E+00 AA
        H-bond correction              true
        Ion screening                  false
        Surface tension                    1.0000E-05 Eh       1.5569E+01 dyn/cm
        Grid points                               230 per atom

          ...................................................
          :                      SETUP                      :
          :.................................................:
          :  # basis functions                  27          :
          :  # atomic orbitals                  26          :
          :  # shells                           14          :
          :  # electrons                        26          :
          :  max. iterations                   250          :
          :  Hamiltonian                  GFN2-xTB          :
          :  restarted?                      false          :
          :  GBSA solvation                   true          :
          :  PC potential                    false          :
          :  electronic temp.          300.0000000     K    :
          :  accuracy                    1.0000000          :
          :  -> integral cutoff          0.2500000E+02      :
          :  -> integral neglect         0.1000000E-07      :
          :  -> SCF convergence          0.1000000E-05 Eh   :
          :  -> wf. convergence          0.1000000E-03 e    :
          :  Broyden damping             0.4000000          :
          :  net charge                         -1          :
          :  unpaired electrons                  0          :
          ...................................................

 iter      E             dE          RMSdq      gap      omega  full diag
   1    -14.4210226 -0.144210E+02  0.613E+00    3.98       0.0  T
   2    -14.4654388 -0.444162E-01  0.350E+00    3.28       1.0  T
   3    -14.4679304 -0.249164E-02  0.142E+00    3.34       1.0  T
   4    -14.4692633 -0.133292E-02  0.544E-01    3.15       1.0  T
   5    -14.4693487 -0.854346E-04  0.274E-01    3.21       1.0  T
   6    -14.4694044 -0.556828E-04  0.111E-01    3.21       1.0  T
   7    -14.4694169 -0.124199E-04  0.412E-02    3.23       1.0  T
   8    -14.4694186 -0.175910E-05  0.119E-02    3.23       2.8  T
   9    -14.4694187 -0.127457E-06  0.496E-03    3.23       6.7  T
  10    -14.4694188 -0.393591E-07  0.151E-03    3.23      22.0  T
  11    -14.4694188 -0.396168E-08  0.490E-04    3.23      68.0  T
  12    -14.4694188 -0.306763E-09  0.175E-04    3.23     190.9  T

   *** convergence criteria satisfied after 12 iterations ***

         #    Occupation            Energy/Eh            Energy/eV
      -------------------------------------------------------------
         1        2.0000           -0.7044396             -19.1688
       ...           ...                  ...                  ...
         7        2.0000           -0.4770764             -12.9819
         8        2.0000           -0.4546766             -12.3724
         9        2.0000           -0.4525963             -12.3158
        10        2.0000           -0.4233959             -11.5212
        11        2.0000           -0.3832720             -10.4294
        12        2.0000           -0.3546019              -9.6492
        13        2.0000           -0.2586725              -7.0388 (HOMO)
        14                         -0.1400203              -3.8101 (LUMO)
        15                         -0.1077054              -2.9308
        16                         -0.0137531              -0.3742
        17                          0.0729909               1.9862
        18                          0.1053874               2.8677
       ...                                ...                  ...
        26                          0.9714236              26.4338
      -------------------------------------------------------------
                  HL-Gap            0.1186522 Eh            3.2287 eV
             Fermi-level           -0.1993464 Eh           -5.4245 eV

 SCC (total)                   0 d,  0 h,  0 min,  0.031 sec
 SCC setup                      ...        0 min,  0.000 sec (  1.129%)
 Dispersion                     ...        0 min,  0.000 sec (  0.304%)
 classical contributions        ...        0 min,  0.000 sec (  0.125%)
 integral evaluation            ...        0 min,  0.025 sec ( 79.995%)
 iterations                     ...        0 min,  0.005 sec ( 14.553%)
 molecular gradient             ...        0 min,  0.001 sec (  3.516%)
 printout                       ...        0 min,  0.000 sec (  0.263%)

         :::::::::::::::::::::::::::::::::::::::::::::::::::::
         ::                     SUMMARY                     ::
         :::::::::::::::::::::::::::::::::::::::::::::::::::::
         :: total energy             -14.340944960884 Eh    ::
         :: total w/o Gsasa/hb       -14.342106834160 Eh    ::
         :: gradient norm              0.091891481550 Eh/a0 ::
         :: HOMO-LUMO gap              3.228690042747 eV    ::
         ::.................................................::
         :: SCC energy               -14.469416865590 Eh    ::
         :: -> isotropic ES            0.187864727483 Eh    ::
         :: -> anisotropic ES         -0.003726345809 Eh    ::
         :: -> anisotropic XC          0.004860785815 Eh    ::
         :: -> dispersion             -0.005842428176 Eh    ::
         :: -> Gsolv                  -0.109211461092 Eh    ::
         ::    -> Gelec               -0.110373334368 Eh    ::
         ::    -> Gsasa                0.002619975841 Eh    ::
         ::    -> Ghb                 -0.002538862263 Eh    ::
         ::    -> Gshift               0.001080759698 Eh    ::
         :: repulsion energy           0.128471904705 Eh    ::
         :: add. restraining           0.000000000000 Eh    ::
         :: total charge              -1.000000000000 e     ::
         :::::::::::::::::::::::::::::::::::::::::::::::::::::

      ----------------------------------------------------------- 
     |                   =====================                   |
     |                        A N C O P T                        |
     |                   =====================                   |
     |               Approximate Normal Coordinate               |
     |                Rational Function Optimizer                |
      ----------------------------------------------------------- 
      ----------------------------------------------------------- 
     |                   =====================                   |
     |                        A N C O P T                        |
     |                   =====================                   |
     |               Approximate Normal Coordinate               |
     |                Rational Function Optimizer                |
      ----------------------------------------------------------- 

          ...................................................
          :                      SETUP                      :
          :.................................................:
          :   optimization level            normal          :
          :   max. optcycles                   200          :
          :   ANC micro-cycles                  20          :
          :   degrees of freedom                21          :
          :.................................................:
          :   RF solver                   davidson          :
          :   write xtbopt.log                true          :
          :   linear?                        false          :
          :   energy convergence         0.5000000E-05 Eh   :
          :   grad. convergence          0.1000000E-02 Eh/α :
          :   maxmium RF displ.          1.0000000          :
          :   Hlow (freq-cutoff)         0.1000000E-01      :
          :   Hmax (freq-cutoff)         5.0000000          :
          :   S6 in model hess.         20.0000000          :
          ...................................................

generating ANC from exact Hessian ...
Using Lindh-Hessian (1995)
 Shifting diagonal of input Hessian by   2.142022553141927E-003
 Lowest  eigenvalues of input Hessian
    0.000000    0.000000    0.000000    0.000000    0.000000    0.000000
    0.010000    0.013135    0.016399    0.039478    0.043441    0.061053
    0.070798    0.084044    0.136084    0.138908    0.145343    0.169144
 Highest eigenvalues
    0.893294    1.131264    1.153747    1.197519    1.360340    2.537230
 

........................................................................
.............................. CYCLE    1 ..............................
........................................................................

 iter      E             dE          RMSdq      gap      omega  full diag
   1    -14.4694188 -0.144694E+02  0.374E-05    3.23       0.0  T
   2    -14.4694188 -0.123812E-11  0.258E-05    3.23    1292.5  T
   3    -14.4694188 -0.417444E-12  0.151E-05    3.23    2211.7  T
     SCC iter.                  ...        0 min,  0.001 sec
     gradient                   ...        0 min,  0.001 sec
 * total energy  :   -14.3409450 Eh     change       -0.2319211E-10 Eh
   gradient norm :     0.0918924 Eh/α   predicted     0.0000000E+00 (-100.00%)
   displ. norm   :     0.3073151 α      lambda       -0.1189446E-01
   maximum displ.:     0.2045859 α      in ANC's #8, #7, #3, ...

........................................................................
.............................. CYCLE    2 ..............................
........................................................................

 iter      E             dE          RMSdq      gap      omega  full diag
   1    -14.4706689 -0.144707E+02  0.768E-01    3.19       0.0  T
   2    -14.4709257 -0.256828E-03  0.449E-01    3.27       1.0  T
   3    -14.4709500 -0.243093E-04  0.157E-01    3.28       1.0  T
   4    -14.4709543 -0.434431E-05  0.442E-02    3.30       1.0  T
   5    -14.4709549 -0.545860E-06  0.191E-02    3.29       1.7  T
   6    -14.4709553 -0.455611E-06  0.812E-03    3.30       4.1  T
   7    -14.4709554 -0.481892E-07  0.495E-03    3.30       6.7  T
   8    -14.4709554 -0.255622E-07  0.169E-03    3.30      19.7  T
   9    -14.4709554 -0.361462E-09  0.912E-04    3.30      36.6  T
  10    -14.4709554 -0.265873E-08  0.184E-04    3.30     181.0  T
     SCC iter.                  ...        0 min,  0.002 sec
     gradient                   ...        0 min,  0.001 sec
 * total energy  :   -14.3508898 Eh     change       -0.9944816E-02 Eh
   gradient norm :     0.0518586 Eh/α   predicted    -0.6508890E-02 ( -34.55%)
   displ. norm   :     0.5017145 α      lambda       -0.1252564E-01
   maximum displ.:     0.3865218 α      in ANC's #8, #7, #1, ...

........................................................................
.............................. CYCLE    3 ..............................
........................................................................

 iter      E             dE          RMSdq      gap      omega  full diag
   1    -14.4456881 -0.144457E+02  0.136E+00    3.66       0.0  T
   2    -14.4465082 -0.820083E-03  0.807E-01    3.74       1.0  T
   3    -14.4466561 -0.147897E-03  0.280E-01    3.81       1.0  T
   4    -14.4466936 -0.374761E-04  0.132E-01    3.82       1.0  T
   5    -14.4466989 -0.529870E-05  0.464E-02    3.84       1.0  T
   6    -14.4467000 -0.112229E-05  0.204E-02    3.84       1.6  T
   7    -14.4467002 -0.138980E-06  0.664E-03    3.84       5.0  T
   8    -14.4467002 -0.493642E-07  0.331E-03    3.84      10.1  T
   9    -14.4467002 -0.157015E-07  0.142E-03    3.84      23.5  T
  10    -14.4467002 -0.579027E-08  0.622E-04    3.84      53.6  T
  11    -14.4467002 -0.134103E-08  0.248E-04    3.84     134.5  T
     SCC iter.                  ...        0 min,  0.002 sec
     gradient                   ...        0 min,  0.001 sec
 * total energy  :   -14.3498925 Eh     change        0.9972330E-03 Eh
   gradient norm :     0.0612148 Eh/α   predicted    -0.7839298E-02 (-886.11%)
   displ. norm   :     0.2718448 α      lambda       -0.1151338E-01
   maximum displ.:     0.2184867 α      in ANC's #8, #7, #1, ...

........................................................................
.............................. CYCLE    4 ..............................
........................................................................

 iter      E             dE          RMSdq      gap      omega  full diag
   1    -14.4647192 -0.144647E+02  0.785E-01    3.62       0.0  T
   2    -14.4649951 -0.275960E-03  0.475E-01    3.52       1.0  T
   3    -14.4650435 -0.484313E-04  0.198E-01    3.54       1.0  T
   4    -14.4650734 -0.298530E-04  0.860E-02    3.51       1.0  T
   5    -14.4650752 -0.182535E-05  0.259E-02    3.50       1.3  T
   6    -14.4650757 -0.459191E-06  0.120E-02    3.50       2.8  T
   7    -14.4650758 -0.782447E-07  0.351E-03    3.50       9.5  T
   8    -14.4650758 -0.244983E-07  0.205E-03    3.50      16.2  T
   9    -14.4650758 -0.737213E-08  0.325E-04    3.50     102.5  T
  10    -14.4650758 -0.847304E-10  0.112E-04    3.50     296.5  T
     SCC iter.                  ...        0 min,  0.002 sec
     gradient                   ...        0 min,  0.001 sec
 * total energy  :   -14.3550682 Eh     change       -0.5175704E-02 Eh
   gradient norm :     0.0206999 Eh/α   predicted    -0.6182114E-02 (  19.44%)
   displ. norm   :     0.0675260 α      lambda       -0.4790954E-03
   maximum displ.:     0.0454598 α      in ANC's #1, #4, #8, ...

........................................................................
.............................. CYCLE    5 ..............................
........................................................................

 iter      E             dE          RMSdq      gap      omega  full diag
   1    -14.4645408 -0.144645E+02  0.138E-01    3.52       0.0  T
   2    -14.4645572 -0.164199E-04  0.796E-02    3.51       1.0  T
   3    -14.4645584 -0.120841E-05  0.319E-02    3.52       1.0  T
   4    -14.4645591 -0.696753E-06  0.138E-02    3.51       2.4  T
   5    -14.4645592 -0.476831E-07  0.623E-03    3.52       5.3  T
   6    -14.4645592 -0.252745E-07  0.268E-03    3.52      12.4  T
   7    -14.4645592 -0.427712E-08  0.844E-04    3.52      39.5  T
   8    -14.4645592 -0.531085E-09  0.209E-04    3.52     159.2  T
     SCC iter.                  ...        0 min,  0.001 sec
     gradient                   ...        0 min,  0.001 sec
 * total energy  :   -14.3554130 Eh     change       -0.3447949E-03 Eh
   gradient norm :     0.0127360 Eh/α   predicted    -0.2406404E-03 ( -30.21%)
   displ. norm   :     0.1099548 α      lambda       -0.5521696E-03
   maximum displ.:     0.0651498 α      in ANC's #1, #2, #8, ...

........................................................................
.............................. CYCLE    6 ..............................
........................................................................

 iter      E             dE          RMSdq      gap      omega  full diag
   1    -14.4630895 -0.144631E+02  0.146E-01    3.61       0.0  T
   2    -14.4631233 -0.337702E-04  0.102E-01    3.60       1.0  T
   3    -14.4631261 -0.274209E-05  0.471E-02    3.61       1.0  T
   4    -14.4631269 -0.864577E-06  0.165E-02    3.60       2.0  T
   5    -14.4631270 -0.714728E-07  0.934E-03    3.61       3.6  T
   6    -14.4631270 -0.550160E-07  0.362E-03    3.61       9.2  T
   7    -14.4631271 -0.101718E-07  0.110E-03    3.61      30.3  T
   8    -14.4631271 -0.979455E-09  0.323E-04    3.61     103.2  T
   9    -14.4631271 -0.884981E-10  0.771E-05    3.61     432.3  T
     SCC iter.                  ...        0 min,  0.002 sec
     gradient                   ...        0 min,  0.001 sec
 * total energy  :   -14.3556475 Eh     change       -0.2344887E-03 Eh
   gradient norm :     0.0088699 Eh/α   predicted    -0.2794214E-03 (  19.16%)
   displ. norm   :     0.0455398 α      lambda       -0.1321174E-03
   maximum displ.:     0.0284224 α      in ANC's #3, #2, #5, ...

........................................................................
.............................. CYCLE    7 ..............................
........................................................................

 iter      E             dE          RMSdq      gap      omega  full diag
   1    -14.4636306 -0.144636E+02  0.603E-02    3.60       0.0  T
   2    -14.4636324 -0.180287E-05  0.338E-02    3.59       1.0  T
   3    -14.4636326 -0.194423E-06  0.166E-02    3.59       2.0  T
   4    -14.4636328 -0.156549E-06  0.515E-03    3.59       6.5  T
   5    -14.4636328 -0.156530E-07  0.218E-03    3.59      15.3  T
   6    -14.4636328 -0.391114E-08  0.118E-03    3.59      28.2  T
   7    -14.4636328 -0.136158E-08  0.237E-04    3.59     140.7  T
   8    -14.4636328 -0.409504E-10  0.852E-05    3.59     391.2  T
     SCC iter.                  ...        0 min,  0.001 sec
     gradient                   ...        0 min,  0.001 sec
 * total energy  :   -14.3557063 Eh     change       -0.5878232E-04 Eh
   gradient norm :     0.0035874 Eh/α   predicted    -0.6619788E-04 (  12.62%)
   displ. norm   :     0.0270338 α      lambda       -0.2788010E-04
   maximum displ.:     0.0163106 α      in ANC's #1, #3, #2, ...

........................................................................
.............................. CYCLE    8 ..............................
........................................................................

 iter      E             dE          RMSdq      gap      omega  full diag
   1    -14.4637291 -0.144637E+02  0.336E-02    3.59       0.0  T
   2    -14.4637295 -0.310013E-06  0.182E-02    3.59       1.8  T
   3    -14.4637295 -0.251641E-07  0.564E-03    3.59       5.9  T
   4    -14.4637295 -0.595288E-08  0.195E-03    3.59      17.1  T
   5    -14.4637295 -0.502077E-09  0.405E-04    3.59      82.2  T
   6    -14.4637295 -0.171161E-09  0.244E-04    3.59     136.7  T
     SCC iter.                  ...        0 min,  0.001 sec
     gradient                   ...        0 min,  0.001 sec
 * total energy  :   -14.3557249 Eh     change       -0.1858993E-04 Eh
   gradient norm :     0.0023953 Eh/α   predicted    -0.1394982E-04 ( -24.96%)
   displ. norm   :     0.0227561 α      lambda       -0.1350189E-04
   maximum displ.:     0.0151082 α      in ANC's #3, #1, #2, ...

........................................................................
.............................. CYCLE    9 ..............................
........................................................................

 iter      E             dE          RMSdq      gap      omega  full diag
   1    -14.4636439 -0.144636E+02  0.268E-02    3.60       0.0  T
   2    -14.4636442 -0.243406E-06  0.143E-02    3.60       2.3  T
   3    -14.4636442 -0.183292E-07  0.514E-03    3.60       6.5  T
   4    -14.4636442 -0.110188E-07  0.172E-03    3.60      19.4  T
   5    -14.4636442 -0.122110E-08  0.576E-04    3.60      57.8  T
   6    -14.4636442 -0.225237E-09  0.255E-04    3.60     130.7  T
     SCC iter.                  ...        0 min,  0.001 sec
     gradient                   ...        0 min,  0.001 sec
 * total energy  :   -14.3557343 Eh     change       -0.9384727E-05 Eh
   gradient norm :     0.0018303 Eh/α   predicted    -0.6753005E-05 ( -28.04%)
   displ. norm   :     0.0351712 α      lambda       -0.9471840E-05
   maximum displ.:     0.0313213 α      in ANC's #3, #1, #2, ...

........................................................................
.............................. CYCLE   10 ..............................
........................................................................

 iter      E             dE          RMSdq      gap      omega  full diag
   1    -14.4636254 -0.144636E+02  0.399E-02    3.62       0.0  T
   2    -14.4636259 -0.503763E-06  0.216E-02    3.61       1.5  T
   3    -14.4636259 -0.432496E-07  0.773E-03    3.62       4.3  T
   4    -14.4636260 -0.296598E-07  0.277E-03    3.61      12.0  T
   5    -14.4636260 -0.294257E-08  0.854E-04    3.61      39.0  T
   6    -14.4636260 -0.479842E-09  0.341E-04    3.61      97.8  T
     SCC iter.                  ...        0 min,  0.001 sec
     gradient                   ...        0 min,  0.001 sec
 * total energy  :   -14.3557434 Eh     change       -0.9126423E-05 Eh
   gradient norm :     0.0022059 Eh/α   predicted    -0.4736982E-05 ( -48.10%)
   displ. norm   :     0.0266963 α      lambda       -0.9110168E-05
   maximum displ.:     0.0249942 α      in ANC's #3, #4, #19, ...

........................................................................
.............................. CYCLE   11 ..............................
........................................................................

 iter      E             dE          RMSdq      gap      omega  full diag
   1    -14.4636860 -0.144637E+02  0.235E-02    3.62       0.0  T
   2    -14.4636861 -0.675443E-07  0.135E-02    3.62       2.5  T
   3    -14.4636861 -0.126492E-07  0.318E-03    3.62      10.5  T
   4    -14.4636861 -0.641314E-08  0.146E-03    3.62      22.9  T
   5    -14.4636861 -0.812426E-09  0.389E-04    3.62      85.7  T
   6    -14.4636861 -0.101288E-09  0.207E-04    3.62     160.7  T
     SCC iter.                  ...        0 min,  0.001 sec
     gradient                   ...        0 min,  0.001 sec
 * total energy  :   -14.3557516 Eh     change       -0.8185904E-05 Eh
   gradient norm :     0.0024938 Eh/α   predicted    -0.4558298E-05 ( -44.32%)
   displ. norm   :     0.1412683 α      lambda       -0.4320636E-04
   maximum displ.:     0.1331828 α      in ANC's #3, #4, #19, ...

........................................................................
.............................. CYCLE   12 ..............................
........................................................................

 iter      E             dE          RMSdq      gap      omega  full diag
   1    -14.4635314 -0.144635E+02  0.119E-01    3.64       0.0  T
   2    -14.4635325 -0.103175E-05  0.688E-02    3.64       1.0  T
   3    -14.4635329 -0.423340E-06  0.132E-02    3.64       2.5  T
   4    -14.4635329 -0.262995E-07  0.503E-03    3.64       6.6  T
   5    -14.4635329 -0.322510E-07  0.181E-03    3.64      18.4  T
   6    -14.4635330 -0.201531E-08  0.454E-04    3.64      73.5  T
   7    -14.4635330 -0.136556E-09  0.229E-04    3.64     145.4  T
     SCC iter.                  ...        0 min,  0.001 sec
     gradient                   ...        0 min,  0.001 sec
 * total energy  :   -14.3557767 Eh     change       -0.2511160E-04 Eh
   gradient norm :     0.0043102 Eh/α   predicted    -0.2203427E-04 ( -12.25%)
   displ. norm   :     0.0393122 α      lambda       -0.1472126E-04
   maximum displ.:     0.0366395 α      in ANC's #3, #4, #19, ...

........................................................................
.............................. CYCLE   13 ..............................
........................................................................

 iter      E             dE          RMSdq      gap      omega  full diag
   1    -14.4636421 -0.144636E+02  0.324E-02    3.64       0.0  T
   2    -14.4636423 -0.212627E-06  0.186E-02    3.64       1.8  T
   3    -14.4636424 -0.415548E-07  0.461E-03    3.64       7.2  T
   4    -14.4636424 -0.681280E-08  0.178E-03    3.64      18.7  T
   5    -14.4636424 -0.148228E-08  0.613E-04    3.64      54.3  T
   6    -14.4636424 -0.288860E-09  0.329E-04    3.64     101.5  T
     SCC iter.                  ...        0 min,  0.001 sec
     gradient                   ...        0 min,  0.001 sec
 * total energy  :   -14.3557889 Eh     change       -0.1217193E-04 Eh
   gradient norm :     0.0037146 Eh/α   predicted    -0.7372784E-05 ( -39.43%)
   displ. norm   :     0.0859301 α      lambda       -0.2947729E-04
   maximum displ.:     0.0802624 α      in ANC's #3, #4, #2, ...

........................................................................
.............................. CYCLE   14 ..............................
........................................................................

 iter      E             dE          RMSdq      gap      omega  full diag
   1    -14.4635776 -0.144636E+02  0.752E-02    3.63       0.0  T
   2    -14.4635799 -0.236297E-05  0.425E-02    3.63       1.0  T
   3    -14.4635801 -0.206273E-06  0.158E-02    3.63       2.1  T
   4    -14.4635802 -0.558249E-07  0.432E-03    3.63       7.7  T
   5    -14.4635802 -0.730521E-08  0.163E-03    3.63      20.4  T
   6    -14.4635802 -0.224808E-08  0.793E-04    3.63      42.0  T
   7    -14.4635802 -0.449612E-09  0.281E-04    3.63     118.7  T
     SCC iter.                  ...        0 min,  0.001 sec
     gradient                   ...        0 min,  0.001 sec
 * total energy  :   -14.3558067 Eh     change       -0.1786186E-04 Eh
   gradient norm :     0.0013976 Eh/α   predicted    -0.1484692E-04 ( -16.88%)
   displ. norm   :     0.0176150 α      lambda       -0.4516903E-05
   maximum displ.:     0.0120016 α      in ANC's #2, #3, #15, ...

........................................................................
.............................. CYCLE   15 ..............................
........................................................................

 iter      E             dE          RMSdq      gap      omega  full diag
   1    -14.4637341 -0.144637E+02  0.246E-02    3.63       0.0  T
   2    -14.4637345 -0.478885E-06  0.134E-02    3.63       2.5  T
   3    -14.4637346 -0.428581E-07  0.590E-03    3.63       5.6  T
   4    -14.4637346 -0.112841E-07  0.211E-03    3.63      15.8  T
   5    -14.4637346 -0.215276E-08  0.990E-04    3.63      33.7  T
   6    -14.4637346 -0.586674E-09  0.466E-04    3.63      71.6  T
     SCC iter.                  ...        0 min,  0.001 sec
     gradient                   ...        0 min,  0.001 sec
 * total energy  :   -14.3558095 Eh     change       -0.2706068E-05 Eh
   gradient norm :     0.0008034 Eh/α   predicted    -0.2258173E-05 ( -16.55%)
   displ. norm   :     0.0390413 α      lambda       -0.2504809E-05
   maximum displ.:     0.0334204 α      in ANC's #3, #2, #19, ...

   *** GEOMETRY OPTIMIZATION CONVERGED AFTER 15 ITERATIONS ***

------------------------------------------------------------------------
 total energy gain   :        -0.0148645 Eh       -9.3276 kcal/mol
 total RMSD          :         0.2185692 a0        0.1157 Å
 total power (kW/mol):        -2.6017812 (step) -835.1739 (real)
------------------------------------------------------------------------

 ANCopt (total)                0 d,  0 h,  0 min,  0.047 sec
 optimizer setup                ...        0 min,  0.000 sec (  0.856%)
 model hessian                  ...        0 min,  0.001 sec (  2.558%)
 ANC generation                 ...        0 min,  0.000 sec (  0.301%)
 coordinate transformation      ...        0 min,  0.000 sec (  0.202%)
 single point calculation       ...        0 min,  0.043 sec ( 91.947%)
 optimization log               ...        0 min,  0.001 sec (  1.409%)
 hessian update                 ...        0 min,  0.000 sec (  0.278%)
 rational function              ...        0 min,  0.001 sec (  1.296%)

================
 final structure:
================
9
 xtb: 6.7.1 (edcfbbe)
C           -4.07925901426070        0.63151413766892        0.11213180006269
S           -2.48357712854582        1.55556352899903        0.36728498956887
H           -4.10387527861636        0.30271868935337       -0.91997037074642
H           -4.05761359244384       -0.21345852761177        0.78785346517523
H           -4.90170672973096        1.29989823844267        0.33987525774882
C           -1.42811274291785        0.29720317666913       -0.27927461477690
H           -1.20892453096329       -0.33909050478356        0.60787064403410
O           -2.48712607264755        2.64487453591918       -0.70124990217708
H           -0.47500290987363        0.83304172534302       -0.49478326888932
 
 Bond Distances (Angstroems)
 ---------------------------
C1-S2=1.8615         C1-H3=1.0835         C1-H4=1.0821         C1-H5=1.0840         S2-C1=1.8615         S2-C6=1.7651         
S2-O8=1.5259         H3-C1=1.0835         H4-C1=1.0821         H5-C1=1.0840         C6-S2=1.7651         C6-H7=1.1135         
C6-H9=1.1144         H7-C6=1.1135         O8-S2=1.5259         H9-C6=1.1144         
 C  H  Rav=1.0955 sigma=0.0151  Rmin=1.0821  Rmax=1.1144     5
 S  C  Rav=1.8133 sigma=0.0482  Rmin=1.7651  Rmax=1.8615     2
 S  O  Rav=1.5259 sigma=0.0000  Rmin=1.5259  Rmax=1.5259     1
 
 selected bond angles (degree)
 --------------------
H3-C1-S2=107.50                H4-C1-S2=106.55                H4-C1-H3=111.00                H5-C1-S2=108.39                
H5-C1-H3=111.72                H5-C1-H4=111.43                C6-S2-C1= 96.23                O8-S2-C1=104.86                
O8-S2-C6=104.70                H7-C6-S2=103.49                H9-C6-S2=103.85                H9-C6-H7=105.10                
 
 selected dihedral angles (degree)
 ---------------------------------
C6-S2-C1-H3=308.05            C6-S2-C1-H4= 67.10            C6-S2-C1-H5=187.14            O8-S2-C1-H3= 55.09            
O8-S2-C1-H4=174.14            O8-S2-C1-H5=294.18            H7-C6-S2-C1=271.84            H7-C6-S2-O8=164.66            
H9-C6-S2-C1=162.26            H9-C6-S2-O8= 55.09            
           -------------------------------------------------
          |                Final Singlepoint                |
           -------------------------------------------------

          ...................................................
          :                      SETUP                      :
          :.................................................:
          :  # basis functions                  27          :
          :  # atomic orbitals                  26          :
          :  # shells                           14          :
          :  # electrons                        26          :
          :  max. iterations                   250          :
          :  Hamiltonian                  GFN2-xTB          :
          :  restarted?                      false          :
          :  GBSA solvation                   true          :
          :  PC potential                    false          :
          :  electronic temp.          300.0000000     K    :
          :  accuracy                    1.0000000          :
          :  -> integral cutoff          0.2500000E+02      :
          :  -> integral neglect         0.1000000E-07      :
          :  -> SCF convergence          0.1000000E-05 Eh   :
          :  -> wf. convergence          0.1000000E-03 e    :
          :  Broyden damping             0.4000000          :
          :  net charge                         -1          :
          :  unpaired electrons                  0          :
          ...................................................

 iter      E             dE          RMSdq      gap      omega  full diag
   1    -14.4637346 -0.144637E+02  0.176E-04    3.63       0.0  T
   2    -14.4637346 -0.125180E-10  0.120E-04    3.63     276.7  T
   3    -14.4637346 -0.113030E-10  0.559E-05    3.63     596.4  T

   *** convergence criteria satisfied after 3 iterations ***

         #    Occupation            Energy/Eh            Energy/eV
      -------------------------------------------------------------
         1        2.0000           -0.7063866             -19.2218
       ...           ...                  ...                  ...
         7        2.0000           -0.4771803             -12.9847
         8        2.0000           -0.4514817             -12.2854
         9        2.0000           -0.4452965             -12.1171
        10        2.0000           -0.4191904             -11.4068
        11        2.0000           -0.3811236             -10.3709
        12        2.0000           -0.3620463              -9.8518
        13        2.0000           -0.2928707              -7.9694 (HOMO)
        14                         -0.1595493              -4.3416 (LUMO)
        15                         -0.1284284              -3.4947
        16                         -0.0118676              -0.3229
        17                          0.0444616               1.2099
        18                          0.0926086               2.5200
       ...                                ...                  ...
        26                          0.7792447              21.2043
      -------------------------------------------------------------
                  HL-Gap            0.1333215 Eh            3.6279 eV
             Fermi-level           -0.2262100 Eh           -6.1555 eV

 SCC (total)                   0 d,  0 h,  0 min,  0.002 sec
 SCC setup                      ...        0 min,  0.000 sec (  6.039%)
 Dispersion                     ...        0 min,  0.000 sec (  1.180%)
 classical contributions        ...        0 min,  0.000 sec (  0.357%)
 integral evaluation            ...        0 min,  0.001 sec ( 22.922%)
 iterations                     ...        0 min,  0.001 sec ( 24.924%)
 molecular gradient             ...        0 min,  0.001 sec ( 40.725%)
 printout                       ...        0 min,  0.000 sec (  2.727%)

         :::::::::::::::::::::::::::::::::::::::::::::::::::::
         ::                     SUMMARY                     ::
         :::::::::::::::::::::::::::::::::::::::::::::::::::::
         :: total energy             -14.355809452612 Eh    ::
         :: total w/o Gsasa/hb       -14.356040274964 Eh    ::
         :: gradient norm              0.000801800866 Eh/a0 ::
         :: HOMO-LUMO gap              3.627862400719 eV    ::
         ::.................................................::
         :: SCC energy               -14.463732804033 Eh    ::
         :: -> isotropic ES            0.198893391199 Eh    ::
         :: -> anisotropic ES         -0.008851394749 Eh    ::
         :: -> anisotropic XC          0.004966187420 Eh    ::
         :: -> dispersion             -0.005926468804 Eh    ::
         :: -> Gsolv                  -0.116369404560 Eh    ::
         ::    -> Gelec               -0.116600226912 Eh    ::
         ::    -> Gsasa                0.002555578138 Eh    ::
         ::    -> Ghb                 -0.003405515484 Eh    ::
         ::    -> Gshift               0.001080759698 Eh    ::
         :: repulsion energy           0.107923351421 Eh    ::
         :: add. restraining           0.000000000000 Eh    ::
         :: total charge              -1.000000000000 e     ::
         :::::::::::::::::::::::::::::::::::::::::::::::::::::

           ------------------------------------------------- 
          |                Numerical Hessian                |
           ------------------------------------------------- 
step length          :   0.00500
SCC accuracy         :   0.30000
Hessian scale factor :   1.00000
frozen atoms in %    :   0.00000    0
RMS gradient         :   0.00080
estimated CPU  time      0.01 min
estimated wall time      0.00 min

writing file <hessian>.

 projected vibrational frequencies (cm⁻¹)
eigval :       -0.00    -0.00    -0.00    -0.00     0.00     0.00
eigval :       98.19   162.60   277.99   313.36   375.84   625.25
eigval :      739.57   853.80   871.71   949.52   986.99  1062.03
eigval :     1247.04  1429.41  1433.49  1495.37  2636.38  2689.44
eigval :     3043.98  3062.66  3077.80
           -------------------------------------------------
          |                Property Printout                |
           -------------------------------------------------

    * Orbital Energies and Occupations

         #    Occupation            Energy/Eh            Energy/eV
      -------------------------------------------------------------
         1        2.0000           -0.7063865             -19.2218
         2        2.0000           -0.6228462             -16.9485
         3        2.0000           -0.5833503             -15.8738
         4        2.0000           -0.5306975             -14.4410
         5        2.0000           -0.4882467             -13.2859
         6        2.0000           -0.4831150             -13.1462
         7        2.0000           -0.4771803             -12.9847
         8        2.0000           -0.4514817             -12.2854
         9        2.0000           -0.4452963             -12.1171
        10        2.0000           -0.4191900             -11.4067
        11        2.0000           -0.3811235             -10.3709
        12        2.0000           -0.3620461              -9.8518
        13        2.0000           -0.2928705              -7.9694 (HOMO)
        14                         -0.1595493              -4.3416 (LUMO)
        15                         -0.1284281              -3.4947
        16                         -0.0118674              -0.3229
        17                          0.0444617               1.2099
        18                          0.0926087               2.5200
        19                          0.1067798               2.9056
        20                          0.1638672               4.4591
        21                          0.1888969               5.1401
        22                          0.2302773               6.2662
        23                          0.2531361               6.8882
        24                          0.2587405               7.0407
       ...                                ...                  ...
        26                          0.7792448              21.2043
      -------------------------------------------------------------
                  HL-Gap            0.1333212 Eh            3.6279 eV
             Fermi-level           -0.2262099 Eh           -6.1555 eV

     #   Z          covCN         q      C6AA      α(0)
     1   6 C        3.740    -0.108    22.645     6.790
     2  16 S        2.799     0.130   135.849    19.617
     3   1 H        0.925     0.059     2.213     2.326
     4   1 H        0.926     0.066     2.133     2.284
     5   1 H        0.925     0.059     2.206     2.323
     6   6 C        2.815    -0.251    34.803     9.666
     7   1 H        0.922    -0.121     6.348     3.940
     8   8 O        0.859    -0.692    28.490     7.156
     9   1 H        0.922    -0.142     7.304     4.226

 Mol. C6AA /au·bohr⁶  :       1382.098410
 Mol. C8AA /au·bohr⁸  :      38327.922157
 Mol. α(0) /au        :         58.328326


Wiberg/Mayer (AO) data.
largest (>0.10) Wiberg bond orders for each atom

 ---------------------------------------------------------------------------
     #   Z sym  total        # sym  WBO       # sym  WBO       # sym  WBO
 ---------------------------------------------------------------------------
     1   6 C    3.990 --     5 H    0.983     3 H    0.982     4 H    0.982
                             2 S    0.940
     2  16 S    3.771 --     8 O    1.606     6 C    1.170     1 C    0.940
     3   1 H    0.997 --     1 C    0.982
     4   1 H    0.996 --     1 C    0.982
     5   1 H    0.996 --     1 C    0.983
     6   6 C    3.183 --     2 S    1.170     7 H    0.959     9 H    0.951
     7   1 H    0.985 --     6 C    0.959
     8   8 O    1.736 --     2 S    1.606
     9   1 H    0.980 --     6 C    0.951
 ---------------------------------------------------------------------------

Topologies differ in total number of bonds
Writing topology from bond orders to xtbtopo.mol

molecular dipole:
                 x           y           z       tot (Debye)
 q only:        3.045      -3.340       1.145
   full:        3.344      -3.198       1.108      12.094
molecular quadrupole (traceless):
                xx          xy          yy          xz          yz          zz
 q only:       -0.127      21.674     -11.371      -7.543       7.785      11.498
  q+dip:       -1.278      21.611     -10.744      -6.283       6.333      12.022
   full:       -0.796      21.665     -10.542      -6.410       5.753      11.337

           -------------------------------------------------
          |                Geometry Summary                 |
           -------------------------------------------------

      molecular mass/u    :       77.1253679
   center of mass at/Å    :       -2.5988751       1.3646474      -0.0146030
  moments of inertia/u·Å² :        0.6724685E+02   0.7433214E+02   0.1175230E+03
rotational constants/cm⁻¹ :        0.2506829E+00   0.2267879E+00   0.1434412E+00

 * 4 selected distances

     #   Z          #   Z                                           value/Å
     1   6 C        3   1 H                                       1.0834886
     1   6 C        4   1 H                                       1.0821494 (min)
     1   6 C        5   1 H                                       1.0839856
     2  16 S        6   6 C                                       1.7650824 (max)

 * 2 distinct bonds (by element types)

   Z      Z             #   av. dist./Å        max./Å        min./Å
   1 H    6 C           3     1.0832079     1.0839856     1.0821494
   6 C   16 S           1     1.7650824     1.7650824     1.7650824

           -------------------------------------------------
          |               Frequency Printout                |
           -------------------------------------------------
 projected vibrational frequencies (cm⁻¹)
eigval :       -0.00    -0.00    -0.00    -0.00     0.00     0.00
eigval :       98.19   162.60   277.99   313.36   375.84   625.25
eigval :      739.57   853.80   871.71   949.52   986.99  1062.03
eigval :     1247.04  1429.41  1433.49  1495.37  2636.38  2689.44
eigval :     3043.98  3062.66  3077.80
 reduced masses (amu)
   1: 14.31   2: 17.74   3: 17.23   4: 15.20   5: 21.23   6: 11.93   7:  1.66   8:  2.60
   9: 10.93  10: 13.80  11: 16.99  12: 16.95  13: 15.49  14:  5.14  15:  5.34  16: 17.47
  17:  6.24  18:  4.22  19:  2.84  20:  1.70  21:  1.69  22:  2.06  23:  1.96  24:  1.46
  25:  1.26  26:  1.99  27:  1.94
 IR intensities (km·mol⁻¹)
   1:  4.85   2: 10.05   3:  3.19   4: 14.72   5: 13.58   6: 16.27   7:  2.31   8: 11.10
   9:  2.98  10: 22.30  11: 16.37  12:118.37  13: 92.78  14: 34.50  15: 25.54  16:375.44
  17: 50.09  18: 16.48  19:  0.65  20:  1.51  21:  2.16  22: 87.66  23:761.67  24:558.38
  25:  9.82  26: 17.52  27: 20.97
 Raman intensities (Ä⁴*amu⁻¹)
   1:  0.00   2:  0.00   3:  0.00   4:  0.00   5:  0.00   6:  0.00   7:  0.00   8:  0.00
   9:  0.00  10:  0.00  11:  0.00  12:  0.00  13:  0.00  14:  0.00  15:  0.00  16:  0.00
  17:  0.00  18:  0.00  19:  0.00  20:  0.00  21:  0.00  22:  0.00  23:  0.00  24:  0.00
  25:  0.00  26:  0.00  27:  0.00
 output can be read by thermo (or use thermo option).
 writing <g98.out> molden fake output.
 recommended (thermochemical) frequency scaling factor: 1.0
           -------------------------------------------------
          |             Thermodynamic Functions             |
           -------------------------------------------------

Refinement of some symmetry elements was terminated before convergence was reached.
Some symmetry elements may remain unidentified.
Molecule has no symmetry elements
It seems to be the C1 point group
c1  symmetry found (for desy threshold:  0.10E+00) used in thermo

          ...................................................
          :                      SETUP                      :
          :.................................................:
          :  # frequencies                          21      :
          :  # imaginary freq.                       0      :
          :  linear?                             false      :
          :  only rotor calc.                    false      :
          :  symmetry                               c1      :
          :  rotational number                       1      :
          :  scaling factor                  1.0000000      :
          :  rotor cutoff                   50.0000000 cm⁻¹ :
          :  imag. cutoff                  -20.0000000 cm⁻¹ :
          :.................................................:

    mode    ω/cm⁻¹     T·S(HO)/kcal·mol⁻¹    T·S(FR)/kcal·mol⁻¹   T·S(vib)
   ------------------------------------------------------------------------
       1     98.19    -1.04050 ( 93.70%)    -0.85603 (  6.30%)    -1.02888
       2    162.60    -0.75114 ( 99.11%)    -0.70685 (  0.89%)    -0.75075
       3    277.99    -0.46094 ( 99.90%)    -0.54812 (  0.10%)    -0.46104
   ------------------------------------------------------------------------

   temp. (K)  partition function   enthalpy   heat capacity  entropy
                                   cal/mol     cal/K/mol   cal/K/mol   J/K/mol
 298.15  VIB   11.6                 1919.334     13.080     11.275
         ROT  0.585E+05              888.752      2.981     24.796
         INT  0.681E+06             2808.086     16.061     36.071
         TR   0.655E+27             1481.254      4.968     38.926
         TOT                        4289.3400    21.0288    74.9971   313.7880

       T/K    H(0)-H(T)+PV         H(T)/Eh          T*S/Eh         G(T)/Eh
   ------------------------------------------------------------------------
    298.15    0.683550E-02    0.693311E-01    0.356336E-01    0.336976E-01
   ------------------------------------------------------------------------

         :::::::::::::::::::::::::::::::::::::::::::::::::::::
         ::                  THERMODYNAMIC                  ::
         :::::::::::::::::::::::::::::::::::::::::::::::::::::
         :: total free energy         -14.322111878803 Eh   ::
         ::.................................................::
         :: total energy              -14.355809453445 Eh   ::
         :: zero point energy           0.062495630337 Eh   ::
         :: G(RRHO) w/o ZPVE           -0.028798055695 Eh   ::
         :: G(RRHO) contrib.            0.033697574642 Eh   ::
         :::::::::::::::::::::::::::::::::::::::::::::::::::::

optimized geometry written to: xtbopt.xyz


           -------------------------------------------------
          | TOTAL ENERGY              -14.355809453445 Eh   |
          | TOTAL ENTHALPY            -14.286478324763 Eh   |
          | TOTAL FREE ENERGY         -14.322111878803 Eh   |
          | GRADIENT NORM               0.000801611743 Eh/α |
          | HOMO-LUMO GAP               3.627855282896 eV   |
           -------------------------------------------------

------------------------------------------------------------------------
 * finished run on 2025/10/18 at 18:46:12.732     
------------------------------------------------------------------------
 total:
 * wall-time:     0 d,  0 h,  0 min,  0.630 sec
 *  cpu-time:     0 d,  0 h,  0 min,  0.747 sec
 * ratio c/w:     1.185 speedup
 SCF:
 * wall-time:     0 d,  0 h,  0 min,  0.031 sec
 *  cpu-time:     0 d,  0 h,  0 min,  0.041 sec
 * ratio c/w:     1.314 speedup
 ANC optimizer:
 * wall-time:     0 d,  0 h,  0 min,  0.212 sec
 *  cpu-time:     0 d,  0 h,  0 min,  0.262 sec
 * ratio c/w:     1.237 speedup
 analytical hessian:
 * wall-time:     0 d,  0 h,  0 min,  0.129 sec
 *  cpu-time:     0 d,  0 h,  0 min,  0.221 sec
 * ratio c/w:     1.705 speedup

