9
 energy: -14.340944960908 gnorm: 0.091892404866 xtb: 6.7.1 (edcfbbe)
C           -4.07147569622633        0.62500281820578        0.09293813088579
S           -2.50869855331120        1.61500497499443        0.36258602042416
H           -4.10514880130866        0.31127557313334       -0.94370128956832
H           -4.04625726289005       -0.22554343411497        0.76236471114076
H           -4.90898344270034        1.27437793557862        0.32232901990621
C           -1.36243784230968        0.40494352046807       -0.08347065643396
H           -1.19800931582771       -0.37264447746726        0.63923888427485
O           -2.49836822195630        2.66896245657730       -0.64877884570040
H           -0.52581886346972        0.71088563262468       -0.68376797492909
9
 energy: -14.350889776858 gnorm: 0.051858595868 xtb: 6.7.1 (edcfbbe)
C           -4.08481917152455        0.63385385322552        0.08799460748827
S           -2.47840696492267        1.58026567897145        0.39140862800485
H           -4.11828610165368        0.31713375008472       -0.94906995407021
H           -4.05550932784890       -0.22100858200550        0.75010596269863
H           -4.92447807499439        1.28002356030519        0.32524354790218
C           -1.41114260348602        0.34603541469373       -0.15596819430350
H           -1.14309979061843       -0.31124572213798        0.67877781403459
O           -2.47381842982265        2.64212406626390       -0.64461981187237
H           -0.53563753512872        0.74508298059898       -0.66413459988244
9
 energy: -14.349892543882 gnorm: 0.061286613277 xtb: 6.7.1 (edcfbbe)
C           -4.10744113617096        0.63785128702645        0.09797734700485
S           -2.45631471746652        1.52448513030100        0.39715946220395
H           -4.11430000216235        0.33588471025360       -0.94282942055754
H           -4.08134254039744       -0.22696725855139        0.74847744875414
H           -4.93136459192706        1.29984684963174        0.33979475194023
C           -1.49449005380863        0.23348538769264       -0.29298645403528
H           -1.07707970190771       -0.23468941595633        0.71112698646627
O           -2.44501665004802        2.62073505660796       -0.65929273516507
H           -0.51784860611132        0.82163325299434       -0.57968938661156
9
 energy: -14.355068248050 gnorm: 0.020707482929 xtb: 6.7.1 (edcfbbe)
C           -4.09933477435463        0.63534069952938        0.09850877071441
S           -2.47425364631615        1.54860645102333        0.39443955433202
H           -4.10595425911283        0.32707063400309       -0.94026285332318
H           -4.07955777899693       -0.22394235794397        0.75561366418957
H           -4.92815133397080        1.29500805485100        0.32883670653860
C           -1.44013299236217        0.29166099103531       -0.21753622646806
H           -1.11148063229637       -0.28502868474423        0.67854853383762
O           -2.46086923032445        2.63007051233320       -0.66223471853102
H           -0.52546335226566        0.79347869991288       -0.61617543128996
9
 energy: -14.355413042988 gnorm: 0.012741891623 xtb: 6.7.1 (edcfbbe)
C           -4.09125789341975        0.63376427881010        0.10064136256752
S           -2.47758617865361        1.55157773569887        0.40001418666076
H           -4.08931212727615        0.32162950292014       -0.93686746210569
H           -4.07698800513756       -0.22206078951799        0.76209634379102
H           -4.91880009108149        1.29701791170092        0.32153990609630
C           -1.45031734250043        0.28312764749349       -0.22621226649692
H           -1.12170368173815       -0.28635978048295        0.67161405615218
O           -2.46314983734606        2.63492808551876       -0.66457527765282
H           -0.53608284284680        0.79864040785866       -0.60851284901235
9
 energy: -14.355647531727 gnorm: 0.008882881517 xtb: 6.7.1 (edcfbbe)
C           -4.09694796461025        0.63569458796146        0.10534600221886
S           -2.48629765179236        1.53425548927572        0.39251969876471
H           -4.09448298263493        0.32226890115421       -0.93093743672052
H           -4.09195721690982       -0.21825526378798        0.76894601335050
H           -4.91775932989176        1.30849377415114        0.32209351690975
C           -1.43791337484092        0.26836754054276       -0.24258504142795
H           -1.11113187282163       -0.29028934083765        0.65912936361395
O           -2.46770315615311        2.63161981686974       -0.67279380176345
H           -0.52100445034521        0.82010949467059       -0.58198031494586
9
 energy: -14.355706314042 gnorm: 0.003587562452 xtb: 6.7.1 (edcfbbe)
C           -4.09161450367538        0.63524677459103        0.10264812483254
S           -2.48742062238378        1.53602736689128        0.39583548925498
H           -4.09531644141592        0.32326109082692       -0.93446184757932
H           -4.09058636794976       -0.22044482041597        0.76456954472588
H           -4.91109257399577        1.30916270407266        0.32182865984080
C           -1.43738838347725        0.26778863264170       -0.24043044189352
H           -1.10822468507508       -0.28494509368492        0.66901394672911
O           -2.47076229848961        2.63357990170488       -0.66849120492149
H           -0.53279212353745        0.81258844337241       -0.59077427098898
9
 energy: -14.355724903972 gnorm: 0.002398377034 xtb: 6.7.1 (edcfbbe)
C           -4.09209664483458        0.63527212734505        0.10149014090116
S           -2.48683267852530        1.53487932914624        0.39338260226385
H           -4.10317684083386        0.32013454351648       -0.93495803279702
H           -4.09040732099118       -0.21889956953483        0.76557353796027
H           -4.91022934552285        1.31049659575540        0.32379798043421
C           -1.43350371027754        0.26891336079632       -0.24080389614486
H           -1.11108784324810       -0.28778864283401        0.66637665882284
O           -2.47070962446379        2.63226047918175       -0.66891610554546
H           -0.52715399130280        0.81699677662760       -0.58620488589500
9
 energy: -14.355734288699 gnorm: 0.001836531683 xtb: 6.7.1 (edcfbbe)
C           -4.09243067005071        0.63519014797841        0.10133575186016
S           -2.48655071759034        1.53370172427409        0.39034711293305
H           -4.10805756357655        0.31877573905492       -0.93495541020802
H           -4.09068170971102       -0.21839066897739        0.76657400927934
H           -4.90958774093254        1.31142883589234        0.32589558362631
C           -1.43040445522249        0.26901493270565       -0.24342712468562
H           -1.11418654801676       -0.28965507670542        0.66451992260531
O           -2.47095414282115        2.63140492177037       -0.66976917238251
H           -0.52234445207843        0.82079444400703       -0.58078267302803
9
 energy: -14.355743415122 gnorm: 0.002212397141 xtb: 6.7.1 (edcfbbe)
C           -4.09181225816382        0.63488474095362        0.10208547652906
S           -2.48612695395129        1.53435499115261        0.38616497672071
H           -4.11064565482196        0.31728860003907       -0.93388255385534
H           -4.08850589566941       -0.21782027598551        0.76866189527372
H           -4.90864809647474        1.31121777782665        0.32841526175936
C           -1.42824357470556        0.26975932805175       -0.24869630401885
H           -1.12290712418902       -0.29361528834721        0.66014125791489
O           -2.47209503946166        2.63133743476576       -0.67214510563563
H           -0.51621340256255        0.82485769154325       -0.57100690468791
9
 energy: -14.355751601026 gnorm: 0.002499117848 xtb: 6.7.1 (edcfbbe)
C           -4.09091039544704        0.63458766531119        0.10315270500323
S           -2.48589096233029        1.53647664406134        0.38405225803480
H           -4.10953118549611        0.31672910726309       -0.93257543642581
H           -4.08553049215247       -0.21769098370191        0.77012995914900
H           -4.90823552942630        1.31004679175729        0.32970356503014
C           -1.42844904235899        0.27127637094144       -0.25207135145265
H           -1.13055389607217       -0.29730833492185        0.65616861908056
O           -2.47337937803722        2.63221366534841       -0.67468246675211
H           -0.51271711867939        0.82593407394099       -0.56413985166717
9
 energy: -14.355776712626 gnorm: 0.004312972408 xtb: 6.7.1 (edcfbbe)
C           -4.08605519381704        0.63300311013345        0.10841975312542
S           -2.48472900474914        1.54742398438114        0.37349574850212
H           -4.10548762766064        0.31305522098534       -0.92607549977956
H           -4.07007226095868       -0.21695601290752        0.77772313997661
H           -4.90561742749039        1.30422248675608        0.33690460604501
C           -1.42912071482104        0.28067430876202       -0.26859018879519
H           -1.17067165364423       -0.31793052167043        0.63475137476773
O           -2.48026590691155        2.63710577417124       -0.68880238343777
H           -0.49317820994728        0.83166664938868       -0.52808855040438
9
 energy: -14.355788884554 gnorm: 0.003716023282 xtb: 6.7.1 (edcfbbe)
C           -4.08418380255007        0.63265686318434        0.10969619693469
S           -2.48458010673964        1.55076091339549        0.37142247357576
H           -4.10432731185278        0.31173228285944       -0.92449126823553
H           -4.06545635204805       -0.21664915212347        0.77966640651729
H           -4.90478050447371        1.30233395302710        0.33869109543849
C           -1.42900020093168        0.28498461012290       -0.27169468560665
H           -1.18186975235569       -0.32403155073930        0.62809190911222
O           -2.48267847675206        2.63909241541242       -0.69293998173017
H           -0.48832149229631        0.83138466486106       -0.51870414600611
9
 energy: -14.355806746415 gnorm: 0.001398098021 xtb: 6.7.1 (edcfbbe)
C           -4.08013996722228        0.63176601030094        0.11214503566480
S           -2.48404018138029        1.55635346410332        0.36721900436379
H           -4.10342103682080        0.30665751077215       -0.92087808973096
H           -4.05695914536816       -0.21513015605016        0.78509754187562
H           -4.90240280941869        1.29930322166820        0.34170768114623
C           -1.42875175946076        0.29447206830950       -0.27855171058515
H           -1.20572852971000       -0.33721325905384        0.61216349075306
O           -2.48704311016973        2.64352666453992       -0.70155440706064
H           -0.47671146044929        0.83252947540996       -0.49761054642675
9
 energy: -14.355809452483 gnorm: 0.000803370147 xtb: 6.7.1 (edcfbbe)
C           -4.07925901426070        0.63151413766892        0.11213180006269
S           -2.48357712854582        1.55556352899903        0.36728498956887
H           -4.10387527861636        0.30271868935337       -0.91997037074642
H           -4.05761359244384       -0.21345852761177        0.78785346517523
H           -4.90170672973096        1.29989823844267        0.33987525774882
C           -1.42811274291785        0.29720317666913       -0.27927461477690
H           -1.20892453096329       -0.33909050478356        0.60787064403410
O           -2.48712607264755        2.64487453591918       -0.70124990217708
H           -0.47500290987363        0.83304172534302       -0.49478326888932
