9
 energy: -14.355809452612 gnorm: 0.000801800866 xtb: 6.7.1 (edcfbbe)
C           -4.07925531616864        0.63153569231442        0.11214493716191
S           -2.48356770152470        1.55557717398129        0.36729094391517
H           -4.10387690481641        0.30273857155509       -0.91995657385606
H           -4.05761195989383       -0.21343590694413        0.78786800146804
H           -4.90169873699900        1.29992449688731        0.33989009918009
C           -1.42811216159405        0.29721016682439       -0.27927014843828
H           -1.20892418453663       -0.33908311394105        0.60787545579675
O           -2.48711467191408        2.64488633454141       -0.70124583664086
H           -0.47500027519697        0.83304334888908       -0.49478306474469
