9
 energy: -14.026748158532 gnorm: 0.000676828972 xtb: 6.7.1 (edcfbbe)
C           -4.07147569622633        0.62500281820578        0.09293813088579
S           -2.50869855331120        1.61500497499443        0.36258602042416
H           -4.10514880130866        0.31127557313334       -0.94370128956832
H           -4.04625726289005       -0.22554343411497        0.76236471114076
H           -4.90898344270034        1.27437793557862        0.32232901990621
C           -1.36243784230968        0.40494352046807       -0.08347065643396
H           -1.19800931582771       -0.37264447746726        0.63923888427485
O           -2.49836822195630        2.66896245657730       -0.64877884570040
H           -0.52581886346972        0.71088563262468       -0.68376797492909
