 Entering Gaussian System
 *********************************************
 Gaussian 98:
 frequency output generated by the xtb code
 *********************************************
                         Standard orientation:
 --------------------------------------------------------------------
  Center     Atomic     Atomic              Coordinates (Angstroms)
  Number     Number      Type              X           Y           Z
 --------------------------------------------------------------------
    1          6             0       -3.599351    0.776596   -0.000004
    2          6             0       -3.674915   -0.570075    0.000024
    3          1             0       -0.207930    1.160481   -0.000046
    4          8             0       -2.273903    2.737867   -0.000034
    5          6             0       -2.493645   -1.425042    0.000020
    6          1             0       -4.632725   -1.074249    0.000028
    7          6             0       -1.228955   -0.699121   -0.000045
    8          7             0       -2.562207   -2.696375   -0.000071
    9          6             0       -1.162408    0.648010   -0.000044
   10          1             0       -0.329347   -1.300885   -0.000042
   11          6             0       -2.340401    1.479098   -0.000026
   12          1             0       -4.494585    1.386686    0.000000
 --------------------------------------------------------------------
     1 basis functions        1 primitive gaussians
     1 alpha electrons        1 beta electrons
 
 Harmonic frequencies (cm**-1), IR intensities (km*mol⁻¹),
 Raman scattering activities (A**4/amu), Raman depolarization ratios,
 reduced masses (AMU), force constants (mDyne/A) and normal coordinates:
                      1                      2                      3
                        a                      a                      a 
 Frequencies --    90.9864               251.2885               301.9039
 Red. masses --    13.3491                11.6612                 9.7321
 Frc consts  --     0.0000                 0.0000                 0.0000
 IR Inten    --    32.2169                 0.0038                 0.0020
 Raman Activ --     0.0000                 0.0000                 0.0000
 Depolar     --     0.0000                 0.0000                 0.0000
 Atom AN      X      Y      Z        X      Y      Z        X      Y      Z
   1   6    -0.00   0.00  -0.25    -0.00  -0.00  -0.39    -0.00   0.00   0.43
   2   6    -0.00   0.00  -0.31    -0.00   0.00   0.32    -0.00   0.00  -0.45
   3   1    -0.00   0.00  -0.09    -0.00   0.00  -0.17     0.00  -0.00  -0.25
   4   8     0.00  -0.00   0.52     0.00  -0.00   0.37    -0.00  -0.00   0.01
   5   6     0.00   0.00  -0.04     0.00   0.00   0.34    -0.00   0.00   0.01
   6   1    -0.00   0.00  -0.12    -0.00   0.00   0.13    -0.00  -0.00  -0.20
   7   6    -0.00   0.00  -0.31     0.00   0.00   0.30     0.00  -0.00   0.46
   8   7     0.00  -0.00   0.61    -0.00   0.00  -0.30     0.00   0.00  -0.01
   9   6     0.00   0.00  -0.25     0.00  -0.00  -0.38     0.00  -0.00  -0.44
  10   1    -0.00   0.00  -0.12     0.00   0.00   0.13    -0.00  -0.00   0.21
  11   6     0.00   0.00   0.01    -0.00  -0.00  -0.26     0.00  -0.00  -0.01
  12   1    -0.00   0.00  -0.09    -0.00  -0.00  -0.18     0.00   0.00   0.25
                      4                      5                      6
                        a                      a                      a 
 Frequencies --   376.0062               435.6835               440.6158
 Red. masses --    13.6781                13.1822                11.5908
 Frc consts  --     0.0000                 0.0000                 0.0000
 IR Inten    --    55.0708                 0.3000                 1.1949
 Raman Activ --     0.0000                 0.0000                 0.0000
 Depolar     --     0.0000                 0.0000                 0.0000
 Atom AN      X      Y      Z        X      Y      Z        X      Y      Z
   1   6    -0.20   0.06  -0.00    -0.20  -0.01  -0.00    -0.35   0.02   0.00
   2   6    -0.26   0.01   0.00    -0.23   0.05   0.00     0.26  -0.03  -0.00
   3   1    -0.06  -0.01  -0.00     0.02   0.07   0.00    -0.15   0.12  -0.00
   4   8     0.51  -0.03  -0.00    -0.04  -0.48  -0.00     0.45  -0.04   0.00
   5   6    -0.20   0.01   0.00     0.01   0.42   0.00     0.31  -0.00  -0.00
   6   1    -0.09   0.03  -0.00    -0.02  -0.06   0.00     0.12  -0.11  -0.00
   7   6    -0.25   0.01  -0.00     0.22   0.02  -0.00     0.27   0.01   0.00
   8   7     0.67  -0.04  -0.00     0.03   0.47  -0.00    -0.29   0.03   0.00
   9   6    -0.20  -0.04   0.00     0.22  -0.04   0.00    -0.33   0.02  -0.00
  10   1    -0.09  -0.02  -0.00     0.01  -0.07  -0.00     0.14   0.09   0.00
  11   6    -0.11   0.01   0.00    -0.01  -0.39   0.00    -0.35   0.01  -0.00
  12   1    -0.06   0.02  -0.00    -0.00   0.08  -0.00    -0.16  -0.09   0.00
                      7                      8                      9
                        a                      a                      a 
 Frequencies --   469.1625               599.7018               696.2224
 Red. masses --     7.5414                11.7770                11.5941
 Frc consts  --     0.0000                 0.0000                 0.0000
 IR Inten    --     0.7741                 0.1368                 0.2113
 Raman Activ --     0.0000                 0.0000                 0.0000
 Depolar     --     0.0000                 0.0000                 0.0000
 Atom AN      X      Y      Z        X      Y      Z        X      Y      Z
   1   6    -0.00   0.00   0.02     0.13  -0.41   0.00    -0.00   0.00  -0.25
   2   6    -0.00   0.00   0.09    -0.21  -0.40   0.00    -0.00   0.00   0.28
   3   1     0.00   0.00   0.31     0.04   0.12   0.00     0.00   0.00  -0.14
   4   8    -0.00  -0.00   0.19     0.30  -0.02  -0.00    -0.00  -0.00  -0.12
   5   6    -0.00   0.00  -0.49    -0.06   0.00  -0.00    -0.00  -0.00  -0.58
   6   1    -0.00  -0.00   0.34    -0.06  -0.11  -0.00    -0.00   0.00   0.06
   7   6     0.00  -0.00   0.09    -0.17   0.42  -0.00     0.00   0.00   0.28
   8   7     0.00   0.00   0.16    -0.22   0.01   0.00     0.00  -0.00   0.13
   9   6     0.00  -0.00   0.03     0.17   0.40  -0.00     0.00   0.00  -0.25
  10   1    -0.00  -0.00   0.34    -0.05   0.12   0.00     0.00   0.00   0.06
  11   6     0.00  -0.00  -0.50     0.05  -0.00  -0.00     0.00   0.00   0.55
  12   1     0.00   0.00   0.31     0.03  -0.12  -0.00    -0.00   0.00  -0.14
                     10                     11                     12
                        a                      a                      a 
 Frequencies --   739.0057               772.5986               817.2856
 Red. masses --     3.2431                11.7289                 6.7084
 Frc consts  --     0.0000                 0.0000                 0.0000
 IR Inten    --     0.0025               119.7992                59.6402
 Raman Activ --     0.0000                 0.0000                 0.0000
 Depolar     --     0.0000                 0.0000                 0.0000
 Atom AN      X      Y      Z        X      Y      Z        X      Y      Z
   1   6     0.00   0.00   0.22     0.17  -0.31   0.00     0.00   0.00  -0.25
   2   6     0.00   0.00   0.23    -0.05  -0.30   0.00     0.00   0.00  -0.21
   3   1    -0.00   0.00   0.38    -0.01  -0.17   0.00    -0.00   0.00   0.36
   4   8    -0.00  -0.00  -0.00     0.02   0.37  -0.00    -0.00  -0.00  -0.11
   5   6    -0.00   0.00   0.00     0.02   0.33   0.00     0.00   0.00   0.31
   6   1    -0.00   0.00  -0.50     0.03  -0.15  -0.00     0.00   0.00   0.34
   7   6    -0.00   0.00  -0.23     0.02  -0.30  -0.00    -0.00   0.00  -0.21
   8   7     0.00   0.00   0.00     0.02   0.41   0.00    -0.00   0.00  -0.08
   9   6    -0.00   0.00  -0.22    -0.20  -0.29  -0.00    -0.00   0.00  -0.25
  10   1     0.00   0.00   0.50    -0.04  -0.15   0.00    -0.00   0.00   0.34
  11   6    -0.00  -0.00   0.00     0.01   0.20   0.00    -0.00  -0.00   0.43
  12   1     0.00   0.00  -0.38    -0.01  -0.17  -0.00     0.00   0.00   0.36
                     13                     14                     15
                        a                      a                      a 
 Frequencies --   829.6990               909.4409               910.9660
 Red. masses --    11.9266                 2.7719                 3.2928
 Frc consts  --     0.0000                 0.0000                 0.0000
 IR Inten    --     6.3648                 0.0938                 0.0116
 Raman Activ --     0.0000                 0.0000                 0.0000
 Depolar     --     0.0000                 0.0000                 0.0000
 Atom AN      X      Y      Z        X      Y      Z        X      Y      Z
   1   6    -0.34   0.02  -0.00     0.00   0.00  -0.24     0.00  -0.00  -0.21
   2   6    -0.50  -0.08   0.00    -0.00   0.00   0.24    -0.00   0.00   0.15
   3   1     0.08   0.05   0.00    -0.00   0.00   0.34    -0.00   0.00  -0.58
   4   8     0.02   0.34  -0.00    -0.00   0.00  -0.01    -0.00  -0.00   0.00
   5   6    -0.01  -0.16   0.00    -0.00  -0.00   0.02    -0.00   0.00  -0.00
   6   1    -0.13  -0.05  -0.00    -0.00   0.00  -0.54    -0.00   0.00  -0.28
   7   6     0.49  -0.14  -0.00     0.00  -0.00   0.16     0.00  -0.00  -0.24
   8   7    -0.01  -0.17  -0.00     0.00  -0.00   0.01     0.00   0.00  -0.00
   9   6     0.34  -0.02  -0.00     0.00   0.00  -0.13    -0.00  -0.00   0.29
  10   1     0.12  -0.07   0.00     0.00   0.00  -0.38     0.00   0.00   0.48
  11   6     0.01   0.17   0.00    -0.00  -0.00  -0.04    -0.00   0.00   0.01
  12   1    -0.07   0.05  -0.00     0.00   0.00   0.54     0.00   0.00   0.39
                     16                     17                     18
                        a                      a                      a 
 Frequencies --   939.4332              1066.0272              1166.6959
 Red. masses --     8.4384                 6.7176                 1.6715
 Frc consts  --     0.0000                 0.0000                 0.0000
 IR Inten    --     4.9840                 7.0031                57.2727
 Raman Activ --     0.0000                 0.0000                 0.0000
 Depolar     --     0.0000                 0.0000                 0.0000
 Atom AN      X      Y      Z        X      Y      Z        X      Y      Z
   1   6    -0.46   0.04  -0.00    -0.18   0.06  -0.00    -0.03  -0.08   0.00
   2   6     0.34  -0.03   0.00    -0.25  -0.03   0.00    -0.02   0.09   0.00
   3   1     0.22  -0.18  -0.00     0.13  -0.36   0.00     0.23  -0.45   0.00
   4   8     0.01   0.10  -0.00    -0.02   0.00   0.00    -0.01  -0.10  -0.00
   5   6     0.00   0.05  -0.00     0.48  -0.02  -0.00    -0.02  -0.03  -0.00
   6   1     0.19  -0.21  -0.00     0.08  -0.29  -0.00    -0.21   0.41   0.00
   7   6    -0.34   0.00  -0.00    -0.25   0.05  -0.00     0.05   0.08  -0.00
   8   7     0.00   0.01   0.00    -0.04   0.00  -0.00     0.01   0.10   0.00
   9   6     0.46  -0.01   0.00    -0.18  -0.04   0.00     0.02  -0.08  -0.00
  10   1    -0.21  -0.19   0.00     0.11   0.29   0.00     0.26   0.40  -0.00
  11   6     0.00   0.05   0.00     0.30  -0.02  -0.00     0.00   0.05  -0.00
  12   1    -0.24  -0.16   0.00     0.17   0.34  -0.00    -0.28  -0.42   0.00
                     19                     20                     21
                        a                      a                      a 
 Frequencies --  1199.8219              1242.6166              1326.8422
 Red. masses --     5.8678                 6.5877                 6.2397
 Frc consts  --     0.0000                 0.0000                 0.0000
 IR Inten    --     2.3133                19.9209                74.1578
 Raman Activ --     0.0000                 0.0000                 0.0000
 Depolar     --     0.0000                 0.0000                 0.0000
 Atom AN      X      Y      Z        X      Y      Z        X      Y      Z
   1   6     0.03  -0.05  -0.00    -0.13   0.00   0.00    -0.24  -0.16   0.00
   2   6    -0.14   0.01   0.00    -0.13   0.13  -0.00     0.23  -0.17   0.00
   3   1     0.04  -0.04   0.00    -0.26   0.42  -0.00    -0.14   0.32  -0.00
   4   8     0.02  -0.00  -0.00    -0.07   0.00   0.00     0.01   0.26   0.00
   5   6     0.59  -0.03  -0.00     0.20  -0.01  -0.00     0.00  -0.01  -0.00
   6   1    -0.28   0.46  -0.00    -0.02   0.01   0.00    -0.16   0.36  -0.00
   7   6    -0.14   0.01  -0.00    -0.15  -0.11   0.00    -0.25  -0.15  -0.00
   8   7    -0.05   0.00   0.00    -0.01   0.00  -0.00     0.01   0.15   0.00
   9   6     0.03   0.05   0.00    -0.13   0.01   0.00     0.23  -0.19   0.00
  10   1    -0.31  -0.41   0.00    -0.02  -0.00  -0.00     0.19   0.35   0.00
  11   6    -0.20   0.01   0.00     0.60  -0.03  -0.00    -0.01  -0.16   0.00
  12   1     0.03   0.02  -0.00    -0.30  -0.40   0.00     0.17   0.30  -0.00
                     22                     23                     24
                        a                      a                      a 
 Frequencies --  1359.7534              1502.0065              1519.5199
 Red. masses --     9.2224                12.6225                12.4405
 Frc consts  --     0.0000                 0.0000                 0.0000
 IR Inten    --     7.0631               399.9643               755.2876
 Raman Activ --     0.0000                 0.0000                 0.0000
 Depolar     --     0.0000                 0.0000                 0.0000
 Atom AN      X      Y      Z        X      Y      Z        X      Y      Z
   1   6     0.36   0.19  -0.00    -0.05  -0.11   0.00    -0.06   0.07  -0.00
   2   6    -0.26   0.14  -0.00     0.01   0.06  -0.00     0.04  -0.24   0.00
   3   1    -0.06   0.21  -0.00    -0.04   0.08   0.00    -0.02   0.10   0.00
   4   8     0.02  -0.00   0.00    -0.01  -0.27  -0.00    -0.02  -0.45  -0.00
   5   6     0.23  -0.01  -0.00    -0.03  -0.62  -0.00     0.02   0.38   0.00
   6   1     0.10  -0.26   0.00     0.03  -0.06   0.00    -0.07   0.09   0.00
   7   6    -0.27  -0.11   0.00    -0.00   0.06   0.00    -0.07  -0.24   0.00
   8   7    -0.00  -0.00  -0.00     0.03   0.54   0.00    -0.01  -0.25  -0.00
   9   6     0.34  -0.22  -0.00     0.04  -0.11  -0.00     0.06   0.07  -0.00
  10   1     0.12   0.25  -0.00    -0.04  -0.05  -0.00     0.08   0.08  -0.00
  11   6    -0.44   0.03   0.00     0.02   0.44  -0.00     0.03   0.64  -0.00
  12   1    -0.09  -0.21   0.00     0.05   0.08   0.00     0.03   0.10   0.00
                     25                     26                     27
                        a                      a                      a 
 Frequencies --  1527.8736              1616.9617              3024.9029
 Red. masses --    11.5400                11.7784                 1.7734
 Frc consts  --     0.0000                 0.0000                 0.0000
 IR Inten    --    46.2764               406.1437                72.1365
 Raman Activ --     0.0000                 0.0000                 0.0000
 Depolar     --     0.0000                 0.0000                 0.0000
 Atom AN      X      Y      Z        X      Y      Z        X      Y      Z
   1   6    -0.03  -0.48   0.00    -0.09  -0.47   0.00     0.14  -0.10   0.00
   2   6    -0.02   0.49  -0.00    -0.01   0.42  -0.00    -0.05  -0.03  -0.00
   3   1     0.10  -0.03  -0.00    -0.09   0.05   0.00    -0.58  -0.31  -0.00
   4   8     0.05  -0.00  -0.00    -0.00  -0.01  -0.00    -0.00  -0.00   0.00
   5   6     0.00   0.00  -0.00     0.01   0.21   0.00    -0.01   0.00   0.00
   6   1     0.10  -0.04   0.00     0.07  -0.01   0.00     0.21   0.11   0.00
   7   6    -0.07  -0.49   0.00     0.06   0.42  -0.00    -0.05   0.04   0.00
   8   7     0.03  -0.00  -0.00    -0.01  -0.26  -0.00     0.00  -0.00  -0.00
   9   6     0.02   0.48  -0.00     0.04  -0.48  -0.00     0.16   0.09  -0.00
  10   1     0.10   0.03  -0.00    -0.07  -0.01  -0.00     0.22  -0.15  -0.00
  11   6    -0.09   0.00   0.00     0.01   0.18  -0.00     0.01   0.00  -0.00
  12   1     0.10   0.02   0.00     0.10   0.04   0.00    -0.50   0.34   0.00
                     28                     29                     30
                        a                      a                      a 
 Frequencies --  3028.4265              3044.5086              3053.1896
 Red. masses --     1.7496                 1.8653                 1.8693
 Frc consts  --     0.0000                 0.0000                 0.0000
 IR Inten    --   146.1828               327.8556                18.0954
 Raman Activ --     0.0000                 0.0000                 0.0000
 Depolar     --     0.0000                 0.0000                 0.0000
 Atom AN      X      Y      Z        X      Y      Z        X      Y      Z
   1   6     0.14  -0.10   0.00     0.06  -0.04   0.00     0.08  -0.06  -0.00
   2   6    -0.07  -0.04  -0.00     0.16   0.09  -0.00     0.15   0.08  -0.00
   3   1     0.51   0.27  -0.00    -0.22  -0.12  -0.00     0.28   0.15   0.00
   4   8     0.00   0.00  -0.00     0.00  -0.00  -0.00     0.00   0.01  -0.00
   5   6    -0.00  -0.00   0.00     0.00  -0.00   0.00     0.00   0.01  -0.00
   6   1     0.29   0.16   0.00    -0.55  -0.29   0.00    -0.53  -0.28   0.00
   7   6     0.06  -0.05   0.00     0.15  -0.11   0.00    -0.14   0.10   0.00
   8   7    -0.00  -0.00  -0.00    -0.00   0.00   0.00    -0.00  -0.00  -0.00
   9   6    -0.14  -0.07  -0.00     0.07   0.04  -0.00    -0.08  -0.05  -0.00
  10   1    -0.26   0.17  -0.00    -0.53   0.36  -0.00     0.50  -0.33  -0.00
  11   6    -0.00  -0.01   0.00    -0.00   0.00   0.00    -0.00  -0.01   0.00
  12   1    -0.52   0.35   0.00    -0.20   0.14   0.00    -0.27   0.18   0.00
