12
 energy: -21.963319126179 gnorm: 0.173857661582 xtb: 6.7.1 (edcfbbe)
C           -3.58853147281371        0.82265411468437       -0.00001157575149
C           -3.66245115312302       -0.56819544644181       -0.00001560543595
H           -0.18862811407766        1.18040687431011       -0.00005107618440
O           -2.26862930414677        2.82461874586643       -0.00002012672604
C           -2.48868782775728       -1.32819561754097       -0.00003213111107
H           -4.63361421487219       -1.06839190174433       -0.00000562832882
C           -1.24156073120913       -0.69599456815612       -0.00004482607236
N           -2.58170533421761       -3.09073468111379       -0.00003718845767
C           -1.16883594997575        0.69481304879679       -0.00004074664524
H           -0.32830346944735       -1.29543449242595       -0.00005802851460
C           -2.33742679088835        1.53821475779673       -0.00002366215899
H           -4.51199678046597        1.40907616790918        0.00000159546929
12
 energy: -22.031621465462 gnorm: 0.170344086457 xtb: 6.7.1 (edcfbbe)
C           -3.58707156987313        0.79400903231883       -0.00001160450310
C           -3.65787818571440       -0.58417926764035       -0.00001568080644
H           -0.20381322572601        1.16097330318391       -0.00005090433623
O           -2.27139265649039        2.77730221807817       -0.00002017670301
C           -2.49042645073921       -1.36050553965663       -0.00003224554816
H           -4.62674401021338       -1.06963769204299       -0.00000581624389
C           -1.24773970730666       -0.71149684592126       -0.00004482210667
N           -2.56879808967190       -2.84597801464080       -0.00003640808845
C           -1.17315387363666        0.66643581606962       -0.00004085795970
H           -0.33528780759621       -1.29618149422701       -0.00005796135087
C           -2.33918249206640        1.50406443828836       -0.00002391870085
H           -4.49888307396045        1.38803104813077        0.00000139643004
12
 energy: -21.754503196776 gnorm: 1.934476023927 xtb: 6.7.1 (edcfbbe)
C           -3.58438336083616        0.75134825318970       -0.00001180247107
C           -3.64971478385452       -0.60996824149083       -0.00001575829867
H           -0.22424896464724        1.14027292277710       -0.00005071556837
O           -2.27415570084171        2.72837264662477       -0.00002040051373
C           -2.49858204925234       -1.51325169337478       -0.00003247532103
H           -4.62385568734196       -1.06580535261548       -0.00000573800889
C           -1.25861547461356       -0.73640702680611       -0.00004473983651
N           -2.54757003736218       -2.44243131744260       -0.00003552781112
C           -1.18015273232291        0.62414831205720       -0.00004092055260
H           -0.33774747860158       -1.29174806693727       -0.00005785740837
C           -2.34071062759642        1.47300542260467       -0.00002410942983
H           -4.48063424572421        1.36530114335425        0.00000104530286
12
 energy: -22.056347112204 gnorm: 0.085222664904 xtb: 6.7.1 (edcfbbe)
C           -3.58760615137643        0.75911192420031       -0.00001174962844
C           -3.66266710260253       -0.58780241614545       -0.00001551331603
H           -0.22177088165224        1.14015280597363       -0.00005075556981
O           -2.27395751001934        2.73183567273163       -0.00002041883516
C           -2.48994194311909       -1.34974577944580       -0.00003190765165
H           -4.62575540266404       -1.06924841638995       -0.00000571176187
C           -1.24341205888415       -0.71569948105480       -0.00004483142655
N           -2.55886920756314       -2.65644787543798       -0.00003622567317
C           -1.17614815922937        0.63156502209632       -0.00004095205876
H           -0.33620887183646       -1.29539303035000       -0.00005787694723
C           -2.34093734187607        1.46905708688973       -0.00002412197430
H           -4.48309651217192        1.36545148887301        0.00000106492565
12
 energy: -22.061348906945 gnorm: 0.043173260322 xtb: 6.7.1 (edcfbbe)
C           -3.59364408021967        0.77219323043076       -0.00001151381551
C           -3.66699046194319       -0.57950255602436       -0.00001561473677
H           -0.21563437504862        1.15761774888294       -0.00005064486580
O           -2.27414871747177        2.73219701651351       -0.00002014467525
C           -2.49261260359574       -1.40172950721086       -0.00003277066710
H           -4.62893445309000       -1.06364827847451       -0.00000594784133
C           -1.23809506000717       -0.70789798485243       -0.00004502899487
N           -2.56124057884139       -2.69782284665501       -0.00003553857600
C           -1.16866939346729        0.64401320242228       -0.00004104688335
H           -0.33241559325505       -1.29049113321741       -0.00005803005100
C           -2.34064624043811        1.47465524055691       -0.00002410637037
H           -4.48733958561677        1.38325286956882        0.00000138756000
12
 energy: -22.062302964641 gnorm: 0.020903781782 xtb: 6.7.1 (edcfbbe)
C           -3.59813133239573        0.77703673221458       -0.00001159820545
C           -3.67146781108090       -0.57185106749036       -0.00001353103955
H           -0.20932871265390        1.15964199228410       -0.00005018129486
O           -2.27383417199842        2.73702682375215       -0.00002113609457
C           -2.49374800226113       -1.42229622610428       -0.00003059000834
H           -4.63272842091360       -1.06692975854569       -0.00000493128080
C           -1.23295780020781       -0.70071987652851       -0.00004565954443
N           -2.56163039511215       -2.70808302037603       -0.00003833015447
C           -1.16371411858695        0.64834515455172       -0.00004126561139
H           -0.32908137633058       -1.29400322152307       -0.00005760696888
C           -2.34041997701958        1.47860372719915       -0.00002420332411
H           -4.49332902443405        1.38606574250689        0.00000003360953
12
 energy: -22.062462120341 gnorm: 0.011545426061 xtb: 6.7.1 (edcfbbe)
C           -3.59960737456071        0.77779907830868       -0.00001146711568
C           -3.67413070191031       -0.56942941521170       -0.00001694373670
H           -0.20704226160158        1.15978523874649       -0.00004931258014
O           -2.27376321939782        2.73895952335849       -0.00001813080318
C           -2.49383875735861       -1.42591465698392       -0.00003777687303
H           -4.63363215581886       -1.07169045319728       -0.00000664383120
C           -1.22990866966509       -0.69848674689403       -0.00004662049228
N           -2.56199534114777       -2.70497880861744       -0.00002964252234
C           -1.16211420690116        0.64905711370220       -0.00004038653830
H           -0.32843822534764       -1.29853667283288       -0.00006043025204
C           -2.34035376178229        1.47994400979647       -0.00002335816178
H           -4.49554646750294        1.38632879176556        0.00000171298936
12
 energy: -22.062521949387 gnorm: 0.004684539774 xtb: 6.7.1 (edcfbbe)
C           -3.60001994985894        0.77764742532049       -0.00001280322109
C           -3.67591967730428       -0.56874629627591       -0.00000942523099
H           -0.20677947688678        1.15984911629068       -0.00005362311443
O           -2.27358174626701        2.73902686296957       -0.00002856740689
C           -2.49414088465963       -1.42580982959650       -0.00001362692173
H           -4.63361802288153       -1.07481269407739        0.00000050820746
C           -1.22856821305075       -0.69829624493289       -0.00003926799719
N           -2.56027135082580       -2.69956433726376       -0.00005929194977
C           -1.16194623715125        0.64856342881151       -0.00004243110152
H           -0.32934048499170       -1.30205343153975       -0.00005187149328
C           -2.34035376831220        1.48003451724952       -0.00002693836061
H           -4.49583133080493        1.38699848498507       -0.00000166132730
12
 energy: -22.062534929182 gnorm: 0.001568225413 xtb: 6.7.1 (edcfbbe)
C           -3.59947769005052        0.77663960196653       -0.00000704429388
C           -3.67533440102763       -0.56976008934334       -0.00002619266391
H           -0.20740316175625        1.16089158766019       -0.00004027503247
O           -2.27409263126090        2.73827304834927        0.00000043302662
C           -2.49327389848101       -1.42491885239577       -0.00008602533269
H           -4.63231172858424       -1.07598520323933       -0.00002103434427
C           -1.22791689721941       -0.69852037177261       -0.00006351425771
N           -2.56387122075729       -2.69619915238538        0.00002605411638
C           -1.16205214352014        0.64840064419001       -0.00003671265138
H           -0.32921192560760       -1.30198793793219       -0.00007476528736
C           -2.34039504875730        1.47948062584704       -0.00001602698734
H           -4.49503039597249        1.38652310099622        0.00000610379069
12
 energy: -22.062529031021 gnorm: 0.002148103603 xtb: 6.7.1 (edcfbbe)
C           -3.59956748900740        0.77703475708115       -0.00002576741412
C           -3.67619629079481       -0.56960210882415        0.00002320688956
H           -0.20869923903304        1.15943525339269       -0.00006729415820
O           -2.27306572993096        2.73724301564849       -0.00007657116712
C           -2.49515097731891       -1.42406093624936        0.00011180797133
H           -4.63351271543133       -1.07356075383376        0.00004153850171
C           -1.23018701008107       -0.70023413768090       -0.00000709965306
N           -2.55475904062458       -2.69485622420914       -0.00020367648871
C           -1.16322380859496        0.64689762821949       -0.00005279153027
H           -0.33146162618509       -1.30252471490175       -0.00001595356241
C           -2.34041522553930        1.47873286258821       -0.00004707542598
H           -4.49413199045333        1.38833236070967       -0.00001932388005
12
 energy: -22.062537449972 gnorm: 0.000709177971 xtb: 6.7.1 (edcfbbe)
C           -3.59940302367942        0.77673257250996       -0.00001470733012
C           -3.67541543443465       -0.56994743627882       -0.00000663752257
H           -0.20833224961187        1.16010620867559       -0.00005504617337
O           -2.27356806904663        2.73751539425046       -0.00003470006264
C           -2.49425519923008       -1.42450863934174       -0.00000040754255
H           -4.63295604345610       -1.07398285207815        0.00000685979458
C           -1.22949598355152       -0.69963192183471       -0.00003376819129
N           -2.55912195919059       -2.69570308385726       -0.00007603993193
C           -1.16278845648564        0.64752091472793       -0.00004225397046
H           -0.33030951498282       -1.30155319547728       -0.00004901317547
C           -2.34041292112520        1.47889007465853       -0.00002931900249
H           -4.49431228820027        1.38739896598613       -0.00000396680901
12
 energy: -22.062538257545 gnorm: 0.000380259102 xtb: 6.7.1 (edcfbbe)
C           -3.59935483628940        0.77657665589898       -0.00001485647657
C           -3.67491207232148       -0.57009390469101        0.00001036919644
H           -0.20793582522655        1.16047970306965       -0.00004460168236
O           -2.27391694887296        2.73785444386751       -0.00003706343545
C           -2.49363702169567       -1.42505513983958        0.00000849690317
H           -4.63271875083190       -1.07427355838532        0.00000962386737
C           -1.22895125373382       -0.69912740110380       -0.00005009548632
N           -2.56219217830511       -2.69638783757780       -0.00008482839668
C           -1.16241138245463        0.64800336177641       -0.00004651033587
H           -0.32934041644866       -1.30088707765452       -0.00004500015733
C           -2.34040873216037        1.47908565668932       -0.00003136627707
H           -4.49459172465425        1.38666209989079       -0.00001316763663
