 Entering Gaussian System
 *********************************************
 Gaussian 98:
 frequency output generated by the xtb code
 *********************************************
                         Standard orientation:
 --------------------------------------------------------------------
  Center     Atomic     Atomic              Coordinates (Angstroms)
  Number     Number      Type              X           Y           Z
 --------------------------------------------------------------------
    1          6             0       -2.164497    1.504070    0.013113
    2          6             0       -0.708128    1.741447   -0.370568
    3          1             0       -2.213367    0.991932    0.973709
    4          1             0       -2.678884    2.459360    0.114248
    5          1             0       -2.685949    0.898621   -0.738159
    6         16             0        0.170247    2.739949    0.854412
    7          1             0       -0.193751    0.773921   -0.477281
    8          1             0       -0.663269    2.251645   -1.345116
 --------------------------------------------------------------------
     1 basis functions        1 primitive gaussians
     1 alpha electrons        1 beta electrons
 
 Harmonic frequencies (cm**-1), IR intensities (km*mol⁻¹),
 Raman scattering activities (A**4/amu), Raman depolarization ratios,
 reduced masses (AMU), force constants (mDyne/A) and normal coordinates:
                      1                      2                      3
                        a                      a                      a 
 Frequencies --   216.0595               295.6661               683.6156
 Red. masses --     2.4418                14.4182                16.4359
 Frc consts  --     0.0000                 0.0000                 0.0000
 IR Inten    --     1.0262                 6.5800                 4.5772
 Raman Activ --     0.0000                 0.0000                 0.0000
 Depolar     --     0.0000                 0.0000                 0.0000
 Atom AN      X      Y      Z        X      Y      Z        X      Y      Z
   1   6    -0.01   0.02  -0.01    -0.39  -0.29  -0.28    -0.16  -0.09  -0.06
   2   6     0.07  -0.21   0.12    -0.25   0.10   0.31    -0.20  -0.39  -0.56
   3   1    -0.06  -0.46  -0.25    -0.23  -0.15  -0.12     0.08   0.05   0.03
   4   1     0.19   0.06   0.49    -0.23  -0.14  -0.12     0.08   0.04   0.04
   5   1    -0.15   0.48  -0.28     0.08  -0.09  -0.20    -0.28  -0.01   0.13
   6  16    -0.04   0.13  -0.08     0.48   0.17   0.03     0.25   0.31   0.39
   7   1     0.00  -0.07   0.09    -0.06   0.04   0.09    -0.02  -0.08  -0.11
   8   1     0.06  -0.11   0.01    -0.06   0.03   0.09    -0.02  -0.07  -0.12
                      4                      5                      6
                        a                      a                      a 
 Frequencies --   785.1015              1003.8289              1008.9577
 Red. masses --     2.4706                 6.4873                 2.9876
 Frc consts  --     0.0000                 0.0000                 0.0000
 IR Inten    --     0.8488                 2.8376                 0.7277
 Raman Activ --     0.0000                 0.0000                 0.0000
 Depolar     --     0.0000                 0.0000                 0.0000
 Atom AN      X      Y      Z        X      Y      Z        X      Y      Z
   1   6    -0.02   0.07  -0.04     0.45   0.20   0.09    -0.07   0.19  -0.11
   2   6    -0.09   0.27  -0.16    -0.42  -0.18  -0.08     0.09  -0.26   0.16
   3   1     0.38  -0.10  -0.05    -0.08  -0.10  -0.07     0.34  -0.04  -0.05
   4   1    -0.30  -0.16   0.20    -0.10  -0.06  -0.09    -0.29  -0.12   0.15
   5   1     0.04  -0.11   0.07     0.50   0.02  -0.23     0.04  -0.13   0.08
   6  16     0.02  -0.07   0.04     0.02   0.06   0.08    -0.02   0.08  -0.05
   7   1    -0.17  -0.07   0.49    -0.27  -0.13  -0.07    -0.33  -0.23  -0.35
   8   1     0.30  -0.35  -0.24    -0.26  -0.12  -0.06     0.29   0.35   0.28
                      7                      8                      9
                        a                      a                      a 
 Frequencies --  1048.7137              1242.2830              1263.7670
 Red. masses --     7.8207                 3.3256                 3.3399
 Frc consts  --     0.0000                 0.0000                 0.0000
 IR Inten    --     2.9427                 3.2059                76.2635
 Raman Activ --     0.0000                 0.0000                 0.0000
 Depolar     --     0.0000                 0.0000                 0.0000
 Atom AN      X      Y      Z        X      Y      Z        X      Y      Z
   1   6     0.35  -0.09  -0.35    -0.10   0.30  -0.18    -0.01   0.11   0.19
   2   6    -0.52   0.01   0.30     0.07  -0.23   0.14    -0.28  -0.20  -0.20
   3   1     0.33   0.13   0.00     0.31  -0.03  -0.08    -0.09  -0.07  -0.01
   4   1     0.33   0.10   0.02    -0.27  -0.08   0.15    -0.10  -0.02  -0.04
   5   1    -0.27  -0.00   0.14     0.03  -0.11   0.06     0.20   0.01  -0.09
   6  16     0.02  -0.02  -0.04     0.01  -0.02   0.01     0.00  -0.03  -0.04
   7   1     0.03   0.09   0.13     0.49   0.22  -0.01     0.49   0.25   0.24
   8   1     0.03   0.08   0.13    -0.52  -0.12  -0.04     0.47   0.31   0.20
                     10                     11                     12
                        a                      a                      a 
 Frequencies --  1390.1824              1487.3852              1500.0928
 Red. masses --     3.0700                 1.8671                 1.5495
 Frc consts  --     0.0000                 0.0000                 0.0000
 IR Inten    --     1.3075                13.5073                 0.3012
 Raman Activ --     0.0000                 0.0000                 0.0000
 Depolar     --     0.0000                 0.0000                 0.0000
 Atom AN      X      Y      Z        X      Y      Z        X      Y      Z
   1   6     0.41   0.08  -0.10     0.03   0.02   0.02     0.06  -0.18   0.11
   2   6     0.00  -0.01  -0.02    -0.18   0.06   0.20     0.01  -0.03   0.02
   3   1    -0.51  -0.02  -0.04    -0.07   0.01   0.01     0.30   0.31   0.19
   4   1    -0.44  -0.25   0.09    -0.06  -0.03   0.03    -0.34  -0.17  -0.27
   5   1    -0.44   0.03   0.28    -0.01   0.01   0.02    -0.19   0.60  -0.35
   6  16    -0.00  -0.01  -0.01     0.01   0.01   0.01    -0.00   0.00  -0.00
   7   1    -0.01  -0.01   0.07     0.21   0.16  -0.62     0.02   0.00  -0.01
   8   1    -0.03   0.06   0.03     0.41  -0.48  -0.25    -0.03  -0.00   0.01
                     13                     14                     15
                        a                      a                      a 
 Frequencies --  1515.7057              2801.0236              2841.8118
 Red. masses --     1.6134                 1.9976                 1.4227
 Frc consts  --     0.0000                 0.0000                 0.0000
 IR Inten    --     0.8819               108.3895                89.3398
 Raman Activ --     0.0000                 0.0000                 0.0000
 Depolar     --     0.0000                 0.0000                 0.0000
 Atom AN      X      Y      Z        X      Y      Z        X      Y      Z
   1   6     0.02   0.12   0.20    -0.00   0.00  -0.00     0.02   0.02   0.02
   2   6     0.01   0.02   0.04    -0.08   0.25  -0.15     0.10  -0.06  -0.15
   3   1     0.19  -0.56  -0.28     0.01   0.01  -0.03     0.01   0.01  -0.01
   4   1    -0.01   0.07  -0.65    -0.02   0.02   0.01     0.01  -0.01   0.00
   5   1    -0.25   0.02   0.17     0.00  -0.00   0.00    -0.05  -0.06  -0.08
   6  16    -0.00  -0.00  -0.00     0.00  -0.00   0.00    -0.01  -0.01  -0.01
   7   1    -0.01   0.00  -0.03     0.34  -0.58  -0.07    -0.33   0.61   0.01
   8   1    -0.00  -0.03  -0.01    -0.05  -0.31   0.59    -0.02  -0.37   0.58
                     16                     17                     18
                        a                      a                      a 
 Frequencies --  2893.2103              2998.9509              3008.6143
 Red. masses --     1.7070                 1.9429                 1.4395
 Frc consts  --     0.0000                 0.0000                 0.0000
 IR Inten    --   200.5076                64.4222                34.7695
 Raman Activ --     0.0000                 0.0000                 0.0000
 Depolar     --     0.0000                 0.0000                 0.0000
 Atom AN      X      Y      Z        X      Y      Z        X      Y      Z
   1   6     0.10   0.14   0.18    -0.08   0.24  -0.14     0.09  -0.07  -0.16
   2   6    -0.00   0.01   0.02    -0.00   0.02  -0.01     0.01  -0.00  -0.01
   3   1     0.02   0.04   0.00    -0.03  -0.30   0.61    -0.01  -0.34   0.60
   4   1     0.03  -0.01   0.03     0.31  -0.59  -0.08    -0.31   0.62   0.04
   5   1    -0.43  -0.53  -0.67    -0.01   0.04  -0.02    -0.01  -0.04  -0.06
   6  16     0.00   0.00   0.00     0.00  -0.00   0.00    -0.00   0.00   0.00
   7   1     0.04  -0.07  -0.00     0.01  -0.02  -0.00    -0.00   0.01  -0.00
   8   1     0.00   0.04  -0.07     0.00  -0.01   0.02     0.00  -0.01   0.01
