8
 energy: -10.267844148946 gnorm: 0.016767168734 xtb: 6.7.1 (edcfbbe)
C           -2.16840055483329        1.50698672942772        0.02023909460222
C           -0.72011145138349        1.73208764529682       -0.37980774734410
H           -2.22367782728806        0.98716347605143        0.97375928297245
H           -2.68928822967117        2.45681611952334        0.11482662853117
H           -2.67091431290841        0.90635837232884       -0.73509097735862
S            0.17244356453591        2.72649434620791        0.82859662009412
H           -0.18446335624118        0.78520250103369       -0.46546518874143
H           -0.65325283221031        2.25977881013024       -1.33271371275580
8
 energy: -10.268481009374 gnorm: 0.003651231844 xtb: 6.7.1 (edcfbbe)
C           -2.16440661348810        1.50272735049609        0.01079828860001
C           -0.70989274738523        1.74189338759368       -0.36871450777801
H           -2.21220380735277        0.99071089433958        0.97061913934503
H           -2.67718613875057        2.45791062044968        0.11256907768698
H           -2.68459162076972        0.89847181644295       -0.74052076849601
S            0.17816877656899        2.74193115375469        0.85227397064723
H           -0.19918783130389        0.77559679753875       -0.47248764114049
H           -0.66836501751870        2.25164597938455       -1.34019355886472
8
 energy: -10.268509547843 gnorm: 0.001673701658 xtb: 6.7.1 (edcfbbe)
C           -2.16396610384709        1.50411271875589        0.01291995371160
C           -0.70809786630208        1.74091369687861       -0.37141119566558
H           -2.21337412297524        0.99180687384724        0.97328733177159
H           -2.67857236349586        2.45910741738097        0.11463204995375
H           -2.68518729497226        0.89920686207926       -0.73835306319773
S            0.17043891528667        2.74083240459944        0.85509553765774
H           -0.19470819692071        0.77380790381174       -0.47688302123316
H           -0.66419796677344        2.25110012264684       -1.34494359299820
8
 energy: -10.268512404775 gnorm: 0.000481755646 xtb: 6.7.1 (edcfbbe)
C           -2.16450515602530        1.50405887354482        0.01310830565653
C           -0.70813591004510        1.74144380215938       -0.37056741649150
H           -2.21337528329825        0.99191876665737        0.97370318164095
H           -2.67889723026353        2.45934538395471        0.11424336533925
H           -2.68595125907043        0.89860795159783       -0.73816643793532
S            0.17022942089093        2.73994816078971        0.85441746709197
H           -0.19375365533055        0.77392099141239       -0.47728018908980
H           -0.66327592685777        2.25164406988379       -1.34511427621207
