8
 energy: -10.268512404784 gnorm: 0.000481906090 xtb: 6.7.1 (edcfbbe)
C           -2.16449723500102        1.50407022972248        0.01311323612681
C           -0.70812808539095        1.74144686316843       -0.37056798402085
H           -2.21336669071176        0.99193205526299        0.97370917654595
H           -2.67888395433754        2.45935960998055        0.11424842408634
H           -2.68594913061619        0.89862072686206       -0.73815863055784
S            0.17024674969329        2.73994876065299        0.85441209076101
H           -0.19375126911710        0.77392117289002       -0.47728086350527
H           -0.66326883262445        2.25164519511142       -1.34511589079234
