
                                 *****************
                                 * O   R   C   A *
                                 *****************

                                            #,                                       
                                            ###                                      
                                            ####                                     
                                            #####                                    
                                            ######                                   
                                           ########,                                 
                                     ,,################,,,,,                         
                               ,,#################################,,                 
                          ,,##########################################,,             
                       ,#########################################, ''#####,          
                    ,#############################################,,   '####,        
                  ,##################################################,,,,####,       
                ,###########''''           ''''###############################       
              ,#####''   ,,,,##########,,,,          '''####'''          '####       
            ,##' ,,,,###########################,,,                        '##       
           ' ,,###''''                  '''############,,,                           
         ,,##''                                '''############,,,,        ,,,,,,###''
      ,#''                                            '''#######################'''  
     '                                                          ''''####''''         
             ,#######,   #######,   ,#######,      ##                                
            ,#'     '#,  ##    ##  ,#'     '#,    #''#        ######   ,####,        
            ##       ##  ##   ,#'  ##            #'  '#       #        #'  '#        
            ##       ##  #######   ##           ,######,      #####,   #    #        
            '#,     ,#'  ##    ##  '#,     ,#' ,#      #,         ##   #,  ,#        
             '#######'   ##     ##  '#######'  #'      '#     #####' # '####'        



                  #######################################################
                  #                        -***-                        #
                  #          Department of theory and spectroscopy      #
                  #    Directorship and core code : Frank Neese         #
                  #        Max Planck Institute fuer Kohlenforschung    #
                  #                Kaiser Wilhelm Platz 1               #
                  #                 D-45470 Muelheim/Ruhr               #
                  #                      Germany                        #
                  #                                                     #
                  #                  All rights reserved                #
                  #                        -***-                        #
                  #######################################################


                         Program Version 5.0.4 -  RELEASE  -


 With contributions from (in alphabetic order):
   Daniel Aravena         : Magnetic Suceptibility
   Michael Atanasov       : Ab Initio Ligand Field Theory (pilot matlab implementation)
   Alexander A. Auer      : GIAO ZORA, VPT2 properties, NMR spectrum
   Ute Becker             : Parallelization
   Giovanni Bistoni       : ED, misc. LED, open-shell LED, HFLD
   Martin Brehm           : Molecular dynamics
   Dmytro Bykov           : SCF Hessian
   Vijay G. Chilkuri      : MRCI spin determinant printing, contributions to CSF-ICE
   Dipayan Datta          : RHF DLPNO-CCSD density
   Achintya Kumar Dutta   : EOM-CC, STEOM-CC
   Dmitry Ganyushin       : Spin-Orbit,Spin-Spin,Magnetic field MRCI
   Miquel Garcia          : C-PCM and meta-GGA Hessian, CC/C-PCM, Gaussian charge scheme
   Yang Guo               : DLPNO-NEVPT2, F12-NEVPT2, CIM, IAO-localization
   Andreas Hansen         : Spin unrestricted coupled pair/coupled cluster methods
   Benjamin Helmich-Paris : MC-RPA, TRAH-SCF, COSX integrals
   Lee Huntington         : MR-EOM, pCC
   Robert Izsak           : Overlap fitted RIJCOSX, COSX-SCS-MP3, EOM
   Marcus Kettner         : VPT2
   Christian Kollmar      : KDIIS, OOCD, Brueckner-CCSD(T), CCSD density, CASPT2, CASPT2-K
   Simone Kossmann        : Meta GGA functionals, TD-DFT gradient, OOMP2, MP2 Hessian
   Martin Krupicka        : Initial AUTO-CI
   Lucas Lang             : DCDCAS
   Marvin Lechner         : AUTO-CI (C++ implementation), FIC-MRCC
   Dagmar Lenk            : GEPOL surface, SMD
   Dimitrios Liakos       : Extrapolation schemes; Compound Job, initial MDCI parallelization
   Dimitrios Manganas     : Further ROCIS development; embedding schemes
   Dimitrios Pantazis     : SARC Basis sets
   Anastasios Papadopoulos: AUTO-CI, single reference methods and gradients
   Taras Petrenko         : DFT Hessian,TD-DFT gradient, ASA, ECA, R-Raman, ABS, FL, XAS/XES, NRVS
   Peter Pinski           : DLPNO-MP2, DLPNO-MP2 Gradient
   Christoph Reimann      : Effective Core Potentials
   Marius Retegan         : Local ZFS, SOC
   Christoph Riplinger    : Optimizer, TS searches, QM/MM, DLPNO-CCSD(T), (RO)-DLPNO pert. Triples
   Tobias Risthaus        : Range-separated hybrids, TD-DFT gradient, RPA, STAB
   Michael Roemelt        : Original ROCIS implementation
   Masaaki Saitow         : Open-shell DLPNO-CCSD energy and density
   Barbara Sandhoefer     : DKH picture change effects
   Avijit Sen             : IP-ROCIS
   Kantharuban Sivalingam : CASSCF convergence, NEVPT2, FIC-MRCI
   Bernardo de Souza      : ESD, SOC TD-DFT
   Georgi Stoychev        : AutoAux, RI-MP2 NMR, DLPNO-MP2 response
   Willem Van den Heuvel  : Paramagnetic NMR
   Boris Wezisla          : Elementary symmetry handling
   Frank Wennmohs         : Technical directorship


 We gratefully acknowledge several colleagues who have allowed us to
 interface, adapt or use parts of their codes:
   Stefan Grimme, W. Hujo, H. Kruse, P. Pracht,  : VdW corrections, initial TS optimization,
                  C. Bannwarth, S. Ehlert          DFT functionals, gCP, sTDA/sTD-DF
   Ed Valeev, F. Pavosevic, A. Kumar             : LibInt (2-el integral package), F12 methods
   Garnet Chan, S. Sharma, J. Yang, R. Olivares  : DMRG
   Ulf Ekstrom                                   : XCFun DFT Library
   Mihaly Kallay                                 : mrcc  (arbitrary order and MRCC methods)
   Jiri Pittner, Ondrej Demel                    : Mk-CCSD
   Frank Weinhold                                : gennbo (NPA and NBO analysis)
   Christopher J. Cramer and Donald G. Truhlar   : smd solvation model
   Lars Goerigk                                  : TD-DFT with DH, B97 family of functionals
   V. Asgeirsson, H. Jonsson                     : NEB implementation
   FAccTs GmbH                                   : IRC, NEB, NEB-TS, DLPNO-Multilevel, CI-OPT
                                                   MM, QMMM, 2- and 3-layer-ONIOM, Crystal-QMMM,
                                                   LR-CPCM, SF, NACMEs, symmetry and pop. for TD-DFT,
                                                   nearIR, NL-DFT gradient (VV10), updates on ESD,
                                                   ML-optimized integration grids
   S Lehtola, MJT Oliveira, MAL Marques          : LibXC Library
   Liviu Ungur et al                             : ANISO software


 Your calculation uses the libint2 library for the computation of 2-el integrals
 For citations please refer to: http://libint.valeyev.net

 Your ORCA version has been built with support for libXC version: 5.1.0
 For citations please refer to: https://tddft.org/programs/libxc/

 This ORCA versions uses:
   CBLAS   interface :  Fast vector & matrix operations
   LAPACKE interface :  Fast linear algebra routines
   SCALAPACK package :  Parallel linear algebra routines
   Shared memory     :  Shared parallel matrices
   BLAS/LAPACK       :  OpenBLAS 0.3.15  USE64BITINT DYNAMIC_ARCH NO_AFFINITY Haswell SINGLE_THREADED
        Core in use  :  Haswell
   Copyright (c) 2011-2014, The OpenBLAS Project


================================================================================

----- Orbital basis set information -----
Your calculation utilizes the basis: def2-TZVP
   F. Weigend and R. Ahlrichs, Phys. Chem. Chem. Phys. 7, 3297 (2005).

----- AuxJ basis set information -----
Your calculation utilizes the auxiliary basis: def2/J
   F. Weigend, Phys. Chem. Chem. Phys. 8, 1057 (2006).

================================================================================
                                        WARNINGS
                       Please study these warnings very carefully!
================================================================================


WARNING: Geometry Optimization
  ===> : Switching off AutoStart
         For restart on a previous wavefunction, please use MOREAD

INFO   : the flag for use of the SHARK integral package has been found!

================================================================================
                                       INPUT FILE
================================================================================
NAME = inp.inp
|  1> !OPT PBE def2-TZVP CPCM(water)
|  2> 
|  3> *xyz -1 1
|  4> C     -5.303403   -3.623241    0.471886
|  5> C     -6.503242   -4.142496    1.257592
|  6> H     -2.081071   -1.603368    2.232836
|  7> H     -1.604559   -0.771398    0.742877
|  8> H     -3.056931   -0.254689    1.617461
|  9> C     -7.346283   -5.201242    0.539354
| 10> H     -6.159442   -4.580847    2.202722
| 11> H     -7.165588   -3.304795    1.508749
| 12> O     -6.980973   -5.522605   -0.624163
| 13> O     -8.323858   -5.629519    1.218657
| 14> C     -4.495651   -2.613118    1.288521
| 15> C     -3.289235   -2.100517    0.502252
| 16> H     -5.136891   -1.768767    1.569488
| 17> H     -4.154323   -3.083246    2.218856
| 18> C     -2.461663   -1.125347    1.324406
| 19> H     -2.655423   -2.942502    0.200471
| 20> H     -3.626555   -1.603272   -0.414645
| 21> H     -4.657173   -4.462296    0.186036
| 22> H     -5.646787   -3.154178   -0.458472
| 23> *
| 24> 
| 25>                          ****END OF INPUT****
================================================================================

                       *****************************
                       * Geometry Optimization Run *
                       *****************************

Geometry optimization settings:
Update method            Update   .... BFGS
Choice of coordinates    CoordSys .... Z-matrix Internals
Initial Hessian          InHess   .... Almoef's Model

Convergence Tolerances:
Energy Change            TolE     ....  5.0000e-06 Eh
Max. Gradient            TolMAXG  ....  3.0000e-04 Eh/bohr
RMS Gradient             TolRMSG  ....  1.0000e-04 Eh/bohr
Max. Displacement        TolMAXD  ....  4.0000e-03 bohr
RMS Displacement         TolRMSD  ....  2.0000e-03 bohr
Strict Convergence                ....  False
------------------------------------------------------------------------------
                        ORCA OPTIMIZATION COORDINATE SETUP
------------------------------------------------------------------------------

The optimization will be done in new redundant internal coordinates
Making redundant internal coordinates   ...  (new redundants) done
Evaluating the initial hessian          ...  (Almloef) done
Evaluating the coordinates              ...  done
Calculating the B-matrix                .... done
Calculating the G-matrix                .... done
Diagonalizing the G-matrix              .... done
Small eigenvalue found = 1.378e-02
The first mode is                       ....   42
The number of degrees of freedom        ....   51

    -----------------------------------------------------------------
                    Redundant Internal Coordinates


    -----------------------------------------------------------------
         Definition                    Initial Value    Approx d2E/dq
    -----------------------------------------------------------------
      1. B(C   1,C   0)                  1.5253         0.380066   
      2. B(C   5,C   1)                  1.5322         0.370616   
      3. B(H   6,C   1)                  1.0971         0.350834   
      4. B(H   7,C   1)                  1.0971         0.350890   
      5. B(O   8,C   5)                  1.2611         0.898356   
      6. B(O   9,C   5)                  1.2651         0.885350   
      7. B(C  10,C   0)                  1.5296         0.374111   
      8. B(C  11,C  10)                  1.5285         0.375591   
      9. B(H  12,C  10)                  1.0968         0.351163   
     10. B(H  13,C  10)                  1.0968         0.351170   
     11. B(C  14,C  11)                  1.5205         0.386913   
     12. B(C  14,H   4)                  1.0947         0.353994   
     13. B(C  14,H   3)                  1.0946         0.354105   
     14. B(C  14,H   2)                  1.0948         0.353799   
     15. B(H  15,C  11)                  1.0962         0.351947   
     16. B(H  16,C  11)                  1.0962         0.351942   
     17. B(H  17,C   0)                  1.0970         0.351000   
     18. B(H  18,C   0)                  1.0970         0.350905   
     19. A(C   1,C   0,H  18)          109.6445         0.323859   
     20. A(C  10,C   0,H  18)          109.6152         0.323021   
     21. A(C  10,C   0,H  17)          109.4596         0.323036   
     22. A(C   1,C   0,H  17)          109.7091         0.323874   
     23. A(H  17,C   0,H  18)          106.8849         0.288502   
     24. A(C   1,C   0,C  10)          111.4196         0.364513   
     25. A(C   0,C   1,C   5)          115.2513         0.363928   
     26. A(H   6,C   1,H   7)          107.2817         0.288479   
     27. A(C   5,C   1,H   7)          107.6241         0.322522   
     28. A(C   0,C   1,H   7)          109.4451         0.323857   
     29. A(C   0,C   1,H   6)          109.4676         0.323848   
     30. A(C   5,C   1,H   6)          107.4677         0.322514   
     31. A(O   8,C   5,O   9)          129.2677         0.489127   
     32. A(C   1,C   5,O   9)          114.0409         0.419183   
     33. A(C   1,C   5,O   8)          116.6913         0.420275   
     34. A(C  11,C  10,H  13)          109.5382         0.323270   
     35. A(C   0,C  10,H  13)          109.5191         0.323061   
     36. A(C  11,C  10,H  12)          109.5745         0.323269   
     37. A(C   0,C  10,H  12)          109.6574         0.323060   
     38. A(C   0,C  10,C  11)          111.3231         0.363775   
     39. A(H  12,C  10,H  13)          107.1342         0.288557   
     40. A(H  15,C  11,H  16)          107.2203         0.288757   
     41. A(C  10,C  11,H  16)          109.8460         0.323387   
     42. A(C  14,C  11,H  15)          109.0733         0.324969   
     43. A(C  10,C  11,H  15)          109.8989         0.323388   
     44. A(C  14,C  11,H  16)          109.1979         0.324968   
     45. A(C  10,C  11,C  14)          111.5017         0.365876   
     46. A(H   4,C  14,C  11)          111.0329         0.325278   
     47. A(H   3,C  14,C  11)          110.2628         0.325295   
     48. A(H   2,C  14,C  11)          110.9685         0.325249   
     49. A(H   3,C  14,H   4)          108.1107         0.289297   
     50. A(H   2,C  14,H   4)          108.3115         0.289258   
     51. A(H   2,C  14,H   3)          108.0482         0.289272   
     52. D(H   7,C   1,C   0,C  10)     60.7269         0.011512   
     53. D(H   7,C   1,C   0,H  18)    -60.8018         0.011512   
     54. D(H   6,C   1,C   0,H  17)     64.7849         0.011512   
     55. D(H   6,C   1,C   0,C  10)    -56.5916         0.011512   
     56. D(C   5,C   1,C   0,H  18)     60.6327         0.011512   
     57. D(C   5,C   1,C   0,H  17)    -56.4621         0.011512   
     58. D(H   7,C   1,C   0,H  17)   -177.8966         0.011512   
     59. D(C   5,C   1,C   0,C  10)   -177.8386         0.011512   
     60. D(H   6,C   1,C   0,H  18)   -178.1203         0.011512   
     61. D(O   9,C   5,C   1,H   6)     56.7241         0.010283   
     62. D(O   9,C   5,C   1,C   0)    179.0490         0.010283   
     63. D(O   8,C   5,C   1,H   7)    121.4816         0.010283   
     64. D(O   9,C   5,C   1,H   7)    -58.5366         0.010283   
     65. D(O   8,C   5,C   1,C   0)     -0.9329         0.010283   
     66. D(O   8,C   5,C   1,H   6)   -123.2577         0.010283   
     67. D(H  13,C  10,C   0,H  18)    179.9228         0.011174   
     68. D(H  13,C  10,C   0,C   1)     58.3770         0.011174   
     69. D(H  12,C  10,C   0,H  17)    179.5620         0.011174   
     70. D(H  12,C  10,C   0,C   1)    -58.9164         0.011174   
     71. D(C  11,C  10,C   0,H  18)    -58.7934         0.011174   
     72. D(C  11,C  10,C   0,H  17)     58.1393         0.011174   
     73. D(H  13,C  10,C   0,H  17)    -63.1445         0.011174   
     74. D(C  11,C  10,C   0,C   1)    179.6609         0.011174   
     75. D(H  12,C  10,C   0,H  18)     62.6293         0.011174   
     76. D(H  15,C  11,C  10,H  13)     63.9279         0.011257   
     77. D(H  15,C  11,C  10,H  12)   -178.8157         0.011257   
     78. D(H  15,C  11,C  10,C   0)    -57.3447         0.011257   
     79. D(C  14,C  11,C  10,H  13)    -57.1444         0.011257   
     80. D(C  14,C  11,C  10,H  12)     60.1120         0.011257   
     81. D(H  16,C  11,C  10,C   0)     60.3895         0.011257   
     82. D(C  14,C  11,C  10,C   0)   -178.4170         0.011257   
     83. D(H  16,C  11,C  10,H  13)   -178.3379         0.011257   
     84. D(H  16,C  11,C  10,H  12)    -61.0815         0.011257   
     85. D(H   4,C  14,C  11,H  16)     61.3812         0.011910   
     86. D(H   4,C  14,C  11,H  15)    178.2584         0.011910   
     87. D(H   4,C  14,C  11,C  10)    -60.1891         0.011910   
     88. D(H   3,C  14,C  11,H  16)    -58.4185         0.011910   
     89. D(H   3,C  14,C  11,H  15)     58.4588         0.011910   
     90. D(H   3,C  14,C  11,C  10)   -179.9887         0.011910   
     91. D(H   2,C  14,C  11,H  16)   -178.0985         0.011910   
     92. D(H   2,C  14,C  11,H  15)    -61.2213         0.011910   
     93. D(H   2,C  14,C  11,C  10)     60.3312         0.011910   
    -----------------------------------------------------------------

Number of atoms                         .... 19
Number of degrees of freedom            .... 93

         *************************************************************
         *                GEOMETRY OPTIMIZATION CYCLE   1            *
         *************************************************************
---------------------------------
CARTESIAN COORDINATES (ANGSTROEM)
---------------------------------
  C     -5.303403   -3.623241    0.471886
  C     -6.503242   -4.142496    1.257592
  H     -2.081071   -1.603368    2.232836
  H     -1.604559   -0.771398    0.742877
  H     -3.056931   -0.254689    1.617461
  C     -7.346283   -5.201242    0.539354
  H     -6.159442   -4.580847    2.202722
  H     -7.165588   -3.304795    1.508749
  O     -6.980973   -5.522605   -0.624163
  O     -8.323858   -5.629519    1.218657
  C     -4.495651   -2.613118    1.288521
  C     -3.289235   -2.100517    0.502252
  H     -5.136891   -1.768767    1.569488
  H     -4.154323   -3.083246    2.218856
  C     -2.461663   -1.125347    1.324406
  H     -2.655423   -2.942502    0.200471
  H     -3.626555   -1.603272   -0.414645
  H     -4.657173   -4.462296    0.186036
  H     -5.646787   -3.154178   -0.458472

----------------------------
CARTESIAN COORDINATES (A.U.)
----------------------------
  NO LB      ZA    FRAG     MASS         X           Y           Z
   0 C     6.0000    0    12.011  -10.021979   -6.846933    0.891735
   1 C     6.0000    0    12.011  -12.289346   -7.828183    2.376504
   2 H     1.0000    0     1.008   -3.932654   -3.029926    4.219449
   3 H     1.0000    0     1.008   -3.032177   -1.457731    1.403834
   4 H     1.0000    0     1.008   -5.776762   -0.481292    3.056558
   5 C     6.0000    0    12.011  -13.882463   -9.828923    1.019231
   6 H     1.0000    0     1.008  -11.639659   -8.656546    4.162541
   7 H     1.0000    0     1.008  -13.540999   -6.245157    2.851122
   8 O     8.0000    0    15.999  -13.192127  -10.436211   -1.179497
   9 O     8.0000    0    15.999  -15.729812  -10.638249    2.302928
  10 C     6.0000    0    12.011   -8.495549   -4.938077    2.434952
  11 C     6.0000    0    12.011   -6.215753   -3.969402    0.949119
  12 H     1.0000    0     1.008   -9.707317   -3.342485    2.965902
  13 H     1.0000    0     1.008   -7.850533   -5.826491    4.193030
  14 C     6.0000    0    12.011   -4.651869   -2.126598    2.502765
  15 H     1.0000    0     1.008   -5.018022   -5.560523    0.378835
  16 H     1.0000    0     1.008   -6.853196   -3.029745   -0.783565
  17 H     1.0000    0     1.008   -8.800782   -8.432517    0.351557
  18 H     1.0000    0     1.008  -10.670881   -5.960533   -0.866387

--------------------------------
INTERNAL COORDINATES (ANGSTROEM)
--------------------------------
 C      0   0   0     0.000000000000     0.00000000     0.00000000
 C      1   0   0     1.525310886142     0.00000000     0.00000000
 H      1   2   0     4.190973079948   123.53485598     0.00000000
 H      3   1   2     1.771783166396    94.57440514   203.75002049
 H      4   3   1     1.772362770462    60.10193200    73.70566068
 C      2   1   3     1.532164170329   115.25125203   197.90244236
 H      2   1   3     1.097096511753   109.46763248   319.14944451
 H      2   1   3     1.097052882848   109.44512721    76.46796679
 O      6   2   1     1.261149231121   116.69133908   359.06713819
 O      6   2   1     1.265119217767   114.04093352   179.04897746
 C      1   2   3     1.529609261170   111.41962249   344.25895179
 C     11   1   2     1.528534687411   111.32306226   179.66086773
 H     11   1   2     1.096840828876   109.65740117   301.08356756
 H     11   1   2     1.096835608554   109.51911695    58.37704413
 C      4   3   1     1.094569842111    35.98037767    36.60223169
 H     12  11   1     1.096233626345   109.89887494   302.65527038
 H     12  11   1     1.096237876117   109.84600551    60.38945205
 H      1   2   3     1.096967058952   109.70907143   105.63543410
 H      1   2   3     1.097040873254   109.64453157   222.73025178

---------------------------
INTERNAL COORDINATES (A.U.)
---------------------------
 C      0   0   0     0.000000000000     0.00000000     0.00000000
 C      1   0   0     2.882419843896     0.00000000     0.00000000
 H      1   2   0     7.919791355739   123.53485598     0.00000000
 H      3   1   2     3.348184953181    94.57440514   203.75002049
 H      4   3   1     3.349280246132    60.10193200    73.70566068
 C      2   1   3     2.895370674129   115.25125203   197.90244236
 H      2   1   3     2.073211949694   109.46763248   319.14944451
 H      2   1   3     2.073129503012   109.44512721    76.46796679
 O      6   2   1     2.383226660825   116.69133908   359.06713819
 O      6   2   1     2.390728848340   114.04093352   179.04897746
 C      1   2   3     2.890542595522   111.41962249   344.25895179
 C     11   1   2     2.888511945405   111.32306226   179.66086773
 H     11   1   2     2.072728779079   109.65740117   301.08356756
 H     11   1   2     2.072718914101   109.51911695    58.37704413
 C      4   3   1     2.068437236038    35.98037767    36.60223169
 H     12  11   1     2.071581332588   109.89887494   302.65527038
 H     12  11   1     2.071589363493   109.84600551    60.38945205
 H      1   2   3     2.072967319352   109.70907143   105.63543410
 H      1   2   3     2.073106808167   109.64453157   222.73025178

---------------------
BASIS SET INFORMATION
---------------------
There are 3 groups of distinct atoms

 Group   1 Type C   : 11s6p2d1f contracted to 5s3p2d1f pattern {62111/411/11/1}
 Group   2 Type H   : 5s1p contracted to 3s1p pattern {311/1}
 Group   3 Type O   : 11s6p2d1f contracted to 5s3p2d1f pattern {62111/411/11/1}

Atom   0C    basis set group =>   1
Atom   1C    basis set group =>   1
Atom   2H    basis set group =>   2
Atom   3H    basis set group =>   2
Atom   4H    basis set group =>   2
Atom   5C    basis set group =>   1
Atom   6H    basis set group =>   2
Atom   7H    basis set group =>   2
Atom   8O    basis set group =>   3
Atom   9O    basis set group =>   3
Atom  10C    basis set group =>   1
Atom  11C    basis set group =>   1
Atom  12H    basis set group =>   2
Atom  13H    basis set group =>   2
Atom  14C    basis set group =>   1
Atom  15H    basis set group =>   2
Atom  16H    basis set group =>   2
Atom  17H    basis set group =>   2
Atom  18H    basis set group =>   2
---------------------------------
AUXILIARY/J BASIS SET INFORMATION
---------------------------------
There are 3 groups of distinct atoms

 Group   1 Type C   : 12s5p4d2f1g contracted to 6s4p3d1f1g pattern {711111/2111/211/2/1}
 Group   2 Type H   : 5s2p1d contracted to 3s1p1d pattern {311/2/1}
 Group   3 Type O   : 12s5p4d2f1g contracted to 6s4p3d1f1g pattern {711111/2111/211/2/1}

Atom   0C    basis set group =>   1
Atom   1C    basis set group =>   1
Atom   2H    basis set group =>   2
Atom   3H    basis set group =>   2
Atom   4H    basis set group =>   2
Atom   5C    basis set group =>   1
Atom   6H    basis set group =>   2
Atom   7H    basis set group =>   2
Atom   8O    basis set group =>   3
Atom   9O    basis set group =>   3
Atom  10C    basis set group =>   1
Atom  11C    basis set group =>   1
Atom  12H    basis set group =>   2
Atom  13H    basis set group =>   2
Atom  14C    basis set group =>   1
Atom  15H    basis set group =>   2
Atom  16H    basis set group =>   2
Atom  17H    basis set group =>   2
Atom  18H    basis set group =>   2
------------------------------------------------------------------------------
                           ORCA GTO INTEGRAL CALCULATION
                           -- RI-GTO INTEGRALS CHOSEN --
------------------------------------------------------------------------------
------------------------------------------------------------------------------
                   ___                                                        
                  /   \      - P O W E R E D   B Y -                         
                 /     \                                                     
                 |  |  |   _    _      __       _____    __    __             
                 |  |  |  | |  | |    /  \     |  _  \  |  |  /  |          
                  \  \/   | |  | |   /    \    | | | |  |  | /  /          
                 / \  \   | |__| |  /  /\  \   | |_| |  |  |/  /          
                |  |  |   |  __  | /  /__\  \  |    /   |      \           
                |  |  |   | |  | | |   __   |  |    \   |  |\   \          
                \     /   | |  | | |  |  |  |  | |\  \  |  | \   \       
                 \___/    |_|  |_| |__|  |__|  |_| \__\ |__|  \__/        
                                                                              
                      - O R C A' S   B I G   F R I E N D -                    
                                      &                                       
                       - I N T E G R A L  F E E D E R -                       
                                                                              
 v1 FN, 2020, v2 2021                                                         
------------------------------------------------------------------------------


Reading SHARK input file inp.SHARKINP.tmp ... ok
----------------------
SHARK INTEGRAL PACKAGE
----------------------

Number of atoms                             ...     19
Number of basis functions                   ...    314
Number of shells                            ...    132
Maximum angular momentum                    ...      3
Integral batch strategy                     ... SHARK/LIBINT Hybrid
RI-J (if used) integral strategy            ... SPLIT-RIJ (Revised 2003 algorithm where possible)
Printlevel                                  ...      1
Contraction scheme used                     ... SEGMENTED contraction
Coulomb Range Separation                    ... NOT USED
Exchange Range Separation                   ... NOT USED
Finite Nucleus Model                        ... NOT USED
Auxiliary Coulomb fitting basis             ... AVAILABLE
   # of basis functions in Aux-J            ...    513
   # of shells in Aux-J                     ...    175
   Maximum angular momentum in Aux-J        ...      4
Auxiliary J/K fitting basis                 ... NOT available
Auxiliary Correlation fitting basis         ... NOT available
Auxiliary 'external' fitting basis          ... NOT available
Integral threshold                          ...     2.500000e-11
Primitive cut-off                           ...     2.500000e-12
Primitive pair pre-selection threshold      ...     2.500000e-12

Calculating pre-screening integrals         ... done (  0.1 sec) Dimension = 132
Organizing shell pair data                  ... done (  0.3 sec)
Shell pair information
Total number of shell pairs                 ...      8778
Shell pairs after pre-screening             ...      7466
Total number of primitive shell pairs       ...     25860
Primitive shell pairs kept                  ...     16459
          la=0 lb=0:   2280 shell pairs
          la=1 lb=0:   2212 shell pairs
          la=1 lb=1:    560 shell pairs
          la=2 lb=0:    976 shell pairs
          la=2 lb=1:    481 shell pairs
          la=2 lb=2:    115 shell pairs
          la=3 lb=0:    476 shell pairs
          la=3 lb=1:    232 shell pairs
          la=3 lb=2:    104 shell pairs
          la=3 lb=3:     30 shell pairs

Calculating one electron integrals          ... done (  0.0 sec)
Calculating RI/J V-Matrix + Cholesky decomp.... done (  0.4 sec)
Calculating Nuclear repulsion               ... done (  0.1 sec) ENN=    359.308899974915 Eh

SHARK setup successfully completed in   1.8 seconds

Maximum memory used throughout the entire GTOINT-calculation: 87.3 MB
-------------------------------------------------------------------------------
                                 ORCA SCF
-------------------------------------------------------------------------------

------------
SCF SETTINGS
------------
Hamiltonian:
 Density Functional     Method          .... DFT(GTOs)
 Exchange Functional    Exchange        .... PBE
   PBE kappa parameter   XKappa         ....  0.804000
   PBE mue parameter    XMuePBE         ....  0.219520
 Correlation Functional Correlation     .... PBE
   PBE beta parameter  CBetaPBE         ....  0.066725
 LDA part of GGA corr.  LDAOpt          .... PW91-LDA
 Gradients option       PostSCFGGA      .... off
   Density functional embedding theory  .... OFF
   NL short-range parameter             ....  6.400000
 RI-approximation to the Coulomb term is turned on
   Number of AuxJ basis functions       .... 513


General Settings:
 Integral files         IntName         .... inp
 Hartree-Fock type      HFTyp           .... RHF
 Total Charge           Charge          ....   -1
 Multiplicity           Mult            ....    1
 Number of Electrons    NEL             ....   64
 Basis Dimension        Dim             ....  314
 Nuclear Repulsion      ENuc            ....    359.3088999749 Eh

Convergence Acceleration:
 DIIS                   CNVDIIS         .... on
   Start iteration      DIISMaxIt       ....    12
   Startup error        DIISStart       ....  0.200000
   # of expansion vecs  DIISMaxEq       ....     5
   Bias factor          DIISBfac        ....   1.050
   Max. coefficient     DIISMaxC        ....  10.000
 Trust-Rad. Augm. Hess. CNVTRAH         .... auto
   Auto Start mean grad. ratio tolernc. ....  1.125000
   Auto Start start iteration           ....    20
   Auto Start num. interpolation iter.  ....    10
   Max. Number of Micro iterations      ....    16
   Max. Number of Macro iterations      .... Maxiter - #DIIS iter
   Number of Davidson start vectors     ....     2
   Converg. threshold I  (grad. norm)   ....   1.000e-05
   Converg. threshold II (energy diff.) ....   1.000e-08
   Grad. Scal. Fac. for Micro threshold ....   0.100
   Minimum threshold for Micro iter.    ....   0.010
   NR start threshold (gradient norm)   ....   0.001
   Initial trust radius                 ....   0.400
   Minimum AH scaling param. (alpha)    ....   1.000
   Maximum AH scaling param. (alpha)    .... 1000.000
   Orbital update algorithm             .... Taylor
   White noise on init. David. guess    .... on
   Maximum white noise                  ....   0.010
   Quad. conv. algorithm                .... NR
 SOSCF                  CNVSOSCF        .... on
   Start iteration      SOSCFMaxIt      ....   150
   Startup grad/error   SOSCFStart      ....  0.003300
 Level Shifting         CNVShift        .... on
   Level shift para.    LevelShift      ....    0.2500
   Turn off err/grad.   ShiftErr        ....    0.0010
 Zerner damping         CNVZerner       .... off
 Static damping         CNVDamp         .... on
   Fraction old density DampFac         ....    0.7000
   Max. Damping (<1)    DampMax         ....    0.9800
   Min. Damping (>=0)   DampMin         ....    0.0000
   Turn off err/grad.   DampErr         ....    0.1000
 Fernandez-Rico         CNVRico         .... off

SCF Procedure:
 Maximum # iterations   MaxIter         ....   125
 SCF integral mode      SCFMode         .... Direct
   Integral package                     .... SHARK and LIBINT hybrid scheme
 Reset frequency        DirectResetFreq ....    20
 Integral Threshold     Thresh          ....  2.500e-11 Eh
 Primitive CutOff       TCut            ....  2.500e-12 Eh

Convergence Tolerance:
 Convergence Check Mode ConvCheckMode   .... Total+1el-Energy
 Convergence forced     ConvForced      .... 0
 Energy Change          TolE            ....  1.000e-08 Eh
 1-El. energy change                    ....  1.000e-05 Eh
 Orbital Gradient       TolG            ....  1.000e-05
 Orbital Rotation angle TolX            ....  1.000e-05
 DIIS Error             TolErr          ....  5.000e-07


Diagonalization of the overlap matrix:
Smallest eigenvalue                        ... 9.596e-05
Time for diagonalization                   ...    0.014 sec
Threshold for overlap eigenvalues          ... 1.000e-08
Number of eigenvalues below threshold      ... 0
Time for construction of square roots      ...    0.130 sec
Total time needed                          ...    0.145 sec

Time for model grid setup =    0.451 sec

------------------------------
INITIAL GUESS: MODEL POTENTIAL
------------------------------
Loading Hartree-Fock densities                     ... done
Calculating cut-offs                               ... done
Initializing the effective Hamiltonian             ... done
Setting up the integral package (SHARK)            ... done
Starting the Coulomb interaction                   ... done (   0.5 sec)
Reading the grid                                   ... done
Mapping shells                                     ... done
Starting the XC term evaluation                    ... done (   0.5 sec)
  promolecular density results
     # of electrons  =     62.996617348
     EX              =    -50.182192841
     EC              =     -2.070561728
     EX+EC           =    -52.252754568
Transforming the Hamiltonian                       ... done (   0.0 sec)
Diagonalizing the Hamiltonian                      ... done (   0.0 sec)
Back transforming the eigenvectors                 ... done (   0.0 sec)
Now organizing SCF variables                       ... done
                      ------------------
                      INITIAL GUESS DONE (   1.5 sec)
                      ------------------
-------------------
DFT GRID GENERATION
-------------------

General Integration Accuracy     IntAcc      ... 4.388
Radial Grid Type                 RadialGrid  ... OptM3 with GC (2021)
Angular Grid (max. ang.)         AngularGrid ... 4 (Lebedev-302)
Angular grid pruning method      GridPruning ... 4 (adaptive)
Weight generation scheme         WeightScheme... Becke
Basis function cutoff            BFCut       ... 1.0000e-11
Integration weight cutoff        WCut        ... 1.0000e-14
Angular grids for H and He will be reduced by one unit
Partially contracted basis set               ... off
Rotationally invariant grid construction     ... off

Total number of grid points                  ...    83614
Total number of batches                      ...     1316
Average number of points per batch           ...       63
Average number of grid points per atom       ...     4401
Time for grid setup =    1.208 sec


--------------------
CPCM SOLVATION MODEL
--------------------
CPCM parameters:
  Epsilon                                         ...      80.4000
  Refrac                                          ...       1.3300
  Rsolv                                           ...       1.3000
  Surface type                                    ... GAUSSIAN VDW
  Epsilon function type                           ...         CPCM
Radii:
 Radius for C  used is    3.8550 Bohr (=   2.0400 Ang.)
 Radius for H  used is    2.4944 Bohr (=   1.3200 Ang.)
 Radius for O  used is    3.4469 Bohr (=   1.8240 Ang.)
Calculating surface                               ...        done! (  0.0s)
GEPOL surface points                              ...         1108
GEPOL Volume                                      ...    1069.1047
GEPOL Surface-area                                ...     635.0058
Calculating surface distance matrix               ...        done! (  0.0s)
Performing Cholesky decomposition & store         ...        done! (  0.2s)
Overall time for CPCM initialization              ...                 0.2s
--------------
SCF ITERATIONS
--------------
ITER       Energy         Delta-E        Max-DP      RMS-DP      [F,P]     Damp
               ***  Starting incremental Fock matrix formation  ***
  0   -385.1657558758   0.000000000000 0.83486031  0.00464164  0.3062419 0.7000
  1   -385.3591586522  -0.193402776440 0.82057797  0.00433139  0.1078897 0.7000
                               ***Turning on DIIS***
  2   -385.4189671206  -0.059808468416 0.91907830  0.00513055  0.0227285 0.0000
  3   -385.5196879498  -0.100720829122 0.72749798  0.00372184  0.0611644 0.0000
  4   -385.5444178128  -0.024729863011 0.23770389  0.00121922  0.0173675 0.0000
  5   -385.5469022661  -0.002484453320 0.10622736  0.00054867  0.0069062 0.0000
                      *** Initiating the SOSCF procedure ***
                           *** Shutting down DIIS ***
                      *** Re-Reading the Fockian *** 
                      *** Removing any level shift *** 
ITER      Energy       Delta-E        Grad      Rot      Max-DP    RMS-DP
  6   -385.54711092  -0.0002086552  0.000618  0.000618  0.052501  0.000295
               *** Restarting incremental Fock matrix formation ***
  7   -385.54712367  -0.0000127483  0.000235  0.000487  0.008123  0.000042
  8   -385.54711957   0.0000040949  0.000377  0.000294  0.002397  0.000015
  9   -385.54712620  -0.0000066267  0.000079  0.000325  0.002412  0.000016
 10   -385.54712582   0.0000003766  0.000228  0.000253  0.001671  0.000012
 11   -385.54712626  -0.0000004331  0.000012  0.000032  0.000572  0.000003
 12   -385.54712624   0.0000000156  0.000022  0.000021  0.000378  0.000002
 13   -385.54712626  -0.0000000163  0.000003  0.000006  0.000129  0.000001
 14   -385.54712625   0.0000000042  0.000004  0.000004  0.000035  0.000000
                  ***Gradient check signals convergence***
              ***Rediagonalizing the Fockian in SOSCF/NRSCF***

               *****************************************************
               *                     SUCCESS                       *
               *           SCF CONVERGED AFTER  15 CYCLES          *
               *****************************************************


----------------
TOTAL SCF ENERGY
----------------

Total Energy       :         -385.54712626 Eh          -10491.27067 eV

Components:
Nuclear Repulsion  :          359.30889997 Eh            9777.29224 eV
Electronic Energy  :         -744.85602623 Eh          -20268.56291 eV
One Electron Energy:        -1247.23781754 Eh          -33939.06644 eV
Two Electron Energy:          502.38179130 Eh           13670.50354 eV
CPCM Dielectric    :           -0.11091314 Eh              -3.01810 eV

Virial components:
Potential Energy   :         -769.49531759 Eh          -20939.03211 eV
Kinetic Energy     :          383.94819133 Eh           10447.76144 eV
Virial Ratio       :            2.00416445


DFT components:
N(Alpha)           :       31.999906127696 electrons
N(Beta)            :       31.999906127696 electrons
N(Total)           :       63.999812255392 electrons
E(X)               :      -51.571227419751 Eh       
E(C)               :       -2.106408162490 Eh       
E(XC)              :      -53.677635582241 Eh       
DFET-embed. en.    :        0.000000000000 Eh       
CPCM Solvation Model Properties:
Surface-charge          :            0.96392384
Charge-correction       :           -0.00530337 Eh              -0.14431 eV
Free-energy (cav+disp)  :  This term is not implemented in the current solvation scheme

---------------
SCF CONVERGENCE
---------------

  Last Energy change         ...   -5.2731e-09  Tolerance :   1.0000e-08
  Last MAX-Density change    ...    7.0413e-05  Tolerance :   1.0000e-07
  Last RMS-Density change    ...    4.3026e-07  Tolerance :   5.0000e-09
  Last Orbital Gradient      ...    1.5525e-07  Tolerance :   1.0000e-05
  Last Orbital Rotation      ...    2.9158e-07  Tolerance :   1.0000e-05

             **** THE GBW FILE WAS UPDATED (inp.gbw) ****
             **** DENSITY inp.scfp WAS UPDATED ****
             **** ENERGY FILE WAS UPDATED (inp.en.tmp) ****
             **** THE GBW FILE WAS UPDATED (inp.gbw) ****
             **** DENSITY inp.scfp WAS UPDATED ****
----------------
ORBITAL ENERGIES
----------------

  NO   OCC          E(Eh)            E(eV) 
   0   2.0000     -18.672885      -508.1150 
   1   2.0000     -18.669422      -508.0208 
   2   2.0000      -9.934852      -270.3411 
   3   2.0000      -9.864294      -268.4211 
   4   2.0000      -9.860800      -268.3260 
   5   2.0000      -9.858494      -268.2633 
   6   2.0000      -9.856345      -268.2048 
   7   2.0000      -9.851766      -268.0802 
   8   2.0000      -0.911574       -24.8052 
   9   2.0000      -0.831349       -22.6221 
  10   2.0000      -0.718618       -19.5546 
  11   2.0000      -0.671005       -18.2590 
  12   2.0000      -0.602689       -16.4000 
  13   2.0000      -0.529960       -14.4210 
  14   2.0000      -0.505927       -13.7670 
  15   2.0000      -0.422785       -11.5046 
  16   2.0000      -0.419231       -11.4079 
  17   2.0000      -0.384886       -10.4733 
  18   2.0000      -0.376020       -10.2320 
  19   2.0000      -0.357377        -9.7247 
  20   2.0000      -0.349428        -9.5084 
  21   2.0000      -0.340593        -9.2680 
  22   2.0000      -0.331951        -9.0328 
  23   2.0000      -0.301567        -8.2061 
  24   2.0000      -0.296857        -8.0779 
  25   2.0000      -0.278285        -7.5725 
  26   2.0000      -0.276655        -7.5282 
  27   2.0000      -0.269688        -7.3386 
  28   2.0000      -0.268829        -7.3152 
  29   2.0000      -0.200017        -5.4427 
  30   2.0000      -0.175274        -4.7694 
  31   2.0000      -0.171377        -4.6634 
  32   0.0000       0.024462         0.6657 
  33   0.0000       0.031532         0.8580 
  34   0.0000       0.042120         1.1461 
  35   0.0000       0.058477         1.5912 
  36   0.0000       0.063073         1.7163 
  37   0.0000       0.081822         2.2265 
  38   0.0000       0.100428         2.7328 
  39   0.0000       0.108948         2.9646 
  40   0.0000       0.110935         3.0187 
  41   0.0000       0.114584         3.1180 
  42   0.0000       0.130631         3.5547 
  43   0.0000       0.135498         3.6871 
  44   0.0000       0.148805         4.0492 
  45   0.0000       0.153783         4.1847 
  46   0.0000       0.156854         4.2682 
  47   0.0000       0.173820         4.7299 
  48   0.0000       0.192489         5.2379 
  49   0.0000       0.197661         5.3786 
  50   0.0000       0.218902         5.9566 
  51   0.0000       0.219616         5.9761 
  52   0.0000       0.234013         6.3678 
  53   0.0000       0.242919         6.6102 
  54   0.0000       0.264521         7.1980 
  55   0.0000       0.271349         7.3838 
  56   0.0000       0.276850         7.5335 
  57   0.0000       0.283079         7.7030 
  58   0.0000       0.294232         8.0065 
  59   0.0000       0.299327         8.1451 
  60   0.0000       0.334726         9.1084 
  61   0.0000       0.355450         9.6723 
  62   0.0000       0.359945         9.7946 
  63   0.0000       0.379019        10.3136 
  64   0.0000       0.379626        10.3301 
  65   0.0000       0.382423        10.4063 
  66   0.0000       0.390795        10.6341 
  67   0.0000       0.401802        10.9336 
  68   0.0000       0.419506        11.4153 
  69   0.0000       0.428574        11.6621 
  70   0.0000       0.430707        11.7201 
  71   0.0000       0.434638        11.8271 
  72   0.0000       0.437869        11.9150 
  73   0.0000       0.441800        12.0220 
  74   0.0000       0.446484        12.1494 
  75   0.0000       0.456029        12.4092 
  76   0.0000       0.462048        12.5730 
  77   0.0000       0.466764        12.7013 
  78   0.0000       0.469713        12.7815 
  79   0.0000       0.484139        13.1741 
  80   0.0000       0.500796        13.6273 
  81   0.0000       0.502776        13.6812 
  82   0.0000       0.531231        14.4555 
  83   0.0000       0.556717        15.1490 
  84   0.0000       0.560941        15.2640 
  85   0.0000       0.577507        15.7148 
  86   0.0000       0.590626        16.0718 
  87   0.0000       0.598388        16.2830 
  88   0.0000       0.603170        16.4131 
  89   0.0000       0.652753        17.7623 
  90   0.0000       0.668305        18.1855 
  91   0.0000       0.681915        18.5558 
  92   0.0000       0.724180        19.7059 
  93   0.0000       0.744092        20.2478 
  94   0.0000       0.771365        20.9899 
  95   0.0000       0.783617        21.3233 
  96   0.0000       0.796810        21.6823 
  97   0.0000       0.812407        22.1067 
  98   0.0000       0.817945        22.2574 
  99   0.0000       0.841987        22.9116 
 100   0.0000       0.848246        23.0819 
 101   0.0000       0.854691        23.2573 
 102   0.0000       0.861776        23.4501 
 103   0.0000       0.919599        25.0236 
 104   0.0000       0.926061        25.1994 
 105   0.0000       0.957281        26.0489 
 106   0.0000       0.993207        27.0265 
 107   0.0000       0.999752        27.2046 
 108   0.0000       1.015352        27.6291 
 109   0.0000       1.016258        27.6538 
 110   0.0000       1.059231        28.8231 
 111   0.0000       1.062847        28.9215 
 112   0.0000       1.065004        28.9802 
 113   0.0000       1.067863        29.0580 
 114   0.0000       1.072251        29.1774 
 115   0.0000       1.105976        30.0951 
 116   0.0000       1.139347        31.0032 
 117   0.0000       1.142076        31.0775 
 118   0.0000       1.195042        32.5188 
 119   0.0000       1.219826        33.1932 
 120   0.0000       1.250940        34.0398 
 121   0.0000       1.282122        34.8883 
 122   0.0000       1.301424        35.4135 
 123   0.0000       1.359408        36.9914 
 124   0.0000       1.383532        37.6478 
 125   0.0000       1.410315        38.3766 
 126   0.0000       1.449002        39.4294 
 127   0.0000       1.459411        39.7126 
 128   0.0000       1.466323        39.9007 
 129   0.0000       1.469885        39.9976 
 130   0.0000       1.473411        40.0935 
 131   0.0000       1.482138        40.3310 
 132   0.0000       1.499783        40.8112 
 133   0.0000       1.512261        41.1507 
 134   0.0000       1.522098        41.4184 
 135   0.0000       1.549210        42.1562 
 136   0.0000       1.557228        42.3743 
 137   0.0000       1.564003        42.5587 
 138   0.0000       1.596594        43.4455 
 139   0.0000       1.619561        44.0705 
 140   0.0000       1.627358        44.2827 
 141   0.0000       1.685823        45.8736 
 142   0.0000       1.692287        46.0495 
 143   0.0000       1.708751        46.4975 
 144   0.0000       1.747217        47.5442 
 145   0.0000       1.750568        47.6354 
 146   0.0000       1.778995        48.4089 
 147   0.0000       1.784329        48.5541 
 148   0.0000       1.787203        48.6323 
 149   0.0000       1.818059        49.4719 
 150   0.0000       1.832601        49.8676 
 151   0.0000       1.839210        50.0475 
 152   0.0000       1.864437        50.7339 
 153   0.0000       1.872751        50.9602 
 154   0.0000       1.874235        51.0005 
 155   0.0000       1.921660        52.2910 
 156   0.0000       1.938737        52.7557 
 157   0.0000       1.957346        53.2621 
 158   0.0000       1.962233        53.3951 
 159   0.0000       2.015010        54.8312 
 160   0.0000       2.019897        54.9642 
 161   0.0000       2.053819        55.8872 
 162   0.0000       2.075356        56.4733 
 163   0.0000       2.107277        57.3419 
 164   0.0000       2.122797        57.7643 
 165   0.0000       2.137308        58.1591 
 166   0.0000       2.157416        58.7063 
 167   0.0000       2.181739        59.3681 
 168   0.0000       2.220889        60.4334 
 169   0.0000       2.234173        60.7949 
 170   0.0000       2.237102        60.8746 
 171   0.0000       2.264501        61.6202 
 172   0.0000       2.271222        61.8031 
 173   0.0000       2.312151        62.9168 
 174   0.0000       2.330599        63.4188 
 175   0.0000       2.355735        64.1028 
 176   0.0000       2.371738        64.5383 
 177   0.0000       2.377770        64.7024 
 178   0.0000       2.415153        65.7196 
 179   0.0000       2.417955        65.7959 
 180   0.0000       2.450394        66.6786 
 181   0.0000       2.469494        67.1983 
 182   0.0000       2.476856        67.3987 
 183   0.0000       2.483827        67.5884 
 184   0.0000       2.489695        67.7481 
 185   0.0000       2.516104        68.4667 
 186   0.0000       2.516775        68.4849 
 187   0.0000       2.537137        69.0390 
 188   0.0000       2.559313        69.6424 
 189   0.0000       2.569104        69.9089 
 190   0.0000       2.583307        70.2954 
 191   0.0000       2.586849        70.3917 
 192   0.0000       2.622434        71.3601 
 193   0.0000       2.642169        71.8971 
 194   0.0000       2.644946        71.9726 
 195   0.0000       2.668419        72.6114 
 196   0.0000       2.682026        72.9816 
 197   0.0000       2.685694        73.0814 
 198   0.0000       2.695392        73.3453 
 199   0.0000       2.712730        73.8171 
 200   0.0000       2.730979        74.3137 
 201   0.0000       2.759026        75.0769 
 202   0.0000       2.796764        76.1038 
 203   0.0000       2.855956        77.7145 
 204   0.0000       2.865317        77.9692 
 205   0.0000       2.888962        78.6127 
 206   0.0000       2.914386        79.3045 
 207   0.0000       2.952067        80.3298 
 208   0.0000       2.955891        80.4339 
 209   0.0000       2.957650        80.4818 
 210   0.0000       3.025256        82.3214 
 211   0.0000       3.038376        82.6784 
 212   0.0000       3.055492        83.1442 
 213   0.0000       3.061315        83.3026 
 214   0.0000       3.082819        83.8878 
 215   0.0000       3.093365        84.1748 
 216   0.0000       3.101488        84.3958 
 217   0.0000       3.136223        85.3410 
 218   0.0000       3.159649        85.9784 
 219   0.0000       3.165581        86.1398 
 220   0.0000       3.173946        86.3675 
 221   0.0000       3.180784        86.5535 
 222   0.0000       3.192245        86.8654 
 223   0.0000       3.203149        87.1621 
 224   0.0000       3.214361        87.4672 
 225   0.0000       3.247596        88.3716 
 226   0.0000       3.261185        88.7414 
 227   0.0000       3.280694        89.2722 
 228   0.0000       3.298421        89.7546 
 229   0.0000       3.313200        90.1568 
 230   0.0000       3.328554        90.5746 
 231   0.0000       3.333520        90.7097 
 232   0.0000       3.351950        91.2112 
 233   0.0000       3.371028        91.7303 
 234   0.0000       3.390441        92.2586 
 235   0.0000       3.401192        92.5512 
 236   0.0000       3.413465        92.8851 
 237   0.0000       3.435410        93.4823 
 238   0.0000       3.439546        93.5948 
 239   0.0000       3.470291        94.4314 
 240   0.0000       3.489342        94.9498 
 241   0.0000       3.493932        95.0747 
 242   0.0000       3.526180        95.9522 
 243   0.0000       3.555896        96.7609 
 244   0.0000       3.561128        96.9032 
 245   0.0000       3.570118        97.1478 
 246   0.0000       3.642051        99.1052 
 247   0.0000       3.642419        99.1153 
 248   0.0000       3.710608       100.9708 
 249   0.0000       3.764837       102.4464 
 250   0.0000       3.809283       103.6559 
 251   0.0000       3.812117       103.7330 
 252   0.0000       3.812930       103.7551 
 253   0.0000       3.829608       104.2089 
 254   0.0000       3.832825       104.2965 
 255   0.0000       3.844237       104.6070 
 256   0.0000       3.946097       107.3788 
 257   0.0000       3.961963       107.8105 
 258   0.0000       3.963436       107.8506 
 259   0.0000       3.997285       108.7717 
 260   0.0000       4.032518       109.7304 
 261   0.0000       4.139909       112.6527 
 262   0.0000       4.200998       114.3150 
 263   0.0000       4.222603       114.9029 
 264   0.0000       4.265297       116.0646 
 265   0.0000       4.272435       116.2589 
 266   0.0000       4.316884       117.4684 
 267   0.0000       4.356408       118.5439 
 268   0.0000       4.389861       119.4542 
 269   0.0000       4.413398       120.0947 
 270   0.0000       4.497731       122.3895 
 271   0.0000       4.502487       122.5189 
 272   0.0000       4.509043       122.6973 
 273   0.0000       4.516522       122.9008 
 274   0.0000       4.537868       123.4817 
 275   0.0000       4.571569       124.3987 
 276   0.0000       4.617181       125.6399 
 277   0.0000       4.648741       126.4987 
 278   0.0000       4.772106       129.8556 
 279   0.0000       4.817146       131.0812 
 280   0.0000       5.023215       136.6886 
 281   0.0000       5.046105       137.3115 
 282   0.0000       5.094640       138.6322 
 283   0.0000       5.119496       139.3086 
 284   0.0000       5.141270       139.9011 
 285   0.0000       5.185316       141.0996 
 286   0.0000       5.288896       143.9182 
 287   0.0000       5.412586       147.2840 
 288   0.0000       5.487498       149.3224 
 289   0.0000       5.502389       149.7276 
 290   0.0000       5.749893       156.4625 
 291   0.0000       5.942599       161.7063 
 292   0.0000       5.997275       163.1941 
 293   0.0000       6.027928       164.0283 
 294   0.0000       6.234282       169.6435 
 295   0.0000       6.301843       171.4819 
 296   0.0000       6.312427       171.7699 
 297   0.0000       6.356616       172.9723 
 298   0.0000       6.406361       174.3259 
 299   0.0000       6.621153       180.1707 
 300   0.0000       6.676064       181.6649 
 301   0.0000       6.774069       184.3318 
 302   0.0000       6.843939       186.2330 
 303   0.0000       7.009465       190.7372 
 304   0.0000       7.028123       191.2450 
 305   0.0000       7.160531       194.8480 
 306   0.0000      22.042018       599.7938 
 307   0.0000      22.122924       601.9954 
 308   0.0000      22.211644       604.4096 
 309   0.0000      22.257556       605.6589 
 310   0.0000      22.280719       606.2892 
 311   0.0000      23.162706       630.2893 
 312   0.0000      43.477326      1183.0782 
 313   0.0000      43.498860      1183.6642 

                    ********************************
                    * MULLIKEN POPULATION ANALYSIS *
                    ********************************

-----------------------
MULLIKEN ATOMIC CHARGES
-----------------------
   0 C :   -0.165721
   1 C :   -0.254815
   2 H :    0.115380
   3 H :    0.122594
   4 H :    0.115165
   5 C :    0.163343
   6 H :    0.088557
   7 H :    0.090996
   8 O :   -0.519920
   9 O :   -0.541465
  10 C :   -0.195014
  11 C :   -0.152766
  12 H :    0.087739
  13 H :    0.087046
  14 C :   -0.371465
  15 H :    0.091804
  16 H :    0.092310
  17 H :    0.072668
  18 H :    0.073563
Sum of atomic charges:   -1.0000000

--------------------------------
MULLIKEN REDUCED ORBITAL CHARGES
--------------------------------
  0 C s       :     3.142234  s :     3.142234
      pz      :     0.979439  p :     2.927870
      px      :     0.964747
      py      :     0.983684
      dz2     :     0.020969  d :     0.090021
      dxz     :     0.016435
      dyz     :     0.016079
      dx2y2   :     0.015962
      dxy     :     0.020577
      f0      :     0.000211  f :     0.005596
      f+1     :     0.001149
      f-1     :     0.000779
      f+2     :     0.000856
      f-2     :     0.001157
      f+3     :     0.000813
      f-3     :     0.000630
  1 C s       :     3.135538  s :     3.135538
      pz      :     1.042583  p :     3.033282
      px      :     0.980774
      py      :     1.009926
      dz2     :     0.019101  d :     0.080530
      dxz     :     0.012223
      dyz     :     0.013788
      dx2y2   :     0.014059
      dxy     :     0.021358
      f0      :     0.000282  f :     0.005465
      f+1     :     0.001040
      f-1     :     0.000864
      f+2     :     0.000656
      f-2     :     0.001137
      f+3     :     0.000841
      f-3     :     0.000645
  2 H s       :     0.863828  s :     0.863828
      pz      :     0.009493  p :     0.020792
      px      :     0.005601
      py      :     0.005698
  3 H s       :     0.856396  s :     0.856396
      pz      :     0.006366  p :     0.021009
      px      :     0.009103
      py      :     0.005540
  4 H s       :     0.864035  s :     0.864035
      pz      :     0.005148  p :     0.020800
      px      :     0.006420
      py      :     0.009232
  5 C s       :     3.000995  s :     3.000995
      pz      :     0.820362  p :     2.609050
      px      :     0.865264
      py      :     0.923424
      dz2     :     0.052650  d :     0.203074
      dxz     :     0.048437
      dyz     :     0.044597
      dx2y2   :     0.031296
      dxy     :     0.026094
      f0      :     0.003358  f :     0.023538
      f+1     :     0.006813
      f-1     :     0.003429
      f+2     :     0.003775
      f-2     :     0.002464
      f+3     :     0.001859
      f-3     :     0.001839
  6 H s       :     0.890069  s :     0.890069
      pz      :     0.010500  p :     0.021374
      px      :     0.005120
      py      :     0.005754
  7 H s       :     0.887649  s :     0.887649
      pz      :     0.005399  p :     0.021355
      px      :     0.007276
      py      :     0.008680
  8 O s       :     3.761641  s :     3.761641
      pz      :     1.416499  p :     4.731274
      px      :     1.671333
      py      :     1.643442
      dz2     :     0.009437  d :     0.025453
      dxz     :     0.006744
      dyz     :     0.006650
      dx2y2   :     0.001116
      dxy     :     0.001506
      f0      :     0.000502  f :     0.001552
      f+1     :     0.000367
      f-1     :     0.000327
      f+2     :     0.000141
      f-2     :     0.000167
      f+3     :     0.000025
      f-3     :     0.000023
  9 O s       :     3.755726  s :     3.755726
      pz      :     1.644745  p :     4.759084
      px      :     1.480924
      py      :     1.633415
      dz2     :     0.004325  d :     0.025120
      dxz     :     0.006791
      dyz     :     0.003472
      dx2y2   :     0.005643
      dxy     :     0.004890
      f0      :     0.000147  f :     0.001535
      f+1     :     0.000339
      f-1     :     0.000089
      f+2     :     0.000295
      f-2     :     0.000291
      f+3     :     0.000217
      f-3     :     0.000159
 10 C s       :     3.187769  s :     3.187769
      pz      :     0.974258  p :     2.911725
      px      :     0.956345
      py      :     0.981122
      dz2     :     0.021006  d :     0.090136
      dxz     :     0.016149
      dyz     :     0.016248
      dx2y2   :     0.015994
      dxy     :     0.020739
      f0      :     0.000177  f :     0.005384
      f+1     :     0.001062
      f-1     :     0.000796
      f+2     :     0.000857
      f-2     :     0.001080
      f+3     :     0.000786
      f-3     :     0.000625
 11 C s       :     3.172228  s :     3.172228
      pz      :     0.971589  p :     2.880095
      px      :     0.938642
      py      :     0.969863
      dz2     :     0.021494  d :     0.094947
      dxz     :     0.016241
      dyz     :     0.016875
      dx2y2   :     0.017246
      dxy     :     0.023091
      f0      :     0.000180  f :     0.005497
      f+1     :     0.001097
      f-1     :     0.000775
      f+2     :     0.000910
      f-2     :     0.001126
      f+3     :     0.000808
      f-3     :     0.000601
 12 H s       :     0.891238  s :     0.891238
      pz      :     0.005224  p :     0.021023
      px      :     0.007052
      py      :     0.008747
 13 H s       :     0.891935  s :     0.891935
      pz      :     0.010148  p :     0.021019
      px      :     0.005141
      py      :     0.005730
 14 C s       :     3.246210  s :     3.246210
      pz      :     1.022876  p :     3.067860
      px      :     1.029992
      py      :     1.014991
      dz2     :     0.012211  d :     0.054109
      dxz     :     0.011273
      dyz     :     0.009184
      dx2y2   :     0.011563
      dxy     :     0.009878
      f0      :     0.000106  f :     0.003286
      f+1     :     0.000394
      f-1     :     0.000614
      f+2     :     0.000534
      f-2     :     0.000875
      f+3     :     0.000427
      f-3     :     0.000336
 15 H s       :     0.887211  s :     0.887211
      pz      :     0.005314  p :     0.020985
      px      :     0.006935
      py      :     0.008736
 16 H s       :     0.886726  s :     0.886726
      pz      :     0.010015  p :     0.020964
      px      :     0.005099
      py      :     0.005850
 17 H s       :     0.906032  s :     0.906032
      pz      :     0.005369  p :     0.021300
      px      :     0.006892
      py      :     0.009039
 18 H s       :     0.905203  s :     0.905203
      pz      :     0.010356  p :     0.021234
      px      :     0.005294
      py      :     0.005584


                     *******************************
                     * LOEWDIN POPULATION ANALYSIS *
                     *******************************

----------------------
LOEWDIN ATOMIC CHARGES
----------------------
   0 C :   -0.283505
   1 C :   -0.281568
   2 H :    0.120297
   3 H :    0.119917
   4 H :    0.120273
   5 C :   -0.714173
   6 H :    0.140387
   7 H :    0.140668
   8 O :   -0.114560
   9 O :   -0.139916
  10 C :   -0.277465
  11 C :   -0.304473
  12 H :    0.135201
  13 H :    0.135268
  14 C :   -0.329773
  15 H :    0.134727
  16 H :    0.134710
  17 H :    0.131912
  18 H :    0.132073

-------------------------------
LOEWDIN REDUCED ORBITAL CHARGES
-------------------------------
  0 C s       :     2.781842  s :     2.781842
      pz      :     1.027920  p :     3.062437
      px      :     1.014673
      py      :     1.019845
      dz2     :     0.080431  d :     0.400131
      dxz     :     0.078800
      dyz     :     0.078317
      dx2y2   :     0.061847
      dxy     :     0.100736
      f0      :     0.003261  f :     0.039094
      f+1     :     0.007451
      f-1     :     0.005920
      f+2     :     0.006253
      f-2     :     0.005006
      f+3     :     0.006623
      f-3     :     0.004581
  1 C s       :     2.792937  s :     2.792937
      pz      :     1.033534  p :     3.078920
      px      :     1.018966
      py      :     1.026420
      dz2     :     0.074101  d :     0.373285
      dxz     :     0.071157
      dyz     :     0.066871
      dx2y2   :     0.055155
      dxy     :     0.106001
      f0      :     0.003193  f :     0.036426
      f+1     :     0.006610
      f-1     :     0.005408
      f+2     :     0.005065
      f-2     :     0.005095
      f+3     :     0.006777
      f-3     :     0.004278
  2 H s       :     0.818309  s :     0.818309
      pz      :     0.027878  p :     0.061394
      px      :     0.015785
      py      :     0.017731
  3 H s       :     0.818644  s :     0.818644
      pz      :     0.019741  p :     0.061440
      px      :     0.026112
      py      :     0.015587
  4 H s       :     0.818301  s :     0.818301
      pz      :     0.014951  p :     0.061426
      px      :     0.020109
      py      :     0.026365
  5 C s       :     2.783168  s :     2.783168
      pz      :     0.967336  p :     2.774987
      px      :     0.920207
      py      :     0.887443
      dz2     :     0.254961  d :     1.005561
      dxz     :     0.276145
      dyz     :     0.203421
      dx2y2   :     0.133561
      dxy     :     0.137472
      f0      :     0.021114  f :     0.150457
      f+1     :     0.041329
      f-1     :     0.024661
      f+2     :     0.023869
      f-2     :     0.013778
      f+3     :     0.012518
      f-3     :     0.013189
  6 H s       :     0.799700  s :     0.799700
      pz      :     0.028101  p :     0.059912
      px      :     0.014842
      py      :     0.016970
  7 H s       :     0.799343  s :     0.799343
      pz      :     0.015024  p :     0.059989
      px      :     0.020314
      py      :     0.024651
  8 O s       :     3.434159  s :     3.434159
      pz      :     1.488393  p :     4.615615
      px      :     1.581469
      py      :     1.545753
      dz2     :     0.022316  d :     0.059681
      dxz     :     0.016291
      dyz     :     0.015828
      dx2y2   :     0.002830
      dxy     :     0.002416
      f0      :     0.001407  f :     0.005105
      f+1     :     0.001403
      f-1     :     0.001214
      f+2     :     0.000554
      f-2     :     0.000441
      f+3     :     0.000040
      f-3     :     0.000046
  9 O s       :     3.438650  s :     3.438650
      pz      :     1.593763  p :     4.637183
      px      :     1.495942
      py      :     1.547478
      dz2     :     0.010700  d :     0.059040
      dxz     :     0.018005
      dyz     :     0.006554
      dx2y2   :     0.010503
      dxy     :     0.013279
      f0      :     0.000534  f :     0.005043
      f+1     :     0.001187
      f-1     :     0.000236
      f+2     :     0.000945
      f-2     :     0.000967
      f+3     :     0.000482
      f-3     :     0.000692
 10 C s       :     2.782039  s :     2.782039
      pz      :     1.025252  p :     3.056826
      px      :     1.012179
      py      :     1.019394
      dz2     :     0.080981  d :     0.399771
      dxz     :     0.079563
      dyz     :     0.075820
      dx2y2   :     0.061747
      dxy     :     0.101660
      f0      :     0.003161  f :     0.038828
      f+1     :     0.007439
      f-1     :     0.005881
      f+2     :     0.006360
      f-2     :     0.004855
      f+3     :     0.006581
      f-3     :     0.004550
 11 C s       :     2.783381  s :     2.783381
      pz      :     1.028970  p :     3.075191
      px      :     1.020296
      py      :     1.025925
      dz2     :     0.079241  d :     0.406405
      dxz     :     0.081064
      dyz     :     0.078903
      dx2y2   :     0.063886
      dxy     :     0.103312
      f0      :     0.003306  f :     0.039495
      f+1     :     0.007578
      f-1     :     0.005929
      f+2     :     0.006347
      f-2     :     0.004931
      f+3     :     0.006835
      f-3     :     0.004570
 12 H s       :     0.805605  s :     0.805605
      pz      :     0.014365  p :     0.059194
      px      :     0.019963
      py      :     0.024867
 13 H s       :     0.805571  s :     0.805571
      pz      :     0.027148  p :     0.059161
      px      :     0.014975
      py      :     0.017038
 14 C s       :     2.836595  s :     2.836595
      pz      :     1.071347  p :     3.201399
      px      :     1.063843
      py      :     1.066209
      dz2     :     0.049543  d :     0.266623
      dxz     :     0.058048
      dyz     :     0.052143
      dx2y2   :     0.044427
      dxy     :     0.062462
      f0      :     0.002740  f :     0.025156
      f+1     :     0.002943
      f-1     :     0.005004
      f+2     :     0.004074
      f-2     :     0.003120
      f+3     :     0.004086
      f-3     :     0.003189
 15 H s       :     0.806258  s :     0.806258
      pz      :     0.014461  p :     0.059014
      px      :     0.019656
      py      :     0.024897
 16 H s       :     0.806264  s :     0.806264
      pz      :     0.026512  p :     0.059026
      px      :     0.015052
      py      :     0.017462
 17 H s       :     0.809050  s :     0.809050
      pz      :     0.014479  p :     0.059039
      px      :     0.019390
      py      :     0.025170
 18 H s       :     0.808956  s :     0.808956
      pz      :     0.027207  p :     0.058972
      px      :     0.015290
      py      :     0.016475


                      *****************************
                      * MAYER POPULATION ANALYSIS *
                      *****************************

  NA   - Mulliken gross atomic population
  ZA   - Total nuclear charge
  QA   - Mulliken gross atomic charge
  VA   - Mayer's total valence
  BVA  - Mayer's bonded valence
  FA   - Mayer's free valence

  ATOM       NA         ZA         QA         VA         BVA        FA
  0 C      6.1657     6.0000    -0.1657     3.9221     3.9221    -0.0000
  1 C      6.2548     6.0000    -0.2548     3.6462     3.6462    -0.0000
  2 H      0.8846     1.0000     0.1154     0.9726     0.9726     0.0000
  3 H      0.8774     1.0000     0.1226     0.9661     0.9661     0.0000
  4 H      0.8848     1.0000     0.1152     0.9724     0.9724    -0.0000
  5 C      5.8367     6.0000     0.1633     4.7076     4.7076     0.0000
  6 H      0.9114     1.0000     0.0886     0.9930     0.9930    -0.0000
  7 H      0.9090     1.0000     0.0910     0.9905     0.9905    -0.0000
  8 O      8.5199     8.0000    -0.5199     1.8991     1.8991    -0.0000
  9 O      8.5415     8.0000    -0.5415     1.8829     1.8829     0.0000
 10 C      6.1950     6.0000    -0.1950     3.9458     3.9458    -0.0000
 11 C      6.1528     6.0000    -0.1528     3.9246     3.9246     0.0000
 12 H      0.9123     1.0000     0.0877     0.9712     0.9712     0.0000
 13 H      0.9130     1.0000     0.0870     0.9719     0.9719    -0.0000
 14 C      6.3715     6.0000    -0.3715     3.9113     3.9113     0.0000
 15 H      0.9082     1.0000     0.0918     0.9697     0.9697     0.0000
 16 H      0.9077     1.0000     0.0923     0.9695     0.9695     0.0000
 17 H      0.9273     1.0000     0.0727     0.9945     0.9945     0.0000
 18 H      0.9264     1.0000     0.0736     0.9915     0.9915    -0.0000

  Mayer bond orders larger than 0.100000
B(  0-C ,  1-C ) :   0.9864 B(  0-C , 10-C ) :   1.0068 B(  0-C , 17-H ) :   0.9495 
B(  0-C , 18-H ) :   0.9479 B(  1-C ,  5-C ) :   0.9444 B(  1-C ,  6-H ) :   0.9347 
B(  1-C ,  7-H ) :   0.9336 B(  1-C ,  8-O ) :  -0.1146 B(  2-H , 14-C ) :   0.9680 
B(  3-H , 14-C ) :   0.9684 B(  4-H , 14-C ) :   0.9678 B(  5-C ,  8-O ) :   1.8667 
B(  5-C ,  9-O ) :   1.8666 B( 10-C , 11-C ) :   1.0265 B( 10-C , 12-H ) :   0.9465 
B( 10-C , 13-H ) :   0.9466 B( 11-C , 14-C ) :   1.0028 B( 11-C , 15-H ) :   0.9510 
B( 11-C , 16-H ) :   0.9508 

-------
TIMINGS
-------

Total SCF time: 0 days 0 hours 1 min 7 sec 

Total time                  ....      67.090 sec
Sum of individual times     ....      63.792 sec  ( 95.1%)

Fock matrix formation       ....      59.994 sec  ( 89.4%)
  Split-RI-J                ....      10.574 sec  ( 17.6% of F)
  XC integration            ....      27.614 sec  ( 46.0% of F)
    Basis function eval.    ....       8.847 sec  ( 32.0% of XC)
    Density eval.           ....       6.765 sec  ( 24.5% of XC)
    XC-Functional eval.     ....       1.164 sec  (  4.2% of XC)
    XC-Potential eval.      ....       7.507 sec  ( 27.2% of XC)
Diagonalization             ....       0.135 sec  (  0.2%)
Density matrix formation    ....       0.015 sec  (  0.0%)
Population analysis         ....       0.143 sec  (  0.2%)
Initial guess               ....       1.054 sec  (  1.6%)
Orbital Transformation      ....       0.000 sec  (  0.0%)
Orbital Orthonormalization  ....       0.000 sec  (  0.0%)
DIIS solution               ....       0.289 sec  (  0.4%)
SOSCF solution              ....       0.501 sec  (  0.7%)
Grid generation             ....       1.659 sec  (  2.5%)

Maximum memory used throughout the entire SCF-calculation: 116.8 MB

-------------------------   --------------------
FINAL SINGLE POINT ENERGY      -385.547126259664
-------------------------   --------------------

------------------------------------------------------------------------------
                         ORCA SCF GRADIENT CALCULATION
------------------------------------------------------------------------------

Gradient of the Kohn-Sham DFT energy:
Kohn-Sham wavefunction type      ... RKS
Hartree-Fock exchange scaling    ...    0.000
Number of operators              ...    1
Number of atoms                  ...   19
Basis set dimensions             ...  314
Integral neglect threshold       ... 2.5e-11
Integral primitive cutoff        ... 2.5e-12
SHARK Integral package           ... ON

Nuc. rep. gradient       (SHARK) ... done (  0.0 sec)
HCore & Overlap gradient (SHARK) ... done (  0.6 sec)
RI-J gradient            (SHARK) ... done (  2.9 sec)
Exchange-correlation gradient    ... done

------------------
CARTESIAN GRADIENT
------------------

   1   C   :    0.002990983   -0.003522629   -0.011408937
   2   C   :   -0.007050751   -0.001548253    0.007162530
   3   H   :   -0.001301536    0.000949180   -0.003556102
   4   H   :   -0.004052854   -0.002982416    0.000103772
   5   H   :    0.001594794   -0.003292104   -0.001679739
   6   C   :   -0.006321676   -0.009522844   -0.008111170
   7   H   :    0.000137915    0.000085969   -0.004620240
   8   H   :    0.002352684   -0.002385577   -0.003319378
   9   O   :    0.007810427    0.009821118    0.007145659
  10   O   :    0.008492779    0.009542450    0.005174970
  11   C   :   -0.002935116    0.004770381    0.014467616
  12   C   :    0.001310367   -0.003932334   -0.010094142
  13   H   :    0.002154560   -0.003603006   -0.001851311
  14   H   :   -0.001404771    0.001341163   -0.004140432
  15   C   :   -0.003560467   -0.000680350    0.004164244
  16   H   :   -0.001049770    0.004005279    0.002074935
  17   H   :    0.001988151   -0.000399962    0.004075168
  18   H   :   -0.001615067    0.002236265    0.001348516
  19   H   :    0.000459348   -0.000882331    0.003064040

Difference to translation invariance:
           :   -0.0000000000    0.0000000000   -0.0000000000

Difference to rotation invariance:
           :   -0.0008116846    0.0001685873   -0.0003274289

Norm of the cartesian gradient     ...    0.0380055691
RMS gradient                       ...    0.0050339606
MAX gradient                       ...    0.0144676157

-------
TIMINGS
-------

Total SCF gradient time            ...       17.983 sec

One electron gradient       ....       0.579 sec  (  3.2%)
RI-J Coulomb gradient       ....       2.934 sec  ( 16.3%)
XC gradient                 ....      12.128 sec  ( 67.4%)
CPCM gradient               ....       1.010 sec  (  5.6%)
   A-Matrix (El+Nuc)        ....       0.070 sec  (  0.4%)
   Potential                ....       0.940 sec  (  5.2%)

Maximum memory used throughout the entire SCFGRAD-calculation: 106.2 MB
------------------------------------------------------------------------------
                         ORCA GEOMETRY RELAXATION STEP
------------------------------------------------------------------------------

Reading the OPT-File                    .... done
Getting information on internals        .... done
Copying old internal coords+grads       .... done
Making the new internal coordinates     .... (new redundants).... done
Validating the new internal coordinates .... (new redundants).... done
Calculating the B-matrix                .... done
Calculating the G,G- and P matrices     .... done
Transforming gradient to internals      .... done
Projecting the internal gradient        .... done
Number of atoms                         ....  19
Number of internal coordinates          ....  93
Current Energy                          ....  -385.547126260 Eh
Current gradient norm                   ....     0.038005569 Eh/bohr
Maximum allowed component of the step   ....  0.300
Current trust radius                    ....  0.300
Evaluating the initial hessian          ....  (Almloef) done
Projecting the Hessian                  .... done
Forming the augmented Hessian           .... done
Diagonalizing the augmented Hessian     .... done
Last element of RFO vector              ....  0.992724001
Lowest eigenvalues of augmented Hessian:
 -0.004103054  0.010283486  0.010286379  0.011173894  0.011260270
Length of the computed step             ....  0.121294570
The final length of the internal step   ....  0.121294570
Converting the step to cartesian space:
 Initial RMS(Int)=    0.0125776610
Transforming coordinates:
 Iter   0:  RMS(Cart)=    0.0432943494 RMS(Int)=    0.6515821061
 Iter   1:  RMS(Cart)=    0.0003145243 RMS(Int)=    0.0002172597
 Iter   2:  RMS(Cart)=    0.0000121015 RMS(Int)=    0.0000049319
 Iter   3:  RMS(Cart)=    0.0000003743 RMS(Int)=    0.0000003102
 Iter   4:  RMS(Cart)=    0.0000000153 RMS(Int)=    0.0000000076
done
Storing new coordinates                 .... done

                                .--------------------.
          ----------------------|Geometry convergence|-------------------------
          Item                value                   Tolerance       Converged
          ---------------------------------------------------------------------
          RMS gradient        0.0040684975            0.0001000000      NO
          MAX gradient        0.0195540664            0.0003000000      NO
          RMS step            0.0125776610            0.0020000000      NO
          MAX step            0.0415930100            0.0040000000      NO
          ........................................................
          Max(Bonds)      0.0201      Max(Angles)    2.38
          Max(Dihed)        1.39      Max(Improp)    0.00
          ---------------------------------------------------------------------

The optimization has not yet converged - more geometry cycles are needed


    ---------------------------------------------------------------------------
                         Redundant Internal Coordinates
                            (Angstroem and degrees)

        Definition                    Value    dE/dq     Step     New-Value
    ----------------------------------------------------------------------------
[...]
 307   0.0000      22.088789       601.0665 
 308   0.0000      22.180807       603.5704 
 309   0.0000      22.216727       604.5479 
 310   0.0000      22.237954       605.1255 
 311   0.0000      23.101233       628.6165 
 312   0.0000      43.449551      1182.3224 
 313   0.0000      43.489540      1183.4105 

                    ********************************
                    * MULLIKEN POPULATION ANALYSIS *
                    ********************************

-----------------------
MULLIKEN ATOMIC CHARGES
-----------------------
   0 C :   -0.162289
   1 C :   -0.252567
   2 H :    0.116582
   3 H :    0.127114
   4 H :    0.116938
   5 C :    0.160266
   6 H :    0.093046
   7 H :    0.094888
   8 O :   -0.528531
   9 O :   -0.545850
  10 C :   -0.198996
  11 C :   -0.156327
  12 H :    0.087634
  13 H :    0.087880
  14 C :   -0.374547
  15 H :    0.093068
  16 H :    0.092715
  17 H :    0.075610
  18 H :    0.073363
Sum of atomic charges:   -1.0000000

--------------------------------
MULLIKEN REDUCED ORBITAL CHARGES
--------------------------------
  0 C s       :     3.141164  s :     3.141164
      pz      :     0.977343  p :     2.924444
      px      :     0.961808
      py      :     0.985292
      dz2     :     0.021223  d :     0.091194
      dxz     :     0.016491
      dyz     :     0.016173
      dx2y2   :     0.016366
      dxy     :     0.020941
      f0      :     0.000197  f :     0.005487
      f+1     :     0.001121
      f-1     :     0.000739
      f+2     :     0.000844
      f-2     :     0.001128
      f+3     :     0.000815
      f-3     :     0.000642
  1 C s       :     3.142147  s :     3.142147
      pz      :     1.036719  p :     3.024373
      px      :     0.976680
      py      :     1.010974
      dz2     :     0.018740  d :     0.080826
      dxz     :     0.012748
      dyz     :     0.014214
      dx2y2   :     0.013893
      dxy     :     0.021230
      f0      :     0.000277  f :     0.005221
      f+1     :     0.000992
      f-1     :     0.000736
      f+2     :     0.000654
      f-2     :     0.001173
      f+3     :     0.000820
      f-3     :     0.000569
  2 H s       :     0.862792  s :     0.862792
      pz      :     0.009800  p :     0.020626
      px      :     0.005452
      py      :     0.005374
  3 H s       :     0.852041  s :     0.852041
      pz      :     0.006170  p :     0.020845
      px      :     0.009175
      py      :     0.005500
  4 H s       :     0.862440  s :     0.862440
      pz      :     0.004986  p :     0.020622
      px      :     0.006456
      py      :     0.009180
  5 C s       :     3.012307  s :     3.012307
      pz      :     0.815384  p :     2.602480
      px      :     0.877690
      py      :     0.909406
      dz2     :     0.050984  d :     0.201870
      dxz     :     0.050885
      dyz     :     0.046891
      dx2y2   :     0.029136
      dxy     :     0.023974
      f0      :     0.003340  f :     0.023076
      f+1     :     0.007143
      f-1     :     0.003748
      f+2     :     0.003187
      f-2     :     0.002200
      f+3     :     0.001778
      f-3     :     0.001680
  6 H s       :     0.885768  s :     0.885768
      pz      :     0.010342  p :     0.021185
      px      :     0.004970
      py      :     0.005873
  7 H s       :     0.883928  s :     0.883928
      pz      :     0.005648  p :     0.021183
      px      :     0.006990
      py      :     0.008545
  8 O s       :     3.764309  s :     3.764309
      pz      :     1.406010  p :     4.737170
      px      :     1.695542
      py      :     1.635617
      dz2     :     0.009864  d :     0.025495
      dxz     :     0.006740
      dyz     :     0.007071
      dx2y2   :     0.000791
      dxy     :     0.001029
      f0      :     0.000533  f :     0.001557
      f+1     :     0.000392
      f-1     :     0.000380
      f+2     :     0.000103
      f-2     :     0.000120
      f+3     :     0.000016
      f-3     :     0.000013
  9 O s       :     3.759686  s :     3.759686
      pz      :     1.665179  p :     4.759342
      px      :     1.484077
      py      :     1.610085
      dz2     :     0.004350  d :     0.025275
      dxz     :     0.006701
      dyz     :     0.003620
      dx2y2   :     0.005612
      dxy     :     0.004992
      f0      :     0.000157  f :     0.001546
      f+1     :     0.000330
      f-1     :     0.000096
      f+2     :     0.000294
      f-2     :     0.000299
      f+3     :     0.000213
      f-3     :     0.000156
 10 C s       :     3.196058  s :     3.196058
      pz      :     0.972779  p :     2.905907
      px      :     0.955250
      py      :     0.977878
      dz2     :     0.021534  d :     0.091696
      dxz     :     0.016503
      dyz     :     0.015970
      dx2y2   :     0.016584
      dxy     :     0.021106
      f0      :     0.000174  f :     0.005335
      f+1     :     0.001033
      f-1     :     0.000769
      f+2     :     0.000831
      f-2     :     0.001067
      f+3     :     0.000821
      f-3     :     0.000639
 11 C s       :     3.176406  s :     3.176406
      pz      :     0.971105  p :     2.879210
      px      :     0.940442
      py      :     0.967663
      dz2     :     0.022315  d :     0.095319
      dxz     :     0.015730
      dyz     :     0.016091
      dx2y2   :     0.017524
      dxy     :     0.023659
      f0      :     0.000188  f :     0.005392
      f+1     :     0.001037
      f-1     :     0.000781
      f+2     :     0.000827
      f-2     :     0.001077
      f+3     :     0.000829
      f-3     :     0.000654
 12 H s       :     0.891614  s :     0.891614
      pz      :     0.005220  p :     0.020752
      px      :     0.006911
      py      :     0.008621
 13 H s       :     0.891370  s :     0.891370
      pz      :     0.010181  p :     0.020749
      px      :     0.005008
      py      :     0.005560
 14 C s       :     3.249008  s :     3.249008
      pz      :     1.026196  p :     3.068820
      px      :     1.033078
      py      :     1.009546
      dz2     :     0.012847  d :     0.053504
      dxz     :     0.010721
      dyz     :     0.008085
      dx2y2   :     0.011413
      dxy     :     0.010437
      f0      :     0.000135  f :     0.003216
      f+1     :     0.000363
      f-1     :     0.000629
      f+2     :     0.000453
      f-2     :     0.000805
      f+3     :     0.000439
      f-3     :     0.000391
 15 H s       :     0.886166  s :     0.886166
      pz      :     0.005174  p :     0.020767
      px      :     0.006937
      py      :     0.008656
 16 H s       :     0.886516  s :     0.886516
      pz      :     0.010280  p :     0.020769
      px      :     0.005010
      py      :     0.005479
 17 H s       :     0.903339  s :     0.903339
      pz      :     0.005352  p :     0.021051
      px      :     0.006839
      py      :     0.008860
 18 H s       :     0.905484  s :     0.905484
      pz      :     0.010472  p :     0.021153
      px      :     0.005188
      py      :     0.005493


                     *******************************
                     * LOEWDIN POPULATION ANALYSIS *
                     *******************************

----------------------
LOEWDIN ATOMIC CHARGES
----------------------
   0 C :   -0.285300
   1 C :   -0.279819
   2 H :    0.121280
   3 H :    0.121338
   4 H :    0.121318
   5 C :   -0.698223
   6 H :    0.141340
   7 H :    0.142635
   8 O :   -0.130162
   9 O :   -0.149071
  10 C :   -0.280594
  11 C :   -0.305013
  12 H :    0.136521
  13 H :    0.136329
  14 C :   -0.330279
  15 H :    0.135390
  16 H :    0.135459
  17 H :    0.133696
  18 H :    0.133157

-------------------------------
LOEWDIN REDUCED ORBITAL CHARGES
-------------------------------
  0 C s       :     2.785146  s :     2.785146
      pz      :     1.028640  p :     3.064043
      px      :     1.014618
      py      :     1.020785
      dz2     :     0.080316  d :     0.397906
      dxz     :     0.078020
      dyz     :     0.076517
      dx2y2   :     0.062787
      dxy     :     0.100266
      f0      :     0.003203  f :     0.038205
      f+1     :     0.007077
      f-1     :     0.005660
      f+2     :     0.006037
      f-2     :     0.004896
      f+3     :     0.006705
      f-3     :     0.004627
  1 C s       :     2.799812  s :     2.799812
      pz      :     1.032828  p :     3.079274
      px      :     1.019505
      py      :     1.026940
      dz2     :     0.069419  d :     0.366042
      dxz     :     0.072452
      dyz     :     0.068444
      dx2y2   :     0.053650
      dxy     :     0.102077
      f0      :     0.003342  f :     0.034691
      f+1     :     0.006275
      f-1     :     0.004806
      f+2     :     0.004518
      f-2     :     0.004963
      f+3     :     0.006746
      f-3     :     0.004041
  2 H s       :     0.818177  s :     0.818177
      pz      :     0.028710  p :     0.060543
      px      :     0.015301
      py      :     0.016532
  3 H s       :     0.817924  s :     0.817924
      pz      :     0.019073  p :     0.060739
      px      :     0.026374
      py      :     0.015292
  4 H s       :     0.818137  s :     0.818137
      pz      :     0.014321  p :     0.060544
      px      :     0.020169
      py      :     0.026054
  5 C s       :     2.791891  s :     2.791891
      pz      :     0.974294  p :     2.769870
      px      :     0.919282
      py      :     0.876294
      dz2     :     0.259093  d :     0.987153
      dxz     :     0.274613
      dyz     :     0.208829
      dx2y2   :     0.118669
      dxy     :     0.125948
      f0      :     0.021640  f :     0.149309
      f+1     :     0.043709
      f-1     :     0.026276
      f+2     :     0.020845
      f-2     :     0.013137
      f+3     :     0.011545
      f-3     :     0.012156
  6 H s       :     0.799574  s :     0.799574
      pz      :     0.027639  p :     0.059086
      px      :     0.014269
      py      :     0.017177
  7 H s       :     0.798271  s :     0.798271
      pz      :     0.015286  p :     0.059094
      px      :     0.019472
      py      :     0.024336
  8 O s       :     3.441296  s :     3.441296
      pz      :     1.488075  p :     4.625030
      px      :     1.596526
      py      :     1.540429
      dz2     :     0.024289  d :     0.058834
      dxz     :     0.015539
      dyz     :     0.015617
      dx2y2   :     0.001812
      dxy     :     0.001577
      f0      :     0.001661  f :     0.005003
      f+1     :     0.001348
      f-1     :     0.001281
      f+2     :     0.000373
      f-2     :     0.000297
      f+3     :     0.000019
      f-3     :     0.000023
  9 O s       :     3.444026  s :     3.444026
      pz      :     1.611817  p :     4.641678
      px      :     1.496493
      py      :     1.533367
      dz2     :     0.010750  d :     0.058406
      dxz     :     0.017532
      dyz     :     0.006980
      dx2y2   :     0.010130
      dxy     :     0.013015
      f0      :     0.000540  f :     0.004962
      f+1     :     0.001149
      f-1     :     0.000268
      f+2     :     0.000878
      f-2     :     0.001004
      f+3     :     0.000453
      f-3     :     0.000669
 10 C s       :     2.786602  s :     2.786602
      pz      :     1.024954  p :     3.056544
      px      :     1.012869
      py      :     1.018720
      dz2     :     0.081522  d :     0.399571
      dxz     :     0.078658
      dyz     :     0.074300
      dx2y2   :     0.062784
      dxy     :     0.102307
      f0      :     0.003102  f :     0.037877
      f+1     :     0.007049
      f-1     :     0.005622
      f+2     :     0.006014
      f-2     :     0.004699
      f+3     :     0.006760
      f-3     :     0.004631
 11 C s       :     2.788998  s :     2.788998
      pz      :     1.028712  p :     3.075618
      px      :     1.020950
      py      :     1.025956
      dz2     :     0.082734  d :     0.402234
      dxz     :     0.076922
      dyz     :     0.073823
      dx2y2   :     0.064044
      dxy     :     0.104711
      f0      :     0.003083  f :     0.038163
      f+1     :     0.006988
      f-1     :     0.005773
      f+2     :     0.006077
      f-2     :     0.004720
      f+3     :     0.006731
      f-3     :     0.004790
 12 H s       :     0.805581  s :     0.805581
      pz      :     0.014137  p :     0.057897
      px      :     0.019415
      py      :     0.024346
 13 H s       :     0.805742  s :     0.805742
      pz      :     0.027094  p :     0.057929
      px      :     0.014468
      py      :     0.016368
 14 C s       :     2.842656  s :     2.842656
      pz      :     1.072722  p :     3.202639
      px      :     1.065006
      py      :     1.064911
      dz2     :     0.052178  d :     0.260757
      dxz     :     0.054177
      dyz     :     0.047283
      dx2y2   :     0.043864
      dxy     :     0.063256
      f0      :     0.002531  f :     0.024227
      f+1     :     0.002617
      f-1     :     0.004968
      f+2     :     0.003898
      f-2     :     0.002970
      f+3     :     0.003883
      f-3     :     0.003359
 15 H s       :     0.806631  s :     0.806631
      pz      :     0.013974  p :     0.057979
      px      :     0.019539
      py      :     0.024466
 16 H s       :     0.806567  s :     0.806567
      pz      :     0.027127  p :     0.057974
      px      :     0.014660
      py      :     0.016187
 17 H s       :     0.808267  s :     0.808267
      pz      :     0.014295  p :     0.058037
      px      :     0.019043
      py      :     0.024700
 18 H s       :     0.808594  s :     0.808594
      pz      :     0.027312  p :     0.058249
      px      :     0.014842
      py      :     0.016096


                      *****************************
                      * MAYER POPULATION ANALYSIS *
                      *****************************

  NA   - Mulliken gross atomic population
  ZA   - Total nuclear charge
  QA   - Mulliken gross atomic charge
  VA   - Mayer's total valence
  BVA  - Mayer's bonded valence
  FA   - Mayer's free valence

  ATOM       NA         ZA         QA         VA         BVA        FA
  0 C      6.1623     6.0000    -0.1623     3.9183     3.9183     0.0000
  1 C      6.2526     6.0000    -0.2526     3.6320     3.6320     0.0000
  2 H      0.8834     1.0000     0.1166     0.9716     0.9716    -0.0000
  3 H      0.8729     1.0000     0.1271     0.9656     0.9656     0.0000
  4 H      0.8831     1.0000     0.1169     0.9717     0.9717     0.0000
  5 C      5.8397     6.0000     0.1603     4.7015     4.7015    -0.0000
  6 H      0.9070     1.0000     0.0930     0.9917     0.9917     0.0000
  7 H      0.9051     1.0000     0.0949     0.9885     0.9885     0.0000
  8 O      8.5285     8.0000    -0.5285     1.8896     1.8896    -0.0000
  9 O      8.5458     8.0000    -0.5458     1.8786     1.8786    -0.0000
 10 C      6.1990     6.0000    -0.1990     3.9430     3.9430    -0.0000
 11 C      6.1563     6.0000    -0.1563     3.9235     3.9235    -0.0000
 12 H      0.9124     1.0000     0.0876     0.9706     0.9706    -0.0000
 13 H      0.9121     1.0000     0.0879     0.9702     0.9702    -0.0000
 14 C      6.3745     6.0000    -0.3745     3.9129     3.9129     0.0000
 15 H      0.9069     1.0000     0.0931     0.9685     0.9685     0.0000
 16 H      0.9073     1.0000     0.0927     0.9688     0.9688     0.0000
 17 H      0.9244     1.0000     0.0756     0.9890     0.9890    -0.0000
 18 H      0.9266     1.0000     0.0734     0.9950     0.9950     0.0000

  Mayer bond orders larger than 0.100000
B(  0-C ,  1-C ) :   0.9843 B(  0-C , 10-C ) :   1.0033 B(  0-C , 17-H ) :   0.9483 
B(  0-C , 18-H ) :   0.9462 B(  1-C ,  5-C ) :   0.9294 B(  1-C ,  6-H ) :   0.9345 
B(  1-C ,  7-H ) :   0.9319 B(  1-C ,  8-O ) :  -0.1156 B(  2-H , 14-C ) :   0.9669 
B(  3-H , 14-C ) :   0.9667 B(  4-H , 14-C ) :   0.9670 B(  5-C ,  8-O ) :   1.8707 
B(  5-C ,  9-O ) :   1.8665 B( 10-C , 11-C ) :   1.0206 B( 10-C , 12-H ) :   0.9472 
B( 10-C , 13-H ) :   0.9469 B( 11-C , 14-C ) :   1.0033 B( 11-C , 15-H ) :   0.9508 
B( 11-C , 16-H ) :   0.9509 

-------
TIMINGS
-------

Total SCF time: 0 days 0 hours 0 min 35 sec 

Total time                  ....      35.910 sec
Sum of individual times     ....      33.676 sec  ( 93.8%)

Fock matrix formation       ....      31.826 sec  ( 88.6%)
  Split-RI-J                ....       5.698 sec  ( 17.9% of F)
  XC integration            ....      14.451 sec  ( 45.4% of F)
    Basis function eval.    ....       4.842 sec  ( 33.5% of XC)
    Density eval.           ....       3.627 sec  ( 25.1% of XC)
    XC-Functional eval.     ....       0.656 sec  (  4.5% of XC)
    XC-Potential eval.      ....       3.157 sec  ( 21.8% of XC)
Diagonalization             ....       0.018 sec  (  0.1%)
Density matrix formation    ....       0.009 sec  (  0.0%)
Population analysis         ....       0.216 sec  (  0.6%)
Initial guess               ....       0.022 sec  (  0.1%)
Orbital Transformation      ....       0.000 sec  (  0.0%)
Orbital Orthonormalization  ....       0.018 sec  (  0.0%)
DIIS solution               ....       0.004 sec  (  0.0%)
SOSCF solution              ....       0.343 sec  (  1.0%)
Grid generation             ....       1.238 sec  (  3.4%)

Maximum memory used throughout the entire SCF-calculation: 116.3 MB

-------------------------   --------------------
FINAL SINGLE POINT ENERGY      -385.549779856872
-------------------------   --------------------

                                *** OPTIMIZATION RUN DONE ***

                            ***************************************
                            *     ORCA property calculations      *
                            ***************************************

                                    ---------------------
                                    Active property flags
                                    ---------------------
   (+) Dipole Moment


------------------------------------------------------------------------------
                       ORCA ELECTRIC PROPERTIES CALCULATION
------------------------------------------------------------------------------

Dipole Moment Calculation                       ... on
Quadrupole Moment Calculation                   ... off
Polarizability Calculation                      ... off
GBWName                                         ... inp.gbw
Electron density                                ... inp.scfp
The origin for moment calculation is the CENTER OF MASS  = (-10.623912, -7.089356  1.390971)

-------------
DIPOLE MOMENT
-------------
                                X             Y             Z
Electronic contribution:    -10.71734      -9.09802      -2.25787
Nuclear contribution   :     15.03717      12.83283       3.35037
                        -----------------------------------------
Total Dipole Moment    :      4.31984       3.73482       1.09250
                        -----------------------------------------
Magnitude (a.u.)       :      5.81407
Magnitude (Debye)      :     14.77819



--------------------
Rotational spectrum 
--------------------
 
Rotational constants in cm-1:     0.246663     0.021767     0.020383 
Rotational constants in MHz :  7394.761193   652.546603   611.071202 

 Dipole components along the rotational axes: 
x,y,z [a.u.] :     5.782109     0.608794    -0.002212 
x,y,z [Debye]:    14.696952     1.547431    -0.005622 

 

Timings for individual modules:

Sum of individual times         ...      543.759 sec (=   9.063 min)
GTO integral calculation        ...       13.111 sec (=   0.219 min)   2.4 %
SCF iterations                  ...      388.845 sec (=   6.481 min)  71.5 %
SCF Gradient evaluation         ...      140.813 sec (=   2.347 min)  25.9 %
Geometry relaxation             ...        0.990 sec (=   0.017 min)   0.2 %
                             ****ORCA TERMINATED NORMALLY****
TOTAL RUN TIME: 0 days 0 hours 9 minutes 9 seconds 265 msec
