
                                 *****************
                                 * O   R   C   A *
                                 *****************

                                            #,                                       
                                            ###                                      
                                            ####                                     
                                            #####                                    
                                            ######                                   
                                           ########,                                 
                                     ,,################,,,,,                         
                               ,,#################################,,                 
                          ,,##########################################,,             
                       ,#########################################, ''#####,          
                    ,#############################################,,   '####,        
                  ,##################################################,,,,####,       
                ,###########''''           ''''###############################       
              ,#####''   ,,,,##########,,,,          '''####'''          '####       
            ,##' ,,,,###########################,,,                        '##       
           ' ,,###''''                  '''############,,,                           
         ,,##''                                '''############,,,,        ,,,,,,###''
      ,#''                                            '''#######################'''  
     '                                                          ''''####''''         
             ,#######,   #######,   ,#######,      ##                                
            ,#'     '#,  ##    ##  ,#'     '#,    #''#        ######   ,####,        
            ##       ##  ##   ,#'  ##            #'  '#       #        #'  '#        
            ##       ##  #######   ##           ,######,      #####,   #    #        
            '#,     ,#'  ##    ##  '#,     ,#' ,#      #,         ##   #,  ,#        
             '#######'   ##     ##  '#######'  #'      '#     #####' # '####'        



                  #######################################################
                  #                        -***-                        #
                  #          Department of theory and spectroscopy      #
                  #    Directorship and core code : Frank Neese         #
                  #        Max Planck Institute fuer Kohlenforschung    #
                  #                Kaiser Wilhelm Platz 1               #
                  #                 D-45470 Muelheim/Ruhr               #
                  #                      Germany                        #
                  #                                                     #
                  #                  All rights reserved                #
                  #                        -***-                        #
                  #######################################################


                         Program Version 5.0.4 -  RELEASE  -


 With contributions from (in alphabetic order):
   Daniel Aravena         : Magnetic Suceptibility
   Michael Atanasov       : Ab Initio Ligand Field Theory (pilot matlab implementation)
   Alexander A. Auer      : GIAO ZORA, VPT2 properties, NMR spectrum
   Ute Becker             : Parallelization
   Giovanni Bistoni       : ED, misc. LED, open-shell LED, HFLD
   Martin Brehm           : Molecular dynamics
   Dmytro Bykov           : SCF Hessian
   Vijay G. Chilkuri      : MRCI spin determinant printing, contributions to CSF-ICE
   Dipayan Datta          : RHF DLPNO-CCSD density
   Achintya Kumar Dutta   : EOM-CC, STEOM-CC
   Dmitry Ganyushin       : Spin-Orbit,Spin-Spin,Magnetic field MRCI
   Miquel Garcia          : C-PCM and meta-GGA Hessian, CC/C-PCM, Gaussian charge scheme
   Yang Guo               : DLPNO-NEVPT2, F12-NEVPT2, CIM, IAO-localization
   Andreas Hansen         : Spin unrestricted coupled pair/coupled cluster methods
   Benjamin Helmich-Paris : MC-RPA, TRAH-SCF, COSX integrals
   Lee Huntington         : MR-EOM, pCC
   Robert Izsak           : Overlap fitted RIJCOSX, COSX-SCS-MP3, EOM
   Marcus Kettner         : VPT2
   Christian Kollmar      : KDIIS, OOCD, Brueckner-CCSD(T), CCSD density, CASPT2, CASPT2-K
   Simone Kossmann        : Meta GGA functionals, TD-DFT gradient, OOMP2, MP2 Hessian
   Martin Krupicka        : Initial AUTO-CI
   Lucas Lang             : DCDCAS
   Marvin Lechner         : AUTO-CI (C++ implementation), FIC-MRCC
   Dagmar Lenk            : GEPOL surface, SMD
   Dimitrios Liakos       : Extrapolation schemes; Compound Job, initial MDCI parallelization
   Dimitrios Manganas     : Further ROCIS development; embedding schemes
   Dimitrios Pantazis     : SARC Basis sets
   Anastasios Papadopoulos: AUTO-CI, single reference methods and gradients
   Taras Petrenko         : DFT Hessian,TD-DFT gradient, ASA, ECA, R-Raman, ABS, FL, XAS/XES, NRVS
   Peter Pinski           : DLPNO-MP2, DLPNO-MP2 Gradient
   Christoph Reimann      : Effective Core Potentials
   Marius Retegan         : Local ZFS, SOC
   Christoph Riplinger    : Optimizer, TS searches, QM/MM, DLPNO-CCSD(T), (RO)-DLPNO pert. Triples
   Tobias Risthaus        : Range-separated hybrids, TD-DFT gradient, RPA, STAB
   Michael Roemelt        : Original ROCIS implementation
   Masaaki Saitow         : Open-shell DLPNO-CCSD energy and density
   Barbara Sandhoefer     : DKH picture change effects
   Avijit Sen             : IP-ROCIS
   Kantharuban Sivalingam : CASSCF convergence, NEVPT2, FIC-MRCI
   Bernardo de Souza      : ESD, SOC TD-DFT
   Georgi Stoychev        : AutoAux, RI-MP2 NMR, DLPNO-MP2 response
   Willem Van den Heuvel  : Paramagnetic NMR
   Boris Wezisla          : Elementary symmetry handling
   Frank Wennmohs         : Technical directorship


 We gratefully acknowledge several colleagues who have allowed us to
 interface, adapt or use parts of their codes:
   Stefan Grimme, W. Hujo, H. Kruse, P. Pracht,  : VdW corrections, initial TS optimization,
                  C. Bannwarth, S. Ehlert          DFT functionals, gCP, sTDA/sTD-DF
   Ed Valeev, F. Pavosevic, A. Kumar             : LibInt (2-el integral package), F12 methods
   Garnet Chan, S. Sharma, J. Yang, R. Olivares  : DMRG
   Ulf Ekstrom                                   : XCFun DFT Library
   Mihaly Kallay                                 : mrcc  (arbitrary order and MRCC methods)
   Jiri Pittner, Ondrej Demel                    : Mk-CCSD
   Frank Weinhold                                : gennbo (NPA and NBO analysis)
   Christopher J. Cramer and Donald G. Truhlar   : smd solvation model
   Lars Goerigk                                  : TD-DFT with DH, B97 family of functionals
   V. Asgeirsson, H. Jonsson                     : NEB implementation
   FAccTs GmbH                                   : IRC, NEB, NEB-TS, DLPNO-Multilevel, CI-OPT
                                                   MM, QMMM, 2- and 3-layer-ONIOM, Crystal-QMMM,
                                                   LR-CPCM, SF, NACMEs, symmetry and pop. for TD-DFT,
                                                   nearIR, NL-DFT gradient (VV10), updates on ESD,
                                                   ML-optimized integration grids
   S Lehtola, MJT Oliveira, MAL Marques          : LibXC Library
   Liviu Ungur et al                             : ANISO software


 Your calculation uses the libint2 library for the computation of 2-el integrals
 For citations please refer to: http://libint.valeyev.net

 Your ORCA version has been built with support for libXC version: 5.1.0
 For citations please refer to: https://tddft.org/programs/libxc/

 This ORCA versions uses:
   CBLAS   interface :  Fast vector & matrix operations
   LAPACKE interface :  Fast linear algebra routines
   SCALAPACK package :  Parallel linear algebra routines
   Shared memory     :  Shared parallel matrices
   BLAS/LAPACK       :  OpenBLAS 0.3.15  USE64BITINT DYNAMIC_ARCH NO_AFFINITY Haswell SINGLE_THREADED
        Core in use  :  Haswell
   Copyright (c) 2011-2014, The OpenBLAS Project


Your calculation utilizes the atom-pairwise dispersion correction
with the Becke-Johnson damping scheme (D3BJ)
Cite in your paper:
S.Grimme, S.Ehrlich, L.Goerigk, J Comput Chem, (2011), 32, 1456–1465 
S.Grimme, J.Antony, S.Ehrlich and H.Krieg, J.Chem.Phys., 132, (2010), 154104 
   

================================================================================

----- Orbital basis set information -----
Your calculation utilizes the basis: def2-TZVP
   F. Weigend and R. Ahlrichs, Phys. Chem. Chem. Phys. 7, 3297 (2005).

----- AuxJ basis set information -----
Your calculation utilizes the auxiliary basis: def2/J
   F. Weigend, Phys. Chem. Chem. Phys. 8, 1057 (2006).

================================================================================
                                        WARNINGS
                       Please study these warnings very carefully!
================================================================================


WARNING: Geometry Optimization
  ===> : Switching off AutoStart
         For restart on a previous wavefunction, please use MOREAD

INFO   : the flag for use of the SHARK integral package has been found!

================================================================================
                                       INPUT FILE
================================================================================
NAME = inp.inp
|  1> !OPT PBE D3BJ def2-TZVP CPCM(water)
|  2> 
|  3> *xyz -1 1
|  4> C     -7.046002   -4.552722    1.558691
|  5> C     -8.043668   -3.409858    1.584479
|  6> O     -7.652471   -5.727997    1.029235
|  7> H     -6.148685   -4.287035    0.987437
|  8> H     -6.727697   -4.782628    2.580652
|  9> O     -7.587248   -5.599823   -0.369982
| 10> H     -8.367829   -3.150914    0.571268
| 11> H     -8.941026   -3.694411    2.143732
| 12> H     -7.604592   -2.521881    2.048008
| 13> *
| 14> 
| 15>                          ****END OF INPUT****
================================================================================

                       *****************************
                       * Geometry Optimization Run *
                       *****************************

Geometry optimization settings:
Update method            Update   .... BFGS
Choice of coordinates    CoordSys .... Z-matrix Internals
Initial Hessian          InHess   .... Almoef's Model

Convergence Tolerances:
Energy Change            TolE     ....  5.0000e-06 Eh
Max. Gradient            TolMAXG  ....  3.0000e-04 Eh/bohr
RMS Gradient             TolRMSG  ....  1.0000e-04 Eh/bohr
Max. Displacement        TolMAXD  ....  4.0000e-03 bohr
RMS Displacement         TolRMSD  ....  2.0000e-03 bohr
Strict Convergence                ....  False
------------------------------------------------------------------------------
                        ORCA OPTIMIZATION COORDINATE SETUP
------------------------------------------------------------------------------

The optimization will be done in new redundant internal coordinates
Making redundant internal coordinates   ...  (new redundants) done
Evaluating the initial hessian          ...  (Almloef) done
Evaluating the coordinates              ...  done
Calculating the B-matrix                .... done
Calculating the G-matrix                .... done
Diagonalizing the G-matrix              .... done
The first mode is                       ....   12
The number of degrees of freedom        ....   21

    -----------------------------------------------------------------
                    Redundant Internal Coordinates


    -----------------------------------------------------------------
         Definition                    Initial Value    Approx d2E/dq
    -----------------------------------------------------------------
      1. B(C   1,C   0)                  1.5173         0.391445   
      2. B(O   2,C   0)                  1.4246         0.492857   
      3. B(H   3,C   0)                  1.0964         0.351729   
      4. B(H   4,C   0)                  1.0948         0.353811   
      5. B(O   5,O   2)                  1.4066         0.471571   
      6. B(H   6,C   1)                  1.0949         0.353722   
      7. B(H   7,C   1)                  1.0950         0.353569   
      8. B(H   8,C   1)                  1.0937         0.355256   
      9. A(O   2,C   0,H   4)          107.3051         0.336500   
     10. A(C   1,C   0,H   4)          109.4805         0.325874   
     11. A(C   1,C   0,O   2)          110.3534         0.381786   
     12. A(H   3,C   0,H   4)          107.4156         0.288969   
     13. A(C   1,C   0,H   3)          111.3748         0.325558   
     14. A(O   2,C   0,H   3)          110.7747         0.336169   
     15. A(H   7,C   1,H   8)          108.8768         0.289390   
     16. A(H   6,C   1,H   8)          108.6057         0.289409   
     17. A(C   0,C   1,H   8)          110.7802         0.326093   
     18. A(H   6,C   1,H   7)          106.9462         0.289194   
     19. A(C   0,C   1,H   7)          110.5975         0.325838   
     20. A(C   0,C   1,H   6)          110.9219         0.325861   
     21. A(C   0,O   2,O   5)          105.9498         0.389336   
     22. D(H   7,C   1,C   0,H   4)    -62.2877         0.012178   
     23. D(H   6,C   1,C   0,H   3)     60.5758         0.012178   
     24. D(H   7,C   1,C   0,O   2)     55.6013         0.012178   
     25. D(H   6,C   1,C   0,O   2)    -62.8908         0.012178   
     26. D(H   6,C   1,C   0,H   4)    179.2203         0.012178   
     27. D(H   8,C   1,C   0,O   2)    176.4179         0.012178   
     28. D(H   8,C   1,C   0,H   3)    -60.1155         0.012178   
     29. D(H   8,C   1,C   0,H   4)     58.5289         0.012178   
     30. D(H   7,C   1,C   0,H   3)    179.0679         0.012178   
     31. D(O   5,O   2,C   0,H   4)   -158.2272         0.019187   
     32. D(O   5,O   2,C   0,H   3)    -41.2597         0.019187   
     33. D(O   5,O   2,C   0,C   1)     82.5544         0.019187   
    -----------------------------------------------------------------

Number of atoms                         .... 9
Number of degrees of freedom            .... 33

         *************************************************************
         *                GEOMETRY OPTIMIZATION CYCLE   1            *
         *************************************************************
---------------------------------
CARTESIAN COORDINATES (ANGSTROEM)
---------------------------------
  C     -7.046002   -4.552722    1.558691
  C     -8.043668   -3.409858    1.584479
  O     -7.652471   -5.727997    1.029235
  H     -6.148685   -4.287035    0.987437
  H     -6.727697   -4.782628    2.580652
  O     -7.587248   -5.599823   -0.369982
  H     -8.367829   -3.150914    0.571268
  H     -8.941026   -3.694411    2.143732
  H     -7.604592   -2.521881    2.048008

----------------------------
CARTESIAN COORDINATES (A.U.)
----------------------------
  NO LB      ZA    FRAG     MASS         X           Y           Z
   0 C     6.0000    0    12.011  -13.315014   -8.603398    2.945499
   1 C     6.0000    0    12.011  -15.200330   -6.443698    2.994231
   2 O     8.0000    0    15.999  -14.461074  -10.824346    1.944972
   3 H     1.0000    0     1.008  -11.619331   -8.101322    1.865986
   4 H     1.0000    0     1.008  -12.713505   -9.037857    4.876726
   5 O     8.0000    0    15.999  -14.337821  -10.582132   -0.699165
   6 H     1.0000    0     1.008  -15.812905   -5.954365    1.079540
   7 H     1.0000    0     1.008  -16.896090   -6.981425    4.051066
   8 H     1.0000    0     1.008  -14.370596   -4.765664    3.870174

--------------------------------
INTERNAL COORDINATES (ANGSTROEM)
--------------------------------
 C      0   0   0     0.000000000000     0.00000000     0.00000000
 C      1   0   0     1.517280656634     0.00000000     0.00000000
 O      1   2   0     1.424569980563   110.35336268     0.00000000
 H      1   2   3     1.096402532364   111.37481594   123.46660230
 H      1   2   3     1.094796386266   109.48053452   242.11106889
 O      3   1   2     1.406588364481   105.94975944    82.55442640
 H      2   1   3     1.094864776846   110.92193972   297.10920140
 H      2   1   3     1.094982058292   110.59750262    55.60126804
 H      2   1   3     1.093686435934   110.78021716   176.41788076

---------------------------
INTERNAL COORDINATES (A.U.)
---------------------------
 C      0   0   0     0.000000000000     0.00000000     0.00000000
 C      1   0   0     2.867244909335     0.00000000     0.00000000
 O      1   2   0     2.692047121870   110.35336268     0.00000000
 H      1   2   3     2.071900518706   111.37481594   123.46660230
 H      1   2   3     2.068865342450   109.48053452   242.11106889
 O      3   1   2     2.658066792030   105.94975944    82.55442640
 H      2   1   3     2.068994581916   110.92193972   297.10920140
 H      2   1   3     2.069216211730   110.59750262    55.60126804
 H      2   1   3     2.066767840300   110.78021716   176.41788076

---------------------
BASIS SET INFORMATION
---------------------
There are 3 groups of distinct atoms

 Group   1 Type C   : 11s6p2d1f contracted to 5s3p2d1f pattern {62111/411/11/1}
 Group   2 Type O   : 11s6p2d1f contracted to 5s3p2d1f pattern {62111/411/11/1}
 Group   3 Type H   : 5s1p contracted to 3s1p pattern {311/1}

Atom   0C    basis set group =>   1
Atom   1C    basis set group =>   1
Atom   2O    basis set group =>   2
Atom   3H    basis set group =>   3
Atom   4H    basis set group =>   3
Atom   5O    basis set group =>   2
Atom   6H    basis set group =>   3
Atom   7H    basis set group =>   3
Atom   8H    basis set group =>   3
---------------------------------
AUXILIARY/J BASIS SET INFORMATION
---------------------------------
There are 3 groups of distinct atoms

 Group   1 Type C   : 12s5p4d2f1g contracted to 6s4p3d1f1g pattern {711111/2111/211/2/1}
 Group   2 Type O   : 12s5p4d2f1g contracted to 6s4p3d1f1g pattern {711111/2111/211/2/1}
 Group   3 Type H   : 5s2p1d contracted to 3s1p1d pattern {311/2/1}

Atom   0C    basis set group =>   1
Atom   1C    basis set group =>   1
Atom   2O    basis set group =>   2
Atom   3H    basis set group =>   3
Atom   4H    basis set group =>   3
Atom   5O    basis set group =>   2
Atom   6H    basis set group =>   3
Atom   7H    basis set group =>   3
Atom   8H    basis set group =>   3
------------------------------------------------------------------------------
                           ORCA GTO INTEGRAL CALCULATION
                           -- RI-GTO INTEGRALS CHOSEN --
------------------------------------------------------------------------------
------------------------------------------------------------------------------
                   ___                                                        
                  /   \      - P O W E R E D   B Y -                         
                 /     \                                                     
                 |  |  |   _    _      __       _____    __    __             
                 |  |  |  | |  | |    /  \     |  _  \  |  |  /  |          
                  \  \/   | |  | |   /    \    | | | |  |  | /  /          
                 / \  \   | |__| |  /  /\  \   | |_| |  |  |/  /          
                |  |  |   |  __  | /  /__\  \  |    /   |      \           
                |  |  |   | |  | | |   __   |  |    \   |  |\   \          
                \     /   | |  | | |  |  |  |  | |\  \  |  | \   \       
                 \___/    |_|  |_| |__|  |__|  |_| \__\ |__|  \__/        
                                                                              
                      - O R C A' S   B I G   F R I E N D -                    
                                      &                                       
                       - I N T E G R A L  F E E D E R -                       
                                                                              
 v1 FN, 2020, v2 2021                                                         
------------------------------------------------------------------------------


Reading SHARK input file inp.SHARKINP.tmp ... ok
----------------------
SHARK INTEGRAL PACKAGE
----------------------

Number of atoms                             ...      9
Number of basis functions                   ...    154
Number of shells                            ...     64
Maximum angular momentum                    ...      3
Integral batch strategy                     ... SHARK/LIBINT Hybrid
RI-J (if used) integral strategy            ... SPLIT-RIJ (Revised 2003 algorithm where possible)
Printlevel                                  ...      1
Contraction scheme used                     ... SEGMENTED contraction
Coulomb Range Separation                    ... NOT USED
Exchange Range Separation                   ... NOT USED
Finite Nucleus Model                        ... NOT USED
Auxiliary Coulomb fitting basis             ... AVAILABLE
   # of basis functions in Aux-J            ...    251
   # of shells in Aux-J                     ...     85
   Maximum angular momentum in Aux-J        ...      4
Auxiliary J/K fitting basis                 ... NOT available
Auxiliary Correlation fitting basis         ... NOT available
Auxiliary 'external' fitting basis          ... NOT available
Integral threshold                          ...     2.500000e-11
Primitive cut-off                           ...     2.500000e-12
Primitive pair pre-selection threshold      ...     2.500000e-12

Calculating pre-screening integrals         ... done (  0.0 sec) Dimension = 64
Organizing shell pair data                  ... done (  0.5 sec)
Shell pair information
Total number of shell pairs                 ...      2080
Shell pairs after pre-screening             ...      2027
Total number of primitive shell pairs       ...      6208
Primitive shell pairs kept                  ...      4931
          la=0 lb=0:    599 shell pairs
          la=1 lb=0:    584 shell pairs
          la=1 lb=1:    153 shell pairs
          la=2 lb=0:    272 shell pairs
          la=2 lb=1:    135 shell pairs
          la=2 lb=2:     36 shell pairs
          la=3 lb=0:    138 shell pairs
          la=3 lb=1:     68 shell pairs
          la=3 lb=2:     32 shell pairs
          la=3 lb=3:     10 shell pairs

Calculating one electron integrals          ... done (  0.0 sec)
Calculating RI/J V-Matrix + Cholesky decomp.... done (  0.1 sec)
Calculating Nuclear repulsion               ... done (  0.2 sec) ENN=    124.493270773271 Eh

SHARK setup successfully completed in   2.0 seconds

Maximum memory used throughout the entire GTOINT-calculation: 29.9 MB
-------------------------------------------------------------------------------
                                 ORCA SCF
-------------------------------------------------------------------------------

------------
SCF SETTINGS
------------
Hamiltonian:
 Density Functional     Method          .... DFT(GTOs)
 Exchange Functional    Exchange        .... PBE
   PBE kappa parameter   XKappa         ....  0.804000
   PBE mue parameter    XMuePBE         ....  0.219520
 Correlation Functional Correlation     .... PBE
   PBE beta parameter  CBetaPBE         ....  0.066725
 LDA part of GGA corr.  LDAOpt          .... PW91-LDA
 Gradients option       PostSCFGGA      .... off
   Density functional embedding theory  .... OFF
   NL short-range parameter             ....  6.400000
 RI-approximation to the Coulomb term is turned on
   Number of AuxJ basis functions       .... 251


General Settings:
 Integral files         IntName         .... inp
 Hartree-Fock type      HFTyp           .... RHF
 Total Charge           Charge          ....   -1
 Multiplicity           Mult            ....    1
 Number of Electrons    NEL             ....   34
 Basis Dimension        Dim             ....  154
 Nuclear Repulsion      ENuc            ....    124.4932707733 Eh

Convergence Acceleration:
 DIIS                   CNVDIIS         .... on
   Start iteration      DIISMaxIt       ....    12
   Startup error        DIISStart       ....  0.200000
   # of expansion vecs  DIISMaxEq       ....     5
   Bias factor          DIISBfac        ....   1.050
   Max. coefficient     DIISMaxC        ....  10.000
 Trust-Rad. Augm. Hess. CNVTRAH         .... auto
   Auto Start mean grad. ratio tolernc. ....  1.125000
   Auto Start start iteration           ....    20
   Auto Start num. interpolation iter.  ....    10
   Max. Number of Micro iterations      ....    16
   Max. Number of Macro iterations      .... Maxiter - #DIIS iter
   Number of Davidson start vectors     ....     2
   Converg. threshold I  (grad. norm)   ....   1.000e-05
   Converg. threshold II (energy diff.) ....   1.000e-08
   Grad. Scal. Fac. for Micro threshold ....   0.100
   Minimum threshold for Micro iter.    ....   0.010
   NR start threshold (gradient norm)   ....   0.001
   Initial trust radius                 ....   0.400
   Minimum AH scaling param. (alpha)    ....   1.000
   Maximum AH scaling param. (alpha)    .... 1000.000
   Orbital update algorithm             .... Taylor
   White noise on init. David. guess    .... on
   Maximum white noise                  ....   0.010
   Quad. conv. algorithm                .... NR
 SOSCF                  CNVSOSCF        .... on
   Start iteration      SOSCFMaxIt      ....   150
   Startup grad/error   SOSCFStart      ....  0.003300
 Level Shifting         CNVShift        .... on
   Level shift para.    LevelShift      ....    0.2500
   Turn off err/grad.   ShiftErr        ....    0.0010
 Zerner damping         CNVZerner       .... off
 Static damping         CNVDamp         .... on
   Fraction old density DampFac         ....    0.7000
   Max. Damping (<1)    DampMax         ....    0.9800
   Min. Damping (>=0)   DampMin         ....    0.0000
   Turn off err/grad.   DampErr         ....    0.1000
 Fernandez-Rico         CNVRico         .... off

SCF Procedure:
 Maximum # iterations   MaxIter         ....   125
 SCF integral mode      SCFMode         .... Direct
   Integral package                     .... SHARK and LIBINT hybrid scheme
 Reset frequency        DirectResetFreq ....    20
 Integral Threshold     Thresh          ....  2.500e-11 Eh
 Primitive CutOff       TCut            ....  2.500e-12 Eh

Convergence Tolerance:
 Convergence Check Mode ConvCheckMode   .... Total+1el-Energy
 Convergence forced     ConvForced      .... 0
 Energy Change          TolE            ....  1.000e-08 Eh
 1-El. energy change                    ....  1.000e-05 Eh
 Orbital Gradient       TolG            ....  1.000e-05
 Orbital Rotation angle TolX            ....  1.000e-05
 DIIS Error             TolErr          ....  5.000e-07


Diagonalization of the overlap matrix:
Smallest eigenvalue                        ... 4.323e-04
Time for diagonalization                   ...    0.005 sec
Threshold for overlap eigenvalues          ... 1.000e-08
Number of eigenvalues below threshold      ... 0
Time for construction of square roots      ...    0.225 sec
Total time needed                          ...    0.230 sec

Time for model grid setup =    0.248 sec

------------------------------
INITIAL GUESS: MODEL POTENTIAL
------------------------------
Loading Hartree-Fock densities                     ... done
Calculating cut-offs                               ... done
Initializing the effective Hamiltonian             ... done
Setting up the integral package (SHARK)            ... done
Starting the Coulomb interaction                   ... done (   0.2 sec)
Reading the grid                                   ... done
Mapping shells                                     ... done
Starting the XC term evaluation                    ... done (   0.1 sec)
  promolecular density results
     # of electrons  =     32.997700845
     EX              =    -27.900784569
     EC              =     -1.079099260
     EX+EC           =    -28.979883829
Transforming the Hamiltonian                       ... done (   0.0 sec)
Diagonalizing the Hamiltonian                      ... done (   0.0 sec)
Back transforming the eigenvectors                 ... done (   0.0 sec)
Now organizing SCF variables                       ... done
                      ------------------
                      INITIAL GUESS DONE (   0.6 sec)
                      ------------------
-------------------
DFT GRID GENERATION
-------------------

General Integration Accuracy     IntAcc      ... 4.388
Radial Grid Type                 RadialGrid  ... OptM3 with GC (2021)
Angular Grid (max. ang.)         AngularGrid ... 4 (Lebedev-302)
Angular grid pruning method      GridPruning ... 4 (adaptive)
Weight generation scheme         WeightScheme... Becke
Basis function cutoff            BFCut       ... 1.0000e-11
Integration weight cutoff        WCut        ... 1.0000e-14
Angular grids for H and He will be reduced by one unit
Partially contracted basis set               ... off
Rotationally invariant grid construction     ... off

Total number of grid points                  ...    40576
Total number of batches                      ...      639
Average number of points per batch           ...       63
Average number of grid points per atom       ...     4508
Time for grid setup =    0.556 sec


--------------------
CPCM SOLVATION MODEL
--------------------
CPCM parameters:
  Epsilon                                         ...      80.4000
  Refrac                                          ...       1.3300
  Rsolv                                           ...       1.3000
  Surface type                                    ... GAUSSIAN VDW
  Epsilon function type                           ...         CPCM
Radii:
 Radius for C  used is    3.8550 Bohr (=   2.0400 Ang.)
 Radius for O  used is    3.4469 Bohr (=   1.8240 Ang.)
 Radius for H  used is    2.4944 Bohr (=   1.3200 Ang.)
Calculating surface                               ...        done! (  0.0s)
GEPOL surface points                              ...          560
GEPOL Volume                                      ...     562.3184
GEPOL Surface-area                                ...     370.4660
Calculating surface distance matrix               ...        done! (  0.0s)
Performing Cholesky decomposition & store         ...        done! (  0.2s)
Overall time for CPCM initialization              ...                 0.2s
--------------
SCF ITERATIONS
--------------
ITER       Energy         Delta-E        Max-DP      RMS-DP      [F,P]     Damp
               ***  Starting incremental Fock matrix formation  ***
  0   -229.3075197571   0.000000000000 0.12192858  0.00315402  0.3324109 0.7000
  1   -229.4076887462  -0.100168989033 0.10360948  0.00253019  0.1071080 0.7000
                               ***Turning on DIIS***
  2   -229.4381012828  -0.030412536632 0.13149998  0.00364344  0.0255071 0.0000
  3   -229.4923582011  -0.054256918266 0.10047518  0.00192651  0.0601987 0.0000
  4   -229.5044360226  -0.012077821527 0.02323412  0.00054725  0.0276953 0.0000
  5   -229.5055406643  -0.001104641728 0.01466393  0.00031782  0.0107444 0.0000
                      *** Initiating the SOSCF procedure ***
                           *** Shutting down DIIS ***
                      *** Re-Reading the Fockian *** 
                      *** Removing any level shift *** 
ITER      Energy       Delta-E        Grad      Rot      Max-DP    RMS-DP
  6   -229.50569607  -0.0001554017  0.000736  0.000736  0.007539  0.000176
               *** Restarting incremental Fock matrix formation ***
  7   -229.50570888  -0.0000128138  0.000287  0.001679  0.007130  0.000177
  8   -229.50570695   0.0000019285  0.000485  0.000818  0.003265  0.000076
  9   -229.50571397  -0.0000070148  0.000089  0.000515  0.002046  0.000051
 10   -229.50571380   0.0000001627  0.000192  0.000222  0.000791  0.000019
 11   -229.50571424  -0.0000004359  0.000057  0.000378  0.001348  0.000034
 12   -229.50571429  -0.0000000492  0.000025  0.000107  0.000400  0.000010
 13   -229.50571431  -0.0000000192  0.000012  0.000051  0.000188  0.000005
 14   -229.50571431  -0.0000000007  0.000007  0.000033  0.000121  0.000003
                 **** Energy Check signals convergence ****
              ***Rediagonalizing the Fockian in SOSCF/NRSCF***

               *****************************************************
               *                     SUCCESS                       *
               *           SCF CONVERGED AFTER  15 CYCLES          *
               *****************************************************


----------------
TOTAL SCF ENERGY
----------------

Total Energy       :         -229.50571431 Eh           -6245.16798 eV

Components:
Nuclear Repulsion  :          124.49327077 Eh            3387.63412 eV
Electronic Energy  :         -353.99898508 Eh           -9632.80211 eV
One Electron Energy:         -568.45798306 Eh          -15468.52812 eV
Two Electron Energy:          214.45899797 Eh            5835.72602 eV
CPCM Dielectric    :           -0.12414788 Eh              -3.37824 eV

Virial components:
Potential Energy   :         -458.23661186 Eh          -12469.25213 eV
Kinetic Energy     :          228.73089755 Eh            6224.08415 eV
Virial Ratio       :            2.00338746


DFT components:
N(Alpha)           :       16.999980862623 electrons
N(Beta)            :       16.999980862623 electrons
N(Total)           :       33.999961725246 electrons
E(X)               :      -28.711564566982 Eh       
E(C)               :       -1.115407727763 Eh       
E(XC)              :      -29.826972294746 Eh       
DFET-embed. en.    :        0.000000000000 Eh       
CPCM Solvation Model Properties:
Surface-charge          :            0.97200849
Charge-correction       :           -0.00511604 Eh              -0.13921 eV
Free-energy (cav+disp)  :  This term is not implemented in the current solvation scheme

---------------
SCF CONVERGENCE
---------------

  Last Energy change         ...   -1.2784e-09  Tolerance :   1.0000e-08
  Last MAX-Density change    ...    4.2876e-06  Tolerance :   1.0000e-07
  Last RMS-Density change    ...    1.2019e-07  Tolerance :   5.0000e-09
  Last Orbital Gradient      ...    5.1886e-07  Tolerance :   1.0000e-05
  Last Orbital Rotation      ...    2.0868e-06  Tolerance :   1.0000e-05

             **** THE GBW FILE WAS UPDATED (inp.gbw) ****
             **** DENSITY inp.scfp WAS UPDATED ****
             **** ENERGY FILE WAS UPDATED (inp.en.tmp) ****
             **** THE GBW FILE WAS UPDATED (inp.gbw) ****
             **** DENSITY inp.scfp WAS UPDATED ****
----------------
ORBITAL ENERGIES
----------------

  NO   OCC          E(Eh)            E(eV) 
   0   2.0000     -18.734013      -509.7784 
   1   2.0000     -18.641549      -507.2623 
   2   2.0000      -9.892041      -269.1761 
   3   2.0000      -9.850734      -268.0521 
   4   2.0000      -0.937732       -25.5170 
   5   2.0000      -0.696876       -18.9630 
   6   2.0000      -0.624843       -17.0028 
   7   2.0000      -0.513069       -13.9613 
   8   2.0000      -0.392020       -10.6674 
   9   2.0000      -0.382189       -10.3999 
  10   2.0000      -0.345766        -9.4088 
  11   2.0000      -0.316384        -8.6092 
  12   2.0000      -0.310456        -8.4479 
  13   2.0000      -0.260625        -7.0920 
  14   2.0000      -0.236342        -6.4312 
  15   2.0000      -0.123563        -3.3623 
  16   2.0000      -0.090152        -2.4532 
  17   0.0000       0.046416         1.2631 
  18   0.0000       0.072682         1.9778 
  19   0.0000       0.085109         2.3159 
  20   0.0000       0.091878         2.5001 
  21   0.0000       0.110145         2.9972 
  22   0.0000       0.118746         3.2312 
  23   0.0000       0.146553         3.9879 
  24   0.0000       0.162942         4.4339 
  25   0.0000       0.190738         5.1902 
  26   0.0000       0.223213         6.0739 
  27   0.0000       0.256475         6.9790 
  28   0.0000       0.281679         7.6649 
  29   0.0000       0.309907         8.4330 
  30   0.0000       0.347838         9.4652 
  31   0.0000       0.379702        10.3322 
  32   0.0000       0.387594        10.5470 
  33   0.0000       0.405916        11.0455 
  34   0.0000       0.410568        11.1721 
  35   0.0000       0.431962        11.7543 
  36   0.0000       0.453823        12.3492 
  37   0.0000       0.473291        12.8789 
  38   0.0000       0.486585        13.2407 
  39   0.0000       0.497156        13.5283 
  40   0.0000       0.519981        14.1494 
  41   0.0000       0.554462        15.0877 
  42   0.0000       0.593698        16.1553 
  43   0.0000       0.620958        16.8971 
  44   0.0000       0.672025        18.2867 
  45   0.0000       0.739557        20.1244 
  46   0.0000       0.776365        21.1260 
  47   0.0000       0.785227        21.3671 
  48   0.0000       0.828442        22.5431 
  49   0.0000       0.857087        23.3225 
  50   0.0000       0.907801        24.7025 
  51   0.0000       0.976903        26.5829 
  52   0.0000       1.027561        27.9614 
  53   0.0000       1.045345        28.4453 
  54   0.0000       1.078510        29.3478 
  55   0.0000       1.120695        30.4957 
  56   0.0000       1.327751        36.1300 
  57   0.0000       1.384337        37.6697 
  58   0.0000       1.427838        38.8534 
  59   0.0000       1.453600        39.5545 
  60   0.0000       1.463674        39.8286 
  61   0.0000       1.482279        40.3349 
  62   0.0000       1.492059        40.6010 
  63   0.0000       1.531845        41.6836 
  64   0.0000       1.543340        41.9964 
  65   0.0000       1.575024        42.8586 
  66   0.0000       1.627871        44.2966 
  67   0.0000       1.705797        46.4171 
  68   0.0000       1.719767        46.7972 
  69   0.0000       1.756320        47.7919 
  70   0.0000       1.796036        48.8726 
  71   0.0000       1.807515        49.1850 
  72   0.0000       1.866741        50.7966 
  73   0.0000       1.910002        51.9738 
  74   0.0000       1.972088        53.6632 
  75   0.0000       1.976181        53.7746 
  76   0.0000       2.033554        55.3358 
  77   0.0000       2.086388        56.7735 
  78   0.0000       2.124007        57.7972 
  79   0.0000       2.196229        59.7624 
  80   0.0000       2.257627        61.4332 
  81   0.0000       2.271545        61.8119 
  82   0.0000       2.283867        62.1472 
  83   0.0000       2.299444        62.5710 
  84   0.0000       2.367155        64.4136 
  85   0.0000       2.382683        64.8361 
  86   0.0000       2.415553        65.7305 
  87   0.0000       2.501195        68.0610 
  88   0.0000       2.512228        68.3612 
  89   0.0000       2.530485        68.8580 
  90   0.0000       2.573232        70.0212 
  91   0.0000       2.584253        70.3211 
  92   0.0000       2.642144        71.8964 
  93   0.0000       2.674444        72.7753 
  94   0.0000       2.714846        73.8747 
  95   0.0000       2.756549        75.0095 
  96   0.0000       2.791533        75.9615 
  97   0.0000       2.845595        77.4326 
  98   0.0000       2.879537        78.3562 
  99   0.0000       2.917805        79.3975 
 100   0.0000       2.984740        81.2189 
 101   0.0000       2.998714        81.5992 
 102   0.0000       3.040977        82.7492 
 103   0.0000       3.087652        84.0193 
 104   0.0000       3.133258        85.2603 
 105   0.0000       3.168936        86.2311 
 106   0.0000       3.193824        86.9084 
 107   0.0000       3.253830        88.5412 
 108   0.0000       3.296605        89.7052 
 109   0.0000       3.322026        90.3969 
 110   0.0000       3.428776        93.3017 
 111   0.0000       3.441219        93.6403 
 112   0.0000       3.484944        94.8301 
 113   0.0000       3.691469       100.4500 
 114   0.0000       3.718858       101.1953 
 115   0.0000       3.825183       104.0885 
 116   0.0000       3.845579       104.6435 
 117   0.0000       3.904050       106.2346 
 118   0.0000       4.108672       111.8027 
 119   0.0000       4.130219       112.3890 
 120   0.0000       4.202944       114.3679 
 121   0.0000       4.288608       116.6990 
 122   0.0000       4.357366       118.5700 
 123   0.0000       4.421607       120.3180 
 124   0.0000       4.490374       122.1893 
 125   0.0000       4.662729       126.8793 
 126   0.0000       4.706801       128.0786 
 127   0.0000       4.827489       131.3627 
 128   0.0000       4.955979       134.8591 
 129   0.0000       4.977333       135.4401 
 130   0.0000       5.115662       139.2042 
 131   0.0000       5.155933       140.3001 
 132   0.0000       5.173825       140.7869 
 133   0.0000       5.426934       147.6744 
 134   0.0000       5.505527       149.8130 
 135   0.0000       5.688710       154.7977 
 136   0.0000       5.775411       157.1569 
 137   0.0000       5.946025       161.7996 
 138   0.0000       6.057218       164.8253 
 139   0.0000       6.261054       170.3719 
 140   0.0000       6.302662       171.5041 
 141   0.0000       6.313078       171.7876 
 142   0.0000       6.361282       173.0993 
 143   0.0000       6.598506       179.5545 
 144   0.0000       6.664597       181.3529 
 145   0.0000       6.700828       182.3388 
 146   0.0000       6.929393       188.5584 
 147   0.0000       7.122989       193.8264 
 148   0.0000       7.147591       194.4958 
 149   0.0000       8.138768       221.4671 
 150   0.0000      22.044150       599.8518 
 151   0.0000      22.187834       603.7617 
 152   0.0000      43.053729      1171.5515 
 153   0.0000      43.617138      1186.8827 

                    ********************************
                    * MULLIKEN POPULATION ANALYSIS *
                    ********************************

-----------------------
MULLIKEN ATOMIC CHARGES
-----------------------
   0 C :   -0.008869
   1 C :   -0.345066
   2 O :   -0.241164
   3 H :    0.025085
   4 H :    0.067176
   5 O :   -0.782129
   6 H :    0.083931
   7 H :    0.098401
   8 H :    0.102635
Sum of atomic charges:   -1.0000000

--------------------------------
MULLIKEN REDUCED ORBITAL CHARGES
--------------------------------
  0 C s       :     3.172934  s :     3.172934
      pz      :     0.992835  p :     2.701437
      px      :     0.930807
      py      :     0.777795
      dz2     :     0.020299  d :     0.125045
      dxz     :     0.016879
      dyz     :     0.019819
      dx2y2   :     0.042241
      dxy     :     0.025808
      f0      :     0.001080  f :     0.009454
      f+1     :     0.000536
      f-1     :     0.001246
      f+2     :     0.000780
      f-2     :     0.001608
      f+3     :     0.001520
      f-3     :     0.002686
  1 C s       :     3.213941  s :     3.213941
      pz      :     1.051011  p :     3.077116
      px      :     1.017654
      py      :     1.008450
      dz2     :     0.004229  d :     0.050762
      dxz     :     0.013308
      dyz     :     0.011317
      dx2y2   :     0.016145
      dxy     :     0.005762
      f0      :     0.000671  f :     0.003247
      f+1     :     0.000246
      f-1     :     0.000159
      f+2     :    -0.000048
      f-2     :     0.000807
      f+3     :     0.000634
      f-3     :     0.000778
  2 O s       :     3.788430  s :     3.788430
      pz      :     1.085425  p :     4.397334
      px      :     1.773462
      py      :     1.538447
      dz2     :     0.013664  d :     0.052579
      dxz     :     0.012123
      dyz     :     0.015522
      dx2y2   :     0.005087
      dxy     :     0.006183
      f0      :     0.000835  f :     0.002821
      f+1     :     0.000530
      f-1     :     0.000610
      f+2     :     0.000147
      f-2     :     0.000213
      f+3     :     0.000288
      f-3     :     0.000199
  3 H s       :     0.953973  s :     0.953973
      pz      :     0.006747  p :     0.020942
      px      :     0.010043
      py      :     0.004152
  4 H s       :     0.912671  s :     0.912671
      pz      :     0.011115  p :     0.020153
      px      :     0.005191
      py      :     0.003847
  5 O s       :     3.938841  s :     3.938841
      pz      :     0.922570  p :     4.815791
      px      :     1.958415
      py      :     1.934806
      dz2     :     0.012908  d :     0.025459
      dxz     :     0.006612
      dyz     :     0.005592
      dx2y2   :     0.000137
      dxy     :     0.000210
      f0      :     0.001183  f :     0.002037
      f+1     :     0.000434
      f-1     :     0.000393
      f+2     :     0.000012
      f-2     :     0.000014
      f+3     :     0.000001
      f-3     :     0.000001
  6 H s       :     0.894525  s :     0.894525
      pz      :     0.011135  p :     0.021544
      px      :     0.005337
      py      :     0.005072
  7 H s       :     0.880786  s :     0.880786
      pz      :     0.006357  p :     0.020813
      px      :     0.009606
      py      :     0.004849
  8 H s       :     0.876357  s :     0.876357
      pz      :     0.005797  p :     0.021008
      px      :     0.005521
      py      :     0.009690


                     *******************************
                     * LOEWDIN POPULATION ANALYSIS *
                     *******************************

----------------------
LOEWDIN ATOMIC CHARGES
----------------------
   0 C :   -0.443558
   1 C :   -0.358694
   2 O :   -0.057398
   3 H :    0.090387
   4 H :    0.110077
   5 O :   -0.680822
   6 H :    0.108455
   7 H :    0.113868
   8 H :    0.117685

-------------------------------
LOEWDIN REDUCED ORBITAL CHARGES
-------------------------------
  0 C s       :     2.837103  s :     2.837103
      pz      :     1.030560  p :     2.986175
      px      :     1.021970
      py      :     0.933645
      dz2     :     0.096267  d :     0.550541
      dxz     :     0.079223
      dyz     :     0.081981
      dx2y2   :     0.146185
      dxy     :     0.146885
      f0      :     0.007037  f :     0.069739
      f+1     :     0.003255
      f-1     :     0.009174
      f+2     :     0.008964
      f-2     :     0.011499
      f+3     :     0.012272
      f-3     :     0.017539
  1 C s       :     2.848184  s :     2.848184
      pz      :     1.082222  p :     3.226034
      px      :     1.073132
      py      :     1.070681
      dz2     :     0.037694  d :     0.259636
      dxz     :     0.056934
      dyz     :     0.047704
      dx2y2   :     0.063196
      dxy     :     0.054108
      f0      :     0.004020  f :     0.024839
      f+1     :     0.001953
      f-1     :     0.002297
      f+2     :     0.002414
      f-2     :     0.004764
      f+3     :     0.004556
      f-3     :     0.004836
  2 O s       :     3.421686  s :     3.421686
      pz      :     1.176486  p :     4.469354
      px      :     1.733508
      py      :     1.559360
      dz2     :     0.051681  d :     0.155490
      dxz     :     0.034346
      dyz     :     0.043710
      dx2y2   :     0.012093
      dxy     :     0.013659
      f0      :     0.003386  f :     0.010869
      f+1     :     0.002203
      f-1     :     0.002800
      f+2     :     0.000465
      f-2     :     0.000686
      f+3     :     0.000687
      f-3     :     0.000642
  3 H s       :     0.849161  s :     0.849161
      pz      :     0.019918  p :     0.060451
      px      :     0.028270
      py      :     0.012263
  4 H s       :     0.830651  s :     0.830651
      pz      :     0.033709  p :     0.059272
      px      :     0.014459
      py      :     0.011105
  5 O s       :     3.712523  s :     3.712523
      pz      :     1.059418  p :     4.876117
      px      :     1.923174
      py      :     1.893525
      dz2     :     0.042403  d :     0.084881
      dxz     :     0.022177
      dyz     :     0.019304
      dx2y2   :     0.000450
      dxy     :     0.000546
      f0      :     0.003823  f :     0.007302
      f+1     :     0.001748
      f-1     :     0.001639
      f+2     :     0.000045
      f-2     :     0.000041
      f+3     :     0.000003
      f-3     :     0.000002
  6 H s       :     0.828798  s :     0.828798
      pz      :     0.033243  p :     0.062747
      px      :     0.015099
      py      :     0.014405
  7 H s       :     0.824564  s :     0.824564
      pz      :     0.019285  p :     0.061568
      px      :     0.027447
      py      :     0.014837
  8 H s       :     0.820158  s :     0.820158
      pz      :     0.017701  p :     0.062157
      px      :     0.016977
      py      :     0.027479


                      *****************************
                      * MAYER POPULATION ANALYSIS *
                      *****************************

  NA   - Mulliken gross atomic population
  ZA   - Total nuclear charge
  QA   - Mulliken gross atomic charge
  VA   - Mayer's total valence
  BVA  - Mayer's bonded valence
  FA   - Mayer's free valence

  ATOM       NA         ZA         QA         VA         BVA        FA
  0 C      6.0089     6.0000    -0.0089     3.9565     3.9565     0.0000
  1 C      6.3451     6.0000    -0.3451     3.7975     3.7975    -0.0000
  2 O      8.2412     8.0000    -0.2412     1.9035     1.9035     0.0000
  3 H      0.9749     1.0000     0.0251     1.0483     1.0483    -0.0000
  4 H      0.9328     1.0000     0.0672     0.9785     0.9785    -0.0000
  5 O      8.7821     8.0000    -0.7821     1.0242     1.0242     0.0000
  6 H      0.9161     1.0000     0.0839     1.0262     1.0262    -0.0000
  7 H      0.9016     1.0000     0.0984     0.9924     0.9924    -0.0000
  8 H      0.8974     1.0000     0.1026     0.9828     0.9828    -0.0000

  Mayer bond orders larger than 0.100000
B(  0-C ,  1-C ) :   1.0017 B(  0-C ,  2-O ) :   1.0756 B(  0-C ,  3-H ) :   0.9476 
B(  0-C ,  4-H ) :   0.9323 B(  1-C ,  6-H ) :   0.9617 B(  1-C ,  7-H ) :   0.9630 
B(  1-C ,  8-H ) :   0.9533 B(  2-O ,  5-O ) :   0.8206 

-------
TIMINGS
-------

Total SCF time: 0 days 0 hours 0 min 26 sec 

Total time                  ....      26.388 sec
Sum of individual times     ....      22.703 sec  ( 86.0%)

Fock matrix formation       ....      20.836 sec  ( 79.0%)
  Split-RI-J                ....       1.980 sec  (  9.5% of F)
  XC integration            ....      11.142 sec  ( 53.5% of F)
    Basis function eval.    ....       2.755 sec  ( 24.7% of XC)
    Density eval.           ....       1.688 sec  ( 15.2% of XC)
    XC-Functional eval.     ....       0.585 sec  (  5.2% of XC)
    XC-Potential eval.      ....       2.129 sec  ( 19.1% of XC)
Diagonalization             ....       0.028 sec  (  0.1%)
Density matrix formation    ....       0.003 sec  (  0.0%)
Population analysis         ....       0.129 sec  (  0.5%)
Initial guess               ....       0.321 sec  (  1.2%)
Orbital Transformation      ....       0.000 sec  (  0.0%)
Orbital Orthonormalization  ....       0.000 sec  (  0.0%)
DIIS solution               ....       0.260 sec  (  1.0%)
SOSCF solution              ....       0.323 sec  (  1.2%)
Grid generation             ....       0.804 sec  (  3.0%)

Maximum memory used throughout the entire SCF-calculation: 42.8 MB


-------------------------------------------------------------------------------
                          DFT DISPERSION CORRECTION                            
                                                                               
                              DFTD3 V3.1  Rev 1                                
                          USING Becke-Johnson damping                          
-------------------------------------------------------------------------------
The PBE functional is recognized
Active option DFTDOPT                   ...         4   

molecular C6(AA) [au] = 576.896255 


            DFT-D V3
 parameters
 s6 scaling factor         :     1.0000 
 a1 scaling factor         :     0.4289 
 s8 scaling factor         :     0.7875 
 a2 scaling factor         :     4.4407 
 ad hoc parameters k1-k3   :    16.0000     1.3333    -4.0000 

 Edisp/kcal,au: -2.985105451497  -0.004757067832 
 E6   /kcal   :  -2.166711932 
 E8   /kcal   :  -0.818393520 
 % E8         :  27.415899804 

-------------------------   ----------------
Dispersion correction           -0.004757068
-------------------------   ----------------


-------------------------   --------------------
FINAL SINGLE POINT ENERGY      -229.510471377604
-------------------------   --------------------

------------------------------------------------------------------------------
                         ORCA SCF GRADIENT CALCULATION
------------------------------------------------------------------------------

Gradient of the Kohn-Sham DFT energy:
Kohn-Sham wavefunction type      ... RKS
Hartree-Fock exchange scaling    ...    0.000
Number of operators              ...    1
Number of atoms                  ...    9
Basis set dimensions             ...  154
Integral neglect threshold       ... 2.5e-11
Integral primitive cutoff        ... 2.5e-12
SHARK Integral package           ... ON

Nuc. rep. gradient       (SHARK) ... done (  0.0 sec)
HCore & Overlap gradient (SHARK) ... done (  0.1 sec)
RI-J gradient            (SHARK) ... done (  0.6 sec)
Exchange-correlation gradient    ... done
Dispersion correction            ... done

------------------
CARTESIAN GRADIENT
------------------

   1   C   :    0.015764062    0.004270468   -0.005531905
   2   C   :   -0.001049782   -0.004574470    0.001605088
   3   O   :   -0.013449170   -0.000911349   -0.038909104
   4   H   :   -0.003844743    0.001357476    0.005591979
   5   H   :   -0.000893778    0.003335583   -0.008296505
   6   O   :    0.003814610    0.001126841    0.047991318
   7   H   :   -0.001213433   -0.000426862    0.003625583
   8   H   :    0.001466907    0.001105987   -0.004076064
   9   H   :   -0.000594673   -0.005283674   -0.002000391

Difference to translation invariance:
           :   -0.0000000000   -0.0000000000   -0.0000000000

Difference to rotation invariance:
           :   -0.0020441766    0.0006385876    0.0001122425

Norm of the cartesian gradient     ...    0.0673221999
RMS gradient                       ...    0.0129561634
MAX gradient                       ...    0.0479913185

-------
TIMINGS
-------

Total SCF gradient time            ...        3.860 sec

One electron gradient       ....       0.089 sec  (  2.3%)
RI-J Coulomb gradient       ....       0.599 sec  ( 15.5%)
XC gradient                 ....       2.413 sec  ( 62.5%)
CPCM gradient               ....       0.196 sec  (  5.1%)
   A-Matrix (El+Nuc)        ....       0.019 sec  (  0.5%)
   Potential                ....       0.177 sec  (  4.6%)

Maximum memory used throughout the entire SCFGRAD-calculation: 52.2 MB
------------------------------------------------------------------------------
                         ORCA GEOMETRY RELAXATION STEP
------------------------------------------------------------------------------

Reading the OPT-File                    .... done
Getting information on internals        .... done
Copying old internal coords+grads       .... done
Making the new internal coordinates     .... (new redundants).... done
Validating the new internal coordinates .... (new redundants).... done
Calculating the B-matrix                .... done
Calculating the G,G- and P matrices     .... done
Transforming gradient to internals      .... done
Projecting the internal gradient        .... done
Number of atoms                         ....   9
Number of internal coordinates          ....  33
Current Energy                          ....  -229.510471378 Eh
Current gradient norm                   ....     0.067322200 Eh/bohr
Maximum allowed component of the step   ....  0.300
Current trust radius                    ....  0.300
Evaluating the initial hessian          ....  (Almloef) done
Projecting the Hessian                  .... done
Forming the augmented Hessian           .... done
Diagonalizing the augmented Hessian     .... done
Last element of RFO vector              ....  0.979146598
Lowest eigenvalues of augmented Hessian:
 -0.007907181  0.012208095  0.019827489  0.102860468  0.105813861
Length of the computed step             ....  0.207481662
The final length of the internal step   ....  0.207481662
Converting the step to cartesian space:
 Initial RMS(Int)=    0.0361179213
Transforming coordinates:
 Iter   0:  RMS(Cart)=    0.0408824045 RMS(Int)=    0.0366807222
 Iter   1:  RMS(Cart)=    0.0022824409 RMS(Int)=    0.0016516546
 Iter   2:  RMS(Cart)=    0.0002237151 RMS(Int)=    0.0001861458
 Iter   3:  RMS(Cart)=    0.0000200275 RMS(Int)=    0.0000159379
 Iter   4:  RMS(Cart)=    0.0000021047 RMS(Int)=    0.0000017817
 Iter   5:  RMS(Cart)=    0.0000001843 RMS(Int)=    0.0000001437
 Iter   6:  RMS(Cart)=    0.0000000193 RMS(Int)=    0.0000000164
done
Storing new coordinates                 .... done

                                .--------------------.
          ----------------------|Geometry convergence|-------------------------
          Item                value                   Tolerance       Converged
          ---------------------------------------------------------------------
          RMS gradient        0.0098236203            0.0001000000      NO
          MAX gradient        0.0473401439            0.0003000000      NO
          RMS step            0.0361179213            0.0020000000      NO
          MAX step            0.0997031388            0.0040000000      NO
          ........................................................
          Max(Bonds)      0.0522      Max(Angles)    2.98
          Max(Dihed)        5.71      Max(Improp)    0.00
          ---------------------------------------------------------------------

The optimization has not yet converged - more geometry cycles are needed


    ---------------------------------------------------------------------------
                         Redundant Internal Coordinates
                            (Angstroem and degrees)

        Definition                    Value    dE/dq     Step     New-Value
    ----------------------------------------------------------------------------
     1. B(C   1,C   0)                1.5173 -0.006043  0.0080    1.5253   
     2. B(O   2,C   0)                1.4246  0.000481 -0.0005    1.4241   
     3. B(H   3,C   0)                1.0964 -0.005747  0.0085    1.1049   
     4. B(H   4,C   0)                1.0948 -0.008707  0.0127    1.1075   
     5. B(O   5,O   2)                1.4066 -0.047340  0.0522    1.4588   
     6. B(H   6,C   1)                1.0949 -0.003133  0.0046    1.0994   
     7. B(H   7,C   1)                1.0950 -0.003549  0.0052    1.1002   
     8. B(H   8,C   1)                1.0937 -0.005371  0.0078    1.1015   
     9. A(O   2,C   0,H   4)          107.31  0.004223   -0.33    106.98   
    10. A(C   1,C   0,H   4)          109.48  0.001023    0.28    109.76   
    11. A(C   1,C   0,O   2)          110.35 -0.013041    2.03    112.38   
    12. A(H   3,C   0,H   4)          107.42 -0.002127    0.24    107.65   
    13. A(C   1,C   0,H   3)          111.37  0.002936   -0.61    110.77   
    14. A(O   2,C   0,H   3)          110.77  0.007338   -1.63    109.14   
    15. A(H   7,C   1,H   8)          108.88  0.001086   -0.28    108.60   
    16. A(H   6,C   1,H   8)          108.61  0.000473   -0.15    108.45   
    17. A(C   0,C   1,H   8)          110.78 -0.003037    0.46    111.24   
    18. A(H   6,C   1,H   7)          106.95 -0.002643    0.64    107.58   
    19. A(C   0,C   1,H   7)          110.60  0.001508   -0.23    110.36   
    20. A(C   0,C   1,H   6)          110.92  0.002615   -0.42    110.50   
    21. A(C   0,O   2,O   5)          105.95 -0.020663    2.98    108.93   
    22. D(H   7,C   1,C   0,H   4)    -62.29 -0.000004    0.68    -61.61   
    23. D(H   6,C   1,C   0,H   3)     60.58  0.000832    0.21     60.78   
    24. D(H   7,C   1,C   0,O   2)     55.60 -0.002002    1.66     57.26   
    25. D(H   6,C   1,C   0,O   2)    -62.89 -0.001337    1.28    -61.61   
    26. D(H   6,C   1,C   0,H   4)    179.22  0.000662    0.30    179.52   
    27. D(H   8,C   1,C   0,O   2)    176.42 -0.001647    1.45    177.87   
    28. D(H   8,C   1,C   0,H   3)    -60.12  0.000521    0.38    -59.74   
    29. D(H   8,C   1,C   0,H   4)     58.53  0.000352    0.47     59.00   
    30. D(H   7,C   1,C   0,H   3)    179.07  0.000166    0.58    179.65   
    31. D(O   5,O   2,C   0,H   4)   -158.23 -0.000076   -4.43   -162.66   
    32. D(O   5,O   2,C   0,H   3)    -41.26  0.003821   -5.22    -46.48   
    33. D(O   5,O   2,C   0,C   1)     82.55  0.003521   -5.71     76.84   
    ----------------------------------------------------------------------------

         *************************************************************
         *                GEOMETRY OPTIMIZATION CYCLE   2            *
         *************************************************************
---------------------------------
CARTESIAN COORDINATES (ANGSTROEM)
---------------------------------
  C     -7.045059   -4.553129    1.573614
  C     -8.045455   -3.401809    1.586769
  O     -7.597977   -5.745594    1.025652
  H     -6.139042   -4.278681    1.003944
  H     -6.731843   -4.788594    2.609512
  O     -7.643346   -5.622105   -0.427239
  H     -8.358426   -3.151929    0.562856
  H     -8.947109   -3.684528    2.150224
  H     -7.610962   -2.500900    2.048189

----------------------------
CARTESIAN COORDINATES (A.U.)
----------------------------
  NO LB      ZA    FRAG     MASS         X           Y           Z
   0 C     6.0000    0    12.011  -13.313232   -8.604168    2.973700
   1 C     6.0000    0    12.011  -15.203706   -6.428487    2.998559
   2 O     8.0000    0    15.999  -14.358096  -10.857599    1.938201
   3 H     1.0000    0     1.008  -11.601108   -8.085534    1.897178
   4 H     1.0000    0     1.008  -12.721339   -9.049132    4.931262
   5 O     8.0000    0    15.999  -14.443831  -10.624239   -0.807365
   6 H     1.0000    0     1.008  -15.795136   -5.956282    1.063644
   7 H     1.0000    0     1.008  -16.907585   -6.962749    4.063334
   8 H     1.0000    0     1.008  -14.382633   -4.726015    3.870515

--------------------------------
INTERNAL COORDINATES (ANGSTROEM)
--------------------------------
 C      0   0   0     0.000000000000     0.00000000     0.00000000
 C      1   0   0     1.525288132529     0.00000000     0.00000000
 O      1   2   0     1.424061815736   112.37876599     0.00000000
 H      1   2   3     1.104859010657   110.78016706   122.38675813
 H      1   2   3     1.107534024645   109.74867701   241.12091328
 O      3   1   2     1.458835469332   108.93003457    76.83480103
 H      2   1   3     1.099449227339   110.50101010   298.39645540
 H      2   1   3     1.100177617378   110.36312772    57.26321019
 H      2   1   3     1.101512434324   111.23899722   177.87490141

---------------------------
INTERNAL COORDINATES (A.U.)
---------------------------
 C      0   0   0     0.000000000000     0.00000000     0.00000000
 C      1   0   0     2.882376845800     0.00000000     0.00000000
 O      1   2   0     2.691086829516   112.37876599     0.00000000
 H      1   2   3     2.087880946737   110.78016706   122.38675813
 H      1   2   3     2.092935990579   109.74867701   241.12091328
 O      3   1   2     2.756799511487   108.93003457    76.83480103
 H      2   1   3     2.077657937822   110.50101010   298.39645540
 H      2   1   3     2.079034395514   110.36312772    57.26321019
 H      2   1   3     2.081556833982   111.23899722   177.87490141

------------------------------------------------------------------------------
                   ___                                                        
                  /   \      - P O W E R E D   B Y -                         
                 /     \                                                     
                 |  |  |   _    _      __       _____    __    __             
                 |  |  |  | |  | |    /  \     |  _  \  |  |  /  |          
                  \  \/   | |  | |   /    \    | | | |  |  | /  /          
                 / \  \   | |__| |  /  /\  \   | |_| |  |  |/  /          
                |  |  |   |  __  | /  /__\  \  |    /   |      \           
                |  |  |   | |  | | |   __   |  |    \   |  |\   \          
                \     /   | |  | | |  |  |  |  | |\  \  |  | \   \       
                 \___/    |_|  |_| |__|  |__|  |_| \__\ |__|  \__/        
                                                                              
                      - O R C A' S   B I G   F R I E N D -                    
                                      &                                       
                       - I N T E G R A L  F E E D E R -                       
                                                                              
 v1 FN, 2020, v2 2021                                                         
------------------------------------------------------------------------------


Reading SHARK input file inp.SHARKINP.tmp ... ok
----------------------
SHARK INTEGRAL PACKAGE
----------------------

Number of atoms                             ...      9
Number of basis functions                   ...    154
Number of shells                            ...     64
Maximum angular momentum                    ...      3
Integral batch strategy                     ... SHARK/LIBINT Hybrid
RI-J (if used) integral strategy            ... SPLIT-RIJ (Revised 2003 algorithm where possible)
Printlevel                                  ...      1
Contraction scheme used                     ... SEGMENTED contraction
Coulomb Range Separation                    ... NOT USED
Exchange Range Separation                   ... NOT USED
Finite Nucleus Model                        ... NOT USED
Auxiliary Coulomb fitting basis             ... AVAILABLE
   # of basis functions in Aux-J            ...    251
   # of shells in Aux-J                     ...     85
   Maximum angular momentum in Aux-J        ...      4
Auxiliary J/K fitting basis                 ... NOT available
Auxiliary Correlation fitting basis         ... NOT available
Auxiliary 'external' fitting basis          ... NOT available
Integral threshold                          ...     2.500000e-11
Primitive cut-off                           ...     2.500000e-12
Primitive pair pre-selection threshold      ...     2.500000e-12

Calculating pre-screening integrals         ... done (  0.0 sec) Dimension = 64
Organizing shell pair data                  ... done (  0.1 sec)
Shell pair information
Total number of shell pairs                 ...      2080
Shell pairs after pre-screening             ...      2024
Total number of primitive shell pairs       ...      6208
Primitive shell pairs kept                  ...      4916
          la=0 lb=0:    598 shell pairs
          la=1 lb=0:    583 shell pairs
          la=1 lb=1:    153 shell pairs
          la=2 lb=0:    271 shell pairs
          la=2 lb=1:    135 shell pairs
          la=2 lb=2:     36 shell pairs
          la=3 lb=0:    138 shell pairs
          la=3 lb=1:     68 shell pairs
          la=3 lb=2:     32 shell pairs
          la=3 lb=3:     10 shell pairs

Calculating one electron integrals          ... done (  0.0 sec)
Calculating RI/J V-Matrix + Cholesky decomp.... done (  0.4 sec)
Calculating Nuclear repulsion               ... done (  0.0 sec) ENN=    122.489109903166 Eh

SHARK setup successfully completed in   1.8 seconds

Maximum memory used throughout the entire GTOINT-calculation: 29.9 MB

Diagonalization of the overlap matrix:
Smallest eigenvalue                        ... 4.696e-04
Time for diagonalization                   ...    0.004 sec
Threshold for overlap eigenvalues          ... 1.000e-08
Number of eigenvalues below threshold      ... 0
Time for construction of square roots      ...    0.135 sec
Total time needed                          ...    0.139 sec

-------------------
DFT GRID GENERATION
-------------------

General Integration Accuracy     IntAcc      ... 4.388
Radial Grid Type                 RadialGrid  ... OptM3 with GC (2021)
Angular Grid (max. ang.)         AngularGrid ... 4 (Lebedev-302)
Angular grid pruning method      GridPruning ... 4 (adaptive)
Weight generation scheme         WeightScheme... Becke
Basis function cutoff            BFCut       ... 1.0000e-11
Integration weight cutoff        WCut        ... 1.0000e-14
Angular grids for H and He will be reduced by one unit
Partially contracted basis set               ... off
Rotationally invariant grid construction     ... off

Total number of grid points                  ...    40581
Total number of batches                      ...      639
Average number of points per batch           ...       63
Average number of grid points per atom       ...     4509
Time for grid setup =    0.525 sec


--------------------
CPCM SOLVATION MODEL
--------------------
CPCM parameters:
  Epsilon                                         ...      80.4000
  Refrac                                          ...       1.3300
  Rsolv                                           ...       1.3000
  Surface type                                    ... GAUSSIAN VDW
  Epsilon function type                           ...         CPCM
Radii:
 Radius for C  used is    3.8550 Bohr (=   2.0400 Ang.)
 Radius for O  used is    3.4469 Bohr (=   1.8240 Ang.)
 Radius for H  used is    2.4944 Bohr (=   1.3200 Ang.)
Calculating surface                               ...        done! (  0.0s)
GEPOL surface points                              ...          571
GEPOL Volume                                      ...     567.4011
GEPOL Surface-area                                ...     375.4029
Calculating surface distance matrix               ...        done! (  0.0s)
Performing Cholesky decomposition & store         ...        done! (  0.1s)
Overall time for CPCM initialization              ...                 0.1s
--------------
SCF ITERATIONS
--------------
ITER       Energy         Delta-E        Max-DP      RMS-DP      [F,P]     Damp
               ***  Starting incremental Fock matrix formation  ***
  0   -229.5058962889   0.000000000000 0.00850524  0.00022696  0.0227157 0.7000
  1   -229.5071816018  -0.001285312934 0.00887510  0.00024148  0.0179445 0.7000
                               ***Turning on DIIS***
  2   -229.5082027677  -0.001021165822 0.02510688  0.00069064  0.0132669 0.0000
                      *** Initiating the SOSCF procedure ***
                           *** Shutting down DIIS ***
                      *** Re-Reading the Fockian *** 
                      *** Removing any level shift *** 
ITER      Energy       Delta-E        Grad      Rot      Max-DP    RMS-DP
  3   -229.51057003  -0.0023672615  0.000832  0.000832  0.002963  0.000078
               *** Restarting incremental Fock matrix formation ***
  4   -229.51058553  -0.0000154960  0.000249  0.001097  0.003690  0.000086
  5   -229.51058609  -0.0000005694  0.000282  0.000297  0.001952  0.000037
  6   -229.51058776  -0.0000016612  0.000135  0.000546  0.001236  0.000033
  7   -229.51058798  -0.0000002278  0.000138  0.000173  0.000363  0.000012
  8   -229.51058807  -0.0000000900  0.000121  0.000257  0.000619  0.000016
  9   -229.51058826  -0.0000001883  0.000047  0.000123  0.000181  0.000005
 10   -229.51058830  -0.0000000369  0.000017  0.000016  0.000061  0.000002
 11   -229.51058830  -0.0000000045  0.000012  0.000026  0.000043  0.000001
 12   -229.51058831  -0.0000000029  0.000003  0.000006  0.000006  0.000000
                 **** Energy Check signals convergence ****
              ***Rediagonalizing the Fockian in SOSCF/NRSCF***

               *****************************************************
               *                     SUCCESS                       *
               *           SCF CONVERGED AFTER  13 CYCLES          *
               *****************************************************

Total Energy       :         -229.51058831 Eh           -6245.30061 eV
  Last Energy change         ...   -9.8606e-10  Tolerance :   1.0000e-08
  Last MAX-Density change    ...    1.0513e-06  Tolerance :   1.0000e-07
             **** THE GBW FILE WAS UPDATED (inp.gbw) ****
             **** DENSITY inp.scfp WAS UPDATED ****
             **** ENERGY FILE WAS UPDATED (inp.en.tmp) ****
             **** THE GBW FILE WAS UPDATED (inp.gbw) ****
             **** DENSITY inp.scfp WAS UPDATED ****
Total SCF time: 0 days 0 hours 0 min 21 sec 

Maximum memory used throughout the entire SCF-calculation: 42.7 MB


-------------------------------------------------------------------------------
                          DFT DISPERSION CORRECTION                            
                                                                               
                              DFTD3 V3.1  Rev 1                                
                          USING Becke-Johnson damping                          
-------------------------------------------------------------------------------
-------------------------   ----------------
Dispersion correction           -0.004717290
-------------------------   ----------------


-------------------------   --------------------
FINAL SINGLE POINT ENERGY      -229.515305597192
-------------------------   --------------------

------------------------------------------------------------------------------
                         ORCA SCF GRADIENT CALCULATION
------------------------------------------------------------------------------

Gradient of the Kohn-Sham DFT energy:
Kohn-Sham wavefunction type      ... RKS
Hartree-Fock exchange scaling    ...    0.000
Number of operators              ...    1
Number of atoms                  ...    9
Basis set dimensions             ...  154
Integral neglect threshold       ... 2.5e-11
Integral primitive cutoff        ... 2.5e-12
SHARK Integral package           ... ON

Nuc. rep. gradient       (SHARK) ... done (  0.0 sec)
HCore & Overlap gradient (SHARK) ... done (  0.1 sec)
RI-J gradient            (SHARK) ... done (  0.6 sec)
Exchange-correlation gradient    ... done
Dispersion correction            ... done

------------------
CARTESIAN GRADIENT
------------------

   1   C   :    0.006913210    0.003105994    0.001998671
   2   C   :   -0.000432526   -0.002599756    0.000749125
   3   O   :   -0.006762498    0.000356149   -0.017128987
   4   H   :   -0.001640562   -0.000518497    0.001714537
   5   H   :    0.001495233    0.002320803    0.000387640
   6   O   :    0.001655242   -0.002721485    0.013480638
   7   H   :   -0.001226577    0.000219633    0.000304551
   8   H   :   -0.000321141    0.000002930   -0.001502261
   9   H   :    0.000319620   -0.000165771   -0.000003913

Difference to translation invariance:
           :   -0.0000000000   -0.0000000000   -0.0000000000

Difference to rotation invariance:
           :   -0.0023538766   -0.0013470857    0.0008246535

Norm of the cartesian gradient     ...    0.0248572477
RMS gradient                       ...    0.0047837796
MAX gradient                       ...    0.0171289869

-------
TIMINGS
-------

Total SCF gradient time            ...        3.869 sec

One electron gradient       ....       0.087 sec  (  2.2%)
RI-J Coulomb gradient       ....       0.598 sec  ( 15.5%)
XC gradient                 ....       2.389 sec  ( 61.8%)
CPCM gradient               ....       0.199 sec  (  5.1%)
   A-Matrix (El+Nuc)        ....       0.020 sec  (  0.5%)
   Potential                ....       0.178 sec  (  4.6%)

Maximum memory used throughout the entire SCFGRAD-calculation: 52.1 MB
------------------------------------------------------------------------------
                         ORCA GEOMETRY RELAXATION STEP
------------------------------------------------------------------------------

Reading the OPT-File                    .... done
Getting information on internals        .... done
Copying old internal coords+grads       .... done
Making the new internal coordinates     .... (new redundants).... done
Validating the new internal coordinates .... (new redundants).... done
Calculating the B-matrix                .... done
Calculating the G,G- and P matrices     .... done
Transforming gradient to internals      .... done
Projecting the internal gradient        .... done
Number of atoms                         ....   9
Number of internal coordinates          ....  33
Current Energy                          ....  -229.515305597 Eh
Current gradient norm                   ....     0.024857248 Eh/bohr
Maximum allowed component of the step   ....  0.300
Current trust radius                    ....  0.300
Updating the Hessian (BFGS)             .... done
Forming the augmented Hessian           .... done
Diagonalizing the augmented Hessian     .... done
Last element of RFO vector              ....  0.986591184
Lowest eigenvalues of augmented Hessian:
 -0.001400765  0.012189380  0.018684075  0.103040204  0.105810814
Length of the computed step             ....  0.165429226
The final length of the internal step   ....  0.165429226
Converting the step to cartesian space:
 Initial RMS(Int)=    0.0287975319
Transforming coordinates:
 Iter   0:  RMS(Cart)=    0.0292069440 RMS(Int)=    1.5444145866
 Iter   1:  RMS(Cart)=    0.0015025722 RMS(Int)=    0.0012537086
 Iter   2:  RMS(Cart)=    0.0001271723 RMS(Int)=    0.0000944084
 Iter   3:  RMS(Cart)=    0.0000103976 RMS(Int)=    0.0000090846
 Iter   4:  RMS(Cart)=    0.0000008536 RMS(Int)=    0.0000006705
 Iter   5:  RMS(Cart)=    0.0000000725 RMS(Int)=    0.0000000596
done
Storing new coordinates                 .... done

                                .--------------------.
          ----------------------|Geometry convergence|-------------------------
          Item                value                   Tolerance       Converged
          ---------------------------------------------------------------------
          Energy change      -0.0048342196            0.0000050000      NO
          RMS gradient        0.0029976025            0.0001000000      NO
          MAX gradient        0.0135987600            0.0003000000      NO
          RMS step            0.0287975319            0.0020000000      NO
          MAX step            0.0904418442            0.0040000000      NO
          ........................................................
          Max(Bonds)      0.0241      Max(Angles)    1.34
          Max(Dihed)        5.18      Max(Improp)    0.00
          ---------------------------------------------------------------------

The optimization has not yet converged - more geometry cycles are needed


    ---------------------------------------------------------------------------
                         Redundant Internal Coordinates
                            (Angstroem and degrees)

        Definition                    Value    dE/dq     Step     New-Value
    ----------------------------------------------------------------------------
     1. B(C   1,C   0)                1.5253 -0.000916  0.0022    1.5275   
     2. B(O   2,C   0)                1.4241  0.005375 -0.0077    1.4163   
     3. B(H   3,C   0)                1.1049 -0.002341  0.0053    1.1101   
     4. B(H   4,C   0)                1.1075  0.000256  0.0004    1.1079   
     5. B(O   5,O   2)                1.4588 -0.013599  0.0241    1.4829   
     6. B(H   6,C   1)                1.0994  0.000040  0.0002    1.0997   
     7. B(H   7,C   1)                1.1002 -0.000488  0.0013    1.1015   
[...]
   4   2.0000      -0.913452       -24.8563 
   5   2.0000      -0.698080       -18.9957 
   6   2.0000      -0.632026       -17.1983 
   7   2.0000      -0.509736       -13.8706 
   8   2.0000      -0.393887       -10.7182 
   9   2.0000      -0.378204       -10.2915 
  10   2.0000      -0.346988        -9.4420 
  11   2.0000      -0.314741        -8.5645 
  12   2.0000      -0.308164        -8.3856 
  13   2.0000      -0.254798        -6.9334 
  14   2.0000      -0.225894        -6.1469 
  15   2.0000      -0.132396        -3.6027 
  16   2.0000      -0.105324        -2.8660 
  17   0.0000       0.040128         1.0920 
  18   0.0000       0.044516         1.2113 
  19   0.0000       0.075138         2.0446 
  20   0.0000       0.089838         2.4446 
  21   0.0000       0.107336         2.9208 
  22   0.0000       0.121259         3.2996 
  23   0.0000       0.136005         3.7009 
  24   0.0000       0.163725         4.4552 
  25   0.0000       0.191236         5.2038 
  26   0.0000       0.222573         6.0565 
  27   0.0000       0.253016         6.8849 
  28   0.0000       0.277938         7.5631 
  29   0.0000       0.312690         8.5087 
  30   0.0000       0.343944         9.3592 
  31   0.0000       0.376296        10.2395 
  32   0.0000       0.382633        10.4120 
  33   0.0000       0.400155        10.8888 
  34   0.0000       0.408987        11.1291 
  35   0.0000       0.423557        11.5256 
  36   0.0000       0.449646        12.2355 
  37   0.0000       0.472076        12.8458 
  38   0.0000       0.480652        13.0792 
  39   0.0000       0.496333        13.5059 
  40   0.0000       0.516257        14.0481 
  41   0.0000       0.553019        15.0484 
  42   0.0000       0.587899        15.9975 
  43   0.0000       0.609266        16.5790 
  44   0.0000       0.673279        18.3209 
  45   0.0000       0.737357        20.0645 
  46   0.0000       0.766673        20.8622 
  47   0.0000       0.780286        21.2327 
  48   0.0000       0.820062        22.3150 
  49   0.0000       0.854166        23.2430 
  50   0.0000       0.904845        24.6221 
  51   0.0000       0.990401        26.9502 
  52   0.0000       1.025709        27.9110 
  53   0.0000       1.039160        28.2770 
  54   0.0000       1.085476        29.5373 
  55   0.0000       1.107566        30.1384 
  56   0.0000       1.315506        35.7967 
  57   0.0000       1.386162        37.7194 
  58   0.0000       1.424100        38.7517 
  59   0.0000       1.445220        39.3264 
  60   0.0000       1.467411        39.9303 
  61   0.0000       1.482302        40.3355 
  62   0.0000       1.489311        40.5262 
  63   0.0000       1.524508        41.4840 
  64   0.0000       1.546748        42.0892 
  65   0.0000       1.571677        42.7675 
  66   0.0000       1.610928        43.8356 
  67   0.0000       1.684183        45.8289 
  68   0.0000       1.710305        46.5398 
  69   0.0000       1.747621        47.5552 
  70   0.0000       1.772817        48.2408 
  71   0.0000       1.792924        48.7879 
  72   0.0000       1.840169        50.0736 
  73   0.0000       1.875809        51.0434 
  74   0.0000       1.932423        52.5839 
  75   0.0000       1.955122        53.2016 
  76   0.0000       2.010814        54.7170 
  77   0.0000       2.063489        56.1504 
  78   0.0000       2.097555        57.0774 
  79   0.0000       2.184762        59.4504 
  80   0.0000       2.242846        61.0309 
  81   0.0000       2.263729        61.5992 
  82   0.0000       2.271041        61.7982 
  83   0.0000       2.290565        62.3294 
  84   0.0000       2.348685        63.9110 
  85   0.0000       2.381769        64.8112 
  86   0.0000       2.401870        65.3582 
  87   0.0000       2.491107        67.7865 
  88   0.0000       2.496420        67.9311 
  89   0.0000       2.524949        68.7074 
  90   0.0000       2.554846        69.5209 
  91   0.0000       2.567282        69.8593 
  92   0.0000       2.620109        71.2968 
  93   0.0000       2.667518        72.5869 
  94   0.0000       2.684012        73.0357 
  95   0.0000       2.718569        73.9760 
  96   0.0000       2.761380        75.1410 
  97   0.0000       2.842240        77.3413 
  98   0.0000       2.851095        77.5822 
  99   0.0000       2.935562        79.8807 
 100   0.0000       2.974887        80.9508 
 101   0.0000       3.011267        81.9407 
 102   0.0000       3.040792        82.7441 
 103   0.0000       3.084308        83.9283 
 104   0.0000       3.103401        84.4478 
 105   0.0000       3.156484        85.8923 
 106   0.0000       3.176703        86.4425 
 107   0.0000       3.261234        88.7427 
 108   0.0000       3.278176        89.2037 
 109   0.0000       3.294420        89.6457 
 110   0.0000       3.405292        92.6627 
 111   0.0000       3.430702        93.3541 
 112   0.0000       3.480962        94.7218 
 113   0.0000       3.676411       100.0402 
 114   0.0000       3.699484       100.6681 
 115   0.0000       3.803342       103.4942 
 116   0.0000       3.824251       104.0632 
 117   0.0000       3.855206       104.9055 
 118   0.0000       3.985269       108.4447 
 119   0.0000       4.116602       112.0184 
 120   0.0000       4.161077       113.2287 
 121   0.0000       4.281559       116.5072 
 122   0.0000       4.320381       117.5635 
 123   0.0000       4.413230       120.0901 
 124   0.0000       4.496795       122.3640 
 125   0.0000       4.663772       126.9077 
 126   0.0000       4.737502       128.9140 
 127   0.0000       4.856054       132.1399 
 128   0.0000       4.986216       135.6818 
 129   0.0000       5.018776       136.5678 
 130   0.0000       5.126215       139.4914 
 131   0.0000       5.150299       140.1468 
 132   0.0000       5.163725       140.5121 
 133   0.0000       5.341029       145.3368 
 134   0.0000       5.440191       148.0351 
 135   0.0000       5.712710       155.4507 
 136   0.0000       5.749739       156.4583 
 137   0.0000       5.754176       156.5791 
 138   0.0000       5.918193       161.0422 
 139   0.0000       6.220862       169.2783 
 140   0.0000       6.241772       169.8473 
 141   0.0000       6.255156       170.2114 
 142   0.0000       6.282590       170.9580 
 143   0.0000       6.519126       177.3944 
 144   0.0000       6.642289       180.7459 
 145   0.0000       6.662035       181.2832 
 146   0.0000       6.824503       185.7042 
 147   0.0000       6.963188       189.4780 
 148   0.0000       7.049063       191.8148 
 149   0.0000       7.863604       213.9796 
 150   0.0000      22.015539       599.0733 
 151   0.0000      22.162426       603.0703 
 152   0.0000      42.954431      1168.8495 
 153   0.0000      43.549158      1185.0328 

                    ********************************
                    * MULLIKEN POPULATION ANALYSIS *
                    ********************************

-----------------------
MULLIKEN ATOMIC CHARGES
-----------------------
   0 C :   -0.022095
   1 C :   -0.337142
   2 O :   -0.266579
   3 H :    0.026931
   4 H :    0.080396
   5 O :   -0.771294
   6 H :    0.085198
   7 H :    0.096713
   8 H :    0.107872
Sum of atomic charges:   -1.0000000

--------------------------------
MULLIKEN REDUCED ORBITAL CHARGES
--------------------------------
  0 C s       :     3.188863  s :     3.188863
      pz      :     0.981099  p :     2.695138
      px      :     0.945467
      py      :     0.768572
      dz2     :     0.021110  d :     0.128563
      dxz     :     0.015295
      dyz     :     0.022234
      dx2y2   :     0.040086
      dxy     :     0.029837
      f0      :     0.001018  f :     0.009531
      f+1     :     0.000422
      f-1     :     0.001401
      f+2     :     0.000877
      f-2     :     0.001599
      f+3     :     0.001716
      f-3     :     0.002499
  1 C s       :     3.208857  s :     3.208857
      pz      :     1.050808  p :     3.076098
      px      :     1.016153
      py      :     1.009138
      dz2     :     0.004500  d :     0.049030
      dxz     :     0.012284
      dyz     :     0.010842
      dx2y2   :     0.015530
      dxy     :     0.005875
      f0      :     0.000701  f :     0.003156
      f+1     :     0.000250
      f-1     :     0.000138
      f+2     :    -0.000038
      f-2     :     0.000731
      f+3     :     0.000653
      f-3     :     0.000720
  2 O s       :     3.805832  s :     3.805832
      pz      :     1.116648  p :     4.412963
      px      :     1.801271
      py      :     1.495044
      dz2     :     0.012122  d :     0.045558
      dxz     :     0.008494
      dyz     :     0.013133
      dx2y2   :     0.005971
      dxy     :     0.005839
      f0      :     0.000555  f :     0.002225
      f+1     :     0.000359
      f-1     :     0.000453
      f+2     :     0.000178
      f-2     :     0.000189
      f+3     :     0.000271
      f-3     :     0.000219
  3 H s       :     0.952838  s :     0.952838
      pz      :     0.005980  p :     0.020231
      px      :     0.009963
      py      :     0.004288
  4 H s       :     0.899823  s :     0.899823
      pz      :     0.011111  p :     0.019781
      px      :     0.004928
      py      :     0.003742
  5 O s       :     3.956035  s :     3.956035
      pz      :     0.906933  p :     4.794364
      px      :     1.953036
      py      :     1.934395
      dz2     :     0.010248  d :     0.019503
      dxz     :     0.005097
      dyz     :     0.003771
      dx2y2   :     0.000113
      dxy     :     0.000274
      f0      :     0.000793  f :     0.001392
      f+1     :     0.000313
      f-1     :     0.000248
      f+2     :     0.000014
      f-2     :     0.000022
      f+3     :     0.000000
      f-3     :     0.000001
  6 H s       :     0.893261  s :     0.893261
      pz      :     0.011414  p :     0.021541
      px      :     0.005121
      py      :     0.005006
  7 H s       :     0.882671  s :     0.882671
      pz      :     0.006332  p :     0.020615
      px      :     0.009535
      py      :     0.004749
  8 H s       :     0.871354  s :     0.871354
      pz      :     0.005640  p :     0.020774
      px      :     0.005420
      py      :     0.009714


                     *******************************
                     * LOEWDIN POPULATION ANALYSIS *
                     *******************************

----------------------
LOEWDIN ATOMIC CHARGES
----------------------
   0 C :   -0.455921
   1 C :   -0.358058
   2 O :   -0.050745
   3 H :    0.092195
   4 H :    0.118275
   5 O :   -0.689956
   6 H :    0.109243
   7 H :    0.113935
   8 H :    0.121032

-------------------------------
LOEWDIN REDUCED ORBITAL CHARGES
-------------------------------
  0 C s       :     2.837944  s :     2.837944
      pz      :     1.021656  p :     2.984133
      px      :     1.027257
      py      :     0.935220
      dz2     :     0.096535  d :     0.563981
      dxz     :     0.069691
      dyz     :     0.092110
      dx2y2   :     0.146769
      dxy     :     0.158876
      f0      :     0.006764  f :     0.069863
      f+1     :     0.002629
      f-1     :     0.010044
      f+2     :     0.010465
      f-2     :     0.011328
      f+3     :     0.012404
      f-3     :     0.016229
  1 C s       :     2.854826  s :     2.854826
      pz      :     1.083027  p :     3.228311
      px      :     1.074939
      py      :     1.070346
      dz2     :     0.038563  d :     0.250941
      dxz     :     0.054478
      dyz     :     0.044304
      dx2y2   :     0.060597
      dxy     :     0.052999
      f0      :     0.004008  f :     0.023980
      f+1     :     0.001786
      f-1     :     0.002210
      f+2     :     0.002497
      f-2     :     0.004512
      f+3     :     0.004460
      f-3     :     0.004508
  2 O s       :     3.446188  s :     3.446188
      pz      :     1.181108  p :     4.465743
      px      :     1.750642
      py      :     1.533994
      dz2     :     0.043436  d :     0.130740
      dxz     :     0.024808
      dyz     :     0.035457
      dx2y2   :     0.012425
      dxy     :     0.014614
      f0      :     0.002264  f :     0.008073
      f+1     :     0.001212
      f-1     :     0.002043
      f+2     :     0.000603
      f-2     :     0.000592
      f+3     :     0.000714
      f-3     :     0.000645
  3 H s       :     0.850112  s :     0.850112
      pz      :     0.017773  p :     0.057693
      px      :     0.027745
      py      :     0.012176
  4 H s       :     0.824902  s :     0.824902
      pz      :     0.032588  p :     0.056823
      px      :     0.013608
      py      :     0.010627
  5 O s       :     3.769622  s :     3.769622
      pz      :     1.017268  p :     4.854228
      px      :     1.932101
      py      :     1.904859
      dz2     :     0.032964  d :     0.061536
      dxz     :     0.015116
      dyz     :     0.012381
      dx2y2   :     0.000312
      dxy     :     0.000764
      f0      :     0.002456  f :     0.004569
      f+1     :     0.001045
      f-1     :     0.000940
      f+2     :     0.000049
      f-2     :     0.000074
      f+3     :     0.000002
      f-3     :     0.000003
  6 H s       :     0.828066  s :     0.828066
      pz      :     0.033981  p :     0.062691
      px      :     0.014624
      py      :     0.014086
  7 H s       :     0.825260  s :     0.825260
      pz      :     0.019153  p :     0.060805
      px      :     0.027286
      py      :     0.014366
  8 H s       :     0.817897  s :     0.817897
      pz      :     0.017149  p :     0.061072
      px      :     0.016667
      py      :     0.027257


                      *****************************
                      * MAYER POPULATION ANALYSIS *
                      *****************************

  NA   - Mulliken gross atomic population
  ZA   - Total nuclear charge
  QA   - Mulliken gross atomic charge
  VA   - Mayer's total valence
  BVA  - Mayer's bonded valence
  FA   - Mayer's free valence

  ATOM       NA         ZA         QA         VA         BVA        FA
  0 C      6.0221     6.0000    -0.0221     3.9958     3.9958    -0.0000
  1 C      6.3371     6.0000    -0.3371     3.7634     3.7634    -0.0000
  2 O      8.2666     8.0000    -0.2666     1.9414     1.9414     0.0000
  3 H      0.9731     1.0000     0.0269     1.0205     1.0205    -0.0000
  4 H      0.9196     1.0000     0.0804     0.9731     0.9731    -0.0000
  5 O      8.7713     8.0000    -0.7713     1.0320     1.0320     0.0000
  6 H      0.9148     1.0000     0.0852     1.0321     1.0321     0.0000
  7 H      0.9033     1.0000     0.0967     0.9924     0.9924     0.0000
  8 H      0.8921     1.0000     0.1079     0.9815     0.9815     0.0000

  Mayer bond orders larger than 0.100000
B(  0-C ,  1-C ) :   0.9866 B(  0-C ,  2-O ) :   1.1164 B(  0-C ,  3-H ) :   0.9530 
B(  0-C ,  4-H ) :   0.9314 B(  1-C ,  6-H ) :   0.9592 B(  1-C ,  7-H ) :   0.9591 
B(  1-C ,  8-H ) :   0.9525 B(  2-O ,  5-O ) :   0.8365 

-------
TIMINGS
-------

Total SCF time: 0 days 0 hours 0 min 11 sec 

Total time                  ....      11.738 sec
Sum of individual times     ....       9.416 sec  ( 80.2%)

Fock matrix formation       ....       8.345 sec  ( 71.1%)
  Split-RI-J                ....       0.850 sec  ( 10.2% of F)
  XC integration            ....       3.991 sec  ( 47.8% of F)
    Basis function eval.    ....       1.191 sec  ( 29.8% of XC)
    Density eval.           ....       0.706 sec  ( 17.7% of XC)
    XC-Functional eval.     ....       0.255 sec  (  6.4% of XC)
    XC-Potential eval.      ....       0.793 sec  ( 19.9% of XC)
Diagonalization             ....       0.004 sec  (  0.0%)
Density matrix formation    ....       0.001 sec  (  0.0%)
Population analysis         ....       0.253 sec  (  2.2%)
Initial guess               ....       0.005 sec  (  0.0%)
Orbital Transformation      ....       0.000 sec  (  0.0%)
Orbital Orthonormalization  ....       0.004 sec  (  0.0%)
DIIS solution               ....       0.001 sec  (  0.0%)
SOSCF solution              ....       0.180 sec  (  1.5%)
Grid generation             ....       0.628 sec  (  5.3%)

Maximum memory used throughout the entire SCF-calculation: 42.7 MB


-------------------------------------------------------------------------------
                          DFT DISPERSION CORRECTION                            
                                                                               
                              DFTD3 V3.1  Rev 1                                
                          USING Becke-Johnson damping                          
-------------------------------------------------------------------------------
The PBE functional is recognized
Active option DFTDOPT                   ...         4   

molecular C6(AA) [au] = 577.938440 


            DFT-D V3
 parameters
 s6 scaling factor         :     1.0000 
 a1 scaling factor         :     0.4289 
 s8 scaling factor         :     0.7875 
 a2 scaling factor         :     4.4407 
 ad hoc parameters k1-k3   :    16.0000     1.3333    -4.0000 

 Edisp/kcal,au: -2.964348450126  -0.004723989448 
 E6   /kcal   :  -2.151280873 
 E8   /kcal   :  -0.813067577 
 % E8         :  27.428205256 

-------------------------   ----------------
Dispersion correction           -0.004723989
-------------------------   ----------------


-------------------------   --------------------
FINAL SINGLE POINT ENERGY      -229.516312321368
-------------------------   --------------------

                                *** OPTIMIZATION RUN DONE ***

                            ***************************************
                            *     ORCA property calculations      *
                            ***************************************

                                    ---------------------
                                    Active property flags
                                    ---------------------
   (+) Dipole Moment


------------------------------------------------------------------------------
                       ORCA ELECTRIC PROPERTIES CALCULATION
------------------------------------------------------------------------------

Dipole Moment Calculation                       ... on
Quadrupole Moment Calculation                   ... off
Polarizability Calculation                      ... off
GBWName                                         ... inp.gbw
Electron density                                ... inp.scfp
The origin for moment calculation is the CENTER OF MASS  = (-14.336124, -9.157164  1.732057)

-------------
DIPOLE MOMENT
-------------
                                X             Y             Z
Electronic contribution:      0.15457      -3.71130      -1.42208
Nuclear contribution   :      0.13721       5.43626       3.54152
                        -----------------------------------------
Total Dipole Moment    :      0.29179       1.72497       2.11944
                        -----------------------------------------
Magnitude (a.u.)       :      2.74821
Magnitude (Debye)      :      6.98541



--------------------
Rotational spectrum 
--------------------
 
Rotational constants in cm-1:     0.539237     0.183856     0.155216 
Rotational constants in MHz : 16165.904804  5511.849725  4653.272608 

 Dipole components along the rotational axes: 
x,y,z [a.u.] :     2.657015     0.696868    -0.085616 
x,y,z [Debye]:     6.753595     1.771297    -0.217619 

 

Timings for individual modules:

Sum of individual times         ...      161.779 sec (=   2.696 min)
GTO integral calculation        ...       10.687 sec (=   0.178 min)   6.6 %
SCF iterations                  ...      125.423 sec (=   2.090 min)  77.5 %
SCF Gradient evaluation         ...       24.084 sec (=   0.401 min)  14.9 %
Geometry relaxation             ...        1.586 sec (=   0.026 min)   1.0 %
                             ****ORCA TERMINATED NORMALLY****
TOTAL RUN TIME: 0 days 0 hours 2 minutes 48 seconds 91 msec
