
                                 *****************
                                 * O   R   C   A *
                                 *****************

                                            #,                                       
                                            ###                                      
                                            ####                                     
                                            #####                                    
                                            ######                                   
                                           ########,                                 
                                     ,,################,,,,,                         
                               ,,#################################,,                 
                          ,,##########################################,,             
                       ,#########################################, ''#####,          
                    ,#############################################,,   '####,        
                  ,##################################################,,,,####,       
                ,###########''''           ''''###############################       
              ,#####''   ,,,,##########,,,,          '''####'''          '####       
            ,##' ,,,,###########################,,,                        '##       
           ' ,,###''''                  '''############,,,                           
         ,,##''                                '''############,,,,        ,,,,,,###''
      ,#''                                            '''#######################'''  
     '                                                          ''''####''''         
             ,#######,   #######,   ,#######,      ##                                
            ,#'     '#,  ##    ##  ,#'     '#,    #''#        ######   ,####,        
            ##       ##  ##   ,#'  ##            #'  '#       #        #'  '#        
            ##       ##  #######   ##           ,######,      #####,   #    #        
            '#,     ,#'  ##    ##  '#,     ,#' ,#      #,         ##   #,  ,#        
             '#######'   ##     ##  '#######'  #'      '#     #####' # '####'        



                  #######################################################
                  #                        -***-                        #
                  #          Department of theory and spectroscopy      #
                  #    Directorship and core code : Frank Neese         #
                  #        Max Planck Institute fuer Kohlenforschung    #
                  #                Kaiser Wilhelm Platz 1               #
                  #                 D-45470 Muelheim/Ruhr               #
                  #                      Germany                        #
                  #                                                     #
                  #                  All rights reserved                #
                  #                        -***-                        #
                  #######################################################


                         Program Version 5.0.4 -  RELEASE  -


 With contributions from (in alphabetic order):
   Daniel Aravena         : Magnetic Suceptibility
   Michael Atanasov       : Ab Initio Ligand Field Theory (pilot matlab implementation)
   Alexander A. Auer      : GIAO ZORA, VPT2 properties, NMR spectrum
   Ute Becker             : Parallelization
   Giovanni Bistoni       : ED, misc. LED, open-shell LED, HFLD
   Martin Brehm           : Molecular dynamics
   Dmytro Bykov           : SCF Hessian
   Vijay G. Chilkuri      : MRCI spin determinant printing, contributions to CSF-ICE
   Dipayan Datta          : RHF DLPNO-CCSD density
   Achintya Kumar Dutta   : EOM-CC, STEOM-CC
   Dmitry Ganyushin       : Spin-Orbit,Spin-Spin,Magnetic field MRCI
   Miquel Garcia          : C-PCM and meta-GGA Hessian, CC/C-PCM, Gaussian charge scheme
   Yang Guo               : DLPNO-NEVPT2, F12-NEVPT2, CIM, IAO-localization
   Andreas Hansen         : Spin unrestricted coupled pair/coupled cluster methods
   Benjamin Helmich-Paris : MC-RPA, TRAH-SCF, COSX integrals
   Lee Huntington         : MR-EOM, pCC
   Robert Izsak           : Overlap fitted RIJCOSX, COSX-SCS-MP3, EOM
   Marcus Kettner         : VPT2
   Christian Kollmar      : KDIIS, OOCD, Brueckner-CCSD(T), CCSD density, CASPT2, CASPT2-K
   Simone Kossmann        : Meta GGA functionals, TD-DFT gradient, OOMP2, MP2 Hessian
   Martin Krupicka        : Initial AUTO-CI
   Lucas Lang             : DCDCAS
   Marvin Lechner         : AUTO-CI (C++ implementation), FIC-MRCC
   Dagmar Lenk            : GEPOL surface, SMD
   Dimitrios Liakos       : Extrapolation schemes; Compound Job, initial MDCI parallelization
   Dimitrios Manganas     : Further ROCIS development; embedding schemes
   Dimitrios Pantazis     : SARC Basis sets
   Anastasios Papadopoulos: AUTO-CI, single reference methods and gradients
   Taras Petrenko         : DFT Hessian,TD-DFT gradient, ASA, ECA, R-Raman, ABS, FL, XAS/XES, NRVS
   Peter Pinski           : DLPNO-MP2, DLPNO-MP2 Gradient
   Christoph Reimann      : Effective Core Potentials
   Marius Retegan         : Local ZFS, SOC
   Christoph Riplinger    : Optimizer, TS searches, QM/MM, DLPNO-CCSD(T), (RO)-DLPNO pert. Triples
   Tobias Risthaus        : Range-separated hybrids, TD-DFT gradient, RPA, STAB
   Michael Roemelt        : Original ROCIS implementation
   Masaaki Saitow         : Open-shell DLPNO-CCSD energy and density
   Barbara Sandhoefer     : DKH picture change effects
   Avijit Sen             : IP-ROCIS
   Kantharuban Sivalingam : CASSCF convergence, NEVPT2, FIC-MRCI
   Bernardo de Souza      : ESD, SOC TD-DFT
   Georgi Stoychev        : AutoAux, RI-MP2 NMR, DLPNO-MP2 response
   Willem Van den Heuvel  : Paramagnetic NMR
   Boris Wezisla          : Elementary symmetry handling
   Frank Wennmohs         : Technical directorship


 We gratefully acknowledge several colleagues who have allowed us to
 interface, adapt or use parts of their codes:
   Stefan Grimme, W. Hujo, H. Kruse, P. Pracht,  : VdW corrections, initial TS optimization,
                  C. Bannwarth, S. Ehlert          DFT functionals, gCP, sTDA/sTD-DF
   Ed Valeev, F. Pavosevic, A. Kumar             : LibInt (2-el integral package), F12 methods
   Garnet Chan, S. Sharma, J. Yang, R. Olivares  : DMRG
   Ulf Ekstrom                                   : XCFun DFT Library
   Mihaly Kallay                                 : mrcc  (arbitrary order and MRCC methods)
   Jiri Pittner, Ondrej Demel                    : Mk-CCSD
   Frank Weinhold                                : gennbo (NPA and NBO analysis)
   Christopher J. Cramer and Donald G. Truhlar   : smd solvation model
   Lars Goerigk                                  : TD-DFT with DH, B97 family of functionals
   V. Asgeirsson, H. Jonsson                     : NEB implementation
   FAccTs GmbH                                   : IRC, NEB, NEB-TS, DLPNO-Multilevel, CI-OPT
                                                   MM, QMMM, 2- and 3-layer-ONIOM, Crystal-QMMM,
                                                   LR-CPCM, SF, NACMEs, symmetry and pop. for TD-DFT,
                                                   nearIR, NL-DFT gradient (VV10), updates on ESD,
                                                   ML-optimized integration grids
   S Lehtola, MJT Oliveira, MAL Marques          : LibXC Library
   Liviu Ungur et al                             : ANISO software


 Your calculation uses the libint2 library for the computation of 2-el integrals
 For citations please refer to: http://libint.valeyev.net

 Your ORCA version has been built with support for libXC version: 5.1.0
 For citations please refer to: https://tddft.org/programs/libxc/

 This ORCA versions uses:
   CBLAS   interface :  Fast vector & matrix operations
   LAPACKE interface :  Fast linear algebra routines
   SCALAPACK package :  Parallel linear algebra routines
   Shared memory     :  Shared parallel matrices
   BLAS/LAPACK       :  OpenBLAS 0.3.15  USE64BITINT DYNAMIC_ARCH NO_AFFINITY Haswell SINGLE_THREADED
        Core in use  :  Haswell
   Copyright (c) 2011-2014, The OpenBLAS Project


Your calculation utilizes the atom-pairwise dispersion correction
with the Becke-Johnson damping scheme (D3BJ)
Cite in your paper:
S.Grimme, S.Ehrlich, L.Goerigk, J Comput Chem, (2011), 32, 1456–1465 
S.Grimme, J.Antony, S.Ehrlich and H.Krieg, J.Chem.Phys., 132, (2010), 154104 
   

================================================================================

----- Orbital basis set information -----
Your calculation utilizes the basis: def2-TZVP
   F. Weigend and R. Ahlrichs, Phys. Chem. Chem. Phys. 7, 3297 (2005).

----- AuxJ basis set information -----
Your calculation utilizes the auxiliary basis: def2/J
   F. Weigend, Phys. Chem. Chem. Phys. 8, 1057 (2006).

================================================================================
                                        WARNINGS
                       Please study these warnings very carefully!
================================================================================


INFO   : the flag for use of the SHARK integral package has been found!

================================================================================
                                       INPUT FILE
================================================================================
NAME = inp.inp
|  1> !PBE D3BJ def2-TZVP CPCM(water)
|  2> 
|  3> *xyz -1 1
|  4> N     -4.977829   -1.457749   -2.584150
|  5> C     -5.262634   -2.881313   -2.650855
|  6> *
|  7> 
|  8>                          ****END OF INPUT****
================================================================================

                       ****************************
                       * Single Point Calculation *
                       ****************************

---------------------------------
CARTESIAN COORDINATES (ANGSTROEM)
---------------------------------
  N     -4.977829   -1.457749   -2.584150
  C     -5.262634   -2.881313   -2.650855

----------------------------
CARTESIAN COORDINATES (A.U.)
----------------------------
  NO LB      ZA    FRAG     MASS         X           Y           Z
   0 N     7.0000    0    14.007   -9.406734   -2.754746   -4.883336
   1 C     6.0000    0    12.011   -9.944937   -5.444892   -5.009390

--------------------------------
INTERNAL COORDINATES (ANGSTROEM)
--------------------------------
 N      0   0   0     0.000000000000     0.00000000     0.00000000
 C      1   0   0     1.453305854645     0.00000000     0.00000000

---------------------------
INTERNAL COORDINATES (A.U.)
---------------------------
 N      0   0   0     0.000000000000     0.00000000     0.00000000
 C      1   0   0     2.746350054104     0.00000000     0.00000000

---------------------
BASIS SET INFORMATION
---------------------
There are 2 groups of distinct atoms

 Group   1 Type N   : 11s6p2d1f contracted to 5s3p2d1f pattern {62111/411/11/1}
 Group   2 Type C   : 11s6p2d1f contracted to 5s3p2d1f pattern {62111/411/11/1}

Atom   0N    basis set group =>   1
Atom   1C    basis set group =>   2
---------------------------------
AUXILIARY/J BASIS SET INFORMATION
---------------------------------
There are 2 groups of distinct atoms

 Group   1 Type N   : 12s5p4d2f1g contracted to 6s4p3d1f1g pattern {711111/2111/211/2/1}
 Group   2 Type C   : 12s5p4d2f1g contracted to 6s4p3d1f1g pattern {711111/2111/211/2/1}

Atom   0N    basis set group =>   1
Atom   1C    basis set group =>   2
------------------------------------------------------------------------------
                           ORCA GTO INTEGRAL CALCULATION
                           -- RI-GTO INTEGRALS CHOSEN --
------------------------------------------------------------------------------
------------------------------------------------------------------------------
                   ___                                                        
                  /   \      - P O W E R E D   B Y -                         
                 /     \                                                     
                 |  |  |   _    _      __       _____    __    __             
                 |  |  |  | |  | |    /  \     |  _  \  |  |  /  |          
                  \  \/   | |  | |   /    \    | | | |  |  | /  /          
                 / \  \   | |__| |  /  /\  \   | |_| |  |  |/  /          
                |  |  |   |  __  | /  /__\  \  |    /   |      \           
                |  |  |   | |  | | |   __   |  |    \   |  |\   \          
                \     /   | |  | | |  |  |  |  | |\  \  |  | \   \       
                 \___/    |_|  |_| |__|  |__|  |_| \__\ |__|  \__/        
                                                                              
                      - O R C A' S   B I G   F R I E N D -                    
                                      &                                       
                       - I N T E G R A L  F E E D E R -                       
                                                                              
 v1 FN, 2020, v2 2021                                                         
------------------------------------------------------------------------------


Reading SHARK input file inp.SHARKINP.tmp ... ok
----------------------
SHARK INTEGRAL PACKAGE
----------------------

Number of atoms                             ...      2
Number of basis functions                   ...     62
Number of shells                            ...     22
Maximum angular momentum                    ...      3
Integral batch strategy                     ... SHARK/LIBINT Hybrid
RI-J (if used) integral strategy            ... SPLIT-RIJ (Revised 2003 algorithm where possible)
Printlevel                                  ...      1
Contraction scheme used                     ... SEGMENTED contraction
Coulomb Range Separation                    ... NOT USED
Exchange Range Separation                   ... NOT USED
Finite Nucleus Model                        ... NOT USED
Auxiliary Coulomb fitting basis             ... AVAILABLE
   # of basis functions in Aux-J            ...     98
   # of shells in Aux-J                     ...     30
   Maximum angular momentum in Aux-J        ...      4
Auxiliary J/K fitting basis                 ... NOT available
Auxiliary Correlation fitting basis         ... NOT available
Auxiliary 'external' fitting basis          ... NOT available
Integral threshold                          ...     1.000000e-10
Primitive cut-off                           ...     1.000000e-11
Primitive pair pre-selection threshold      ...     1.000000e-11

Calculating pre-screening integrals         ... done (  0.0 sec) Dimension = 22
Organizing shell pair data                  ... done (  0.1 sec)
Shell pair information
Total number of shell pairs                 ...       253
Shell pairs after pre-screening             ...       252
Total number of primitive shell pairs       ...       864
Primitive shell pairs kept                  ...       782
          la=0 lb=0:     54 shell pairs
          la=1 lb=0:     60 shell pairs
          la=1 lb=1:     21 shell pairs
          la=2 lb=0:     40 shell pairs
          la=2 lb=1:     24 shell pairs
          la=2 lb=2:     10 shell pairs
          la=3 lb=0:     20 shell pairs
          la=3 lb=1:     12 shell pairs
          la=3 lb=2:      8 shell pairs
          la=3 lb=3:      3 shell pairs

Calculating one electron integrals          ... done (  0.0 sec)
Calculating RI/J V-Matrix + Cholesky decomp.... done (  0.0 sec)
Calculating Nuclear repulsion               ... done (  0.0 sec) ENN=     15.293024986833 Eh

SHARK setup successfully completed in   0.6 seconds

Maximum memory used throughout the entire GTOINT-calculation: 13.9 MB
-------------------------------------------------------------------------------
                                 ORCA SCF
-------------------------------------------------------------------------------

------------
SCF SETTINGS
------------
Hamiltonian:
 Density Functional     Method          .... DFT(GTOs)
 Exchange Functional    Exchange        .... PBE
   PBE kappa parameter   XKappa         ....  0.804000
   PBE mue parameter    XMuePBE         ....  0.219520
 Correlation Functional Correlation     .... PBE
   PBE beta parameter  CBetaPBE         ....  0.066725
 LDA part of GGA corr.  LDAOpt          .... PW91-LDA
 Gradients option       PostSCFGGA      .... off
   Density functional embedding theory  .... OFF
   NL short-range parameter             ....  6.400000
 RI-approximation to the Coulomb term is turned on
   Number of AuxJ basis functions       .... 98


General Settings:
 Integral files         IntName         .... inp
 Hartree-Fock type      HFTyp           .... RHF
 Total Charge           Charge          ....   -1
 Multiplicity           Mult            ....    1
 Number of Electrons    NEL             ....   14
 Basis Dimension        Dim             ....   62
 Nuclear Repulsion      ENuc            ....     15.2930249868 Eh

Convergence Acceleration:
 DIIS                   CNVDIIS         .... on
   Start iteration      DIISMaxIt       ....    12
   Startup error        DIISStart       ....  0.200000
   # of expansion vecs  DIISMaxEq       ....     5
   Bias factor          DIISBfac        ....   1.050
   Max. coefficient     DIISMaxC        ....  10.000
 Trust-Rad. Augm. Hess. CNVTRAH         .... auto
   Auto Start mean grad. ratio tolernc. ....  1.125000
   Auto Start start iteration           ....    20
   Auto Start num. interpolation iter.  ....    10
   Max. Number of Micro iterations      ....    16
   Max. Number of Macro iterations      .... Maxiter - #DIIS iter
   Number of Davidson start vectors     ....     2
   Converg. threshold I  (grad. norm)   ....   5.000e-05
   Converg. threshold II (energy diff.) ....   1.000e-06
   Grad. Scal. Fac. for Micro threshold ....   0.100
   Minimum threshold for Micro iter.    ....   0.010
   NR start threshold (gradient norm)   ....   0.001
   Initial trust radius                 ....   0.400
   Minimum AH scaling param. (alpha)    ....   1.000
   Maximum AH scaling param. (alpha)    .... 1000.000
   Orbital update algorithm             .... Taylor
   White noise on init. David. guess    .... on
   Maximum white noise                  ....   0.010
   Quad. conv. algorithm                .... NR
 SOSCF                  CNVSOSCF        .... on
   Start iteration      SOSCFMaxIt      ....   150
   Startup grad/error   SOSCFStart      ....  0.003300
 Level Shifting         CNVShift        .... on
   Level shift para.    LevelShift      ....    0.2500
   Turn off err/grad.   ShiftErr        ....    0.0010
 Zerner damping         CNVZerner       .... off
 Static damping         CNVDamp         .... on
   Fraction old density DampFac         ....    0.7000
   Max. Damping (<1)    DampMax         ....    0.9800
   Min. Damping (>=0)   DampMin         ....    0.0000
   Turn off err/grad.   DampErr         ....    0.1000
 Fernandez-Rico         CNVRico         .... off

SCF Procedure:
 Maximum # iterations   MaxIter         ....   125
 SCF integral mode      SCFMode         .... Direct
   Integral package                     .... SHARK and LIBINT hybrid scheme
 Reset frequency        DirectResetFreq ....    20
 Integral Threshold     Thresh          ....  1.000e-10 Eh
 Primitive CutOff       TCut            ....  1.000e-11 Eh

Convergence Tolerance:
 Convergence Check Mode ConvCheckMode   .... Total+1el-Energy
 Convergence forced     ConvForced      .... 0
 Energy Change          TolE            ....  1.000e-06 Eh
 1-El. energy change                    ....  1.000e-03 Eh
 Orbital Gradient       TolG            ....  5.000e-05
 Orbital Rotation angle TolX            ....  5.000e-05
 DIIS Error             TolErr          ....  1.000e-06


Diagonalization of the overlap matrix:
Smallest eigenvalue                        ... 2.043e-03
Time for diagonalization                   ...    0.001 sec
Threshold for overlap eigenvalues          ... 1.000e-08
Number of eigenvalues below threshold      ... 0
Time for construction of square roots      ...    0.030 sec
Total time needed                          ...    0.031 sec

Time for model grid setup =    0.070 sec

------------------------------
INITIAL GUESS: MODEL POTENTIAL
------------------------------
Loading Hartree-Fock densities                     ... done
Calculating cut-offs                               ... done
Initializing the effective Hamiltonian             ... done
Setting up the integral package (SHARK)            ... done
Starting the Coulomb interaction                   ... done (   0.1 sec)
Reading the grid                                   ... done
Mapping shells                                     ... done
Starting the XC term evaluation                    ... done (   0.0 sec)
  promolecular density results
     # of electrons  =     13.000005870
     EX              =    -11.398086867
     EC              =     -0.386067072
     EX+EC           =    -11.784153939
Transforming the Hamiltonian                       ... done (   0.0 sec)
Diagonalizing the Hamiltonian                      ... done (   0.0 sec)
Back transforming the eigenvectors                 ... done (   0.0 sec)
Now organizing SCF variables                       ... done
                      ------------------
                      INITIAL GUESS DONE (   0.2 sec)
                      ------------------
-------------------
DFT GRID GENERATION
-------------------

General Integration Accuracy     IntAcc      ... 4.388
Radial Grid Type                 RadialGrid  ... OptM3 with GC (2021)
Angular Grid (max. ang.)         AngularGrid ... 4 (Lebedev-302)
Angular grid pruning method      GridPruning ... 4 (adaptive)
Weight generation scheme         WeightScheme... Becke
Basis function cutoff            BFCut       ... 1.0000e-10
Integration weight cutoff        WCut        ... 1.0000e-14
Angular grids for H and He will be reduced by one unit
Partially contracted basis set               ... off
Rotationally invariant grid construction     ... off

Total number of grid points                  ...    12264
Total number of batches                      ...      193
Average number of points per batch           ...       63
Average number of grid points per atom       ...     6132
Time for grid setup =    0.137 sec


--------------------
CPCM SOLVATION MODEL
--------------------
CPCM parameters:
  Epsilon                                         ...      80.4000
  Refrac                                          ...       1.3300
  Rsolv                                           ...       1.3000
  Surface type                                    ... GAUSSIAN VDW
  Epsilon function type                           ...         CPCM
Radii:
 Radius for N  used is    3.5149 Bohr (=   1.8600 Ang.)
 Radius for C  used is    3.8550 Bohr (=   2.0400 Ang.)
Calculating surface                               ...        done! (  0.0s)
GEPOL surface points                              ...          185
GEPOL Volume                                      ...     324.2043
GEPOL Surface-area                                ...     235.4618
Calculating surface distance matrix               ...        done! (  0.0s)
Performing Cholesky decomposition & store         ...        done! (  0.1s)
Overall time for CPCM initialization              ...                 0.1s
--------------
SCF ITERATIONS
--------------
ITER       Energy         Delta-E        Max-DP      RMS-DP      [F,P]     Damp
               ***  Starting incremental Fock matrix formation  ***
  0    -92.6790530378   0.000000000000 0.06057550  0.00382407  0.3020074 0.7000
  1    -92.7512447272  -0.072191689408 0.05269676  0.00236367  0.0708071 0.7000
                               ***Turning on DIIS***
  2    -92.7593140904  -0.008069363208 0.19161582  0.00544199  0.0726457 0.0000
  3    -92.7972831320  -0.037969041518 0.05068433  0.00172685  0.0637872 0.0000
  4    -92.8043945590  -0.007111427067 0.01899530  0.00062808  0.0301466 0.0000
  5    -92.8055764794  -0.001181920376 0.01201590  0.00031862  0.0097377 0.0000
                      *** Initiating the SOSCF procedure ***
                           *** Shutting down DIIS ***
                      *** Re-Reading the Fockian *** 
                      *** Removing any level shift *** 
ITER      Energy       Delta-E        Grad      Rot      Max-DP    RMS-DP
  6    -92.80573165  -0.0001551700  0.000438  0.000438  0.004604  0.000117
               *** Restarting incremental Fock matrix formation ***
  7    -92.80574260  -0.0000109500  0.000343  0.001872  0.003872  0.000106
  8    -92.80572701   0.0000155940  0.001766  0.001604  0.000868  0.000052
  9    -92.80574348  -0.0000164744  0.000088  0.000255  0.001095  0.000028
 10    -92.80574342   0.0000000601  0.000118  0.000132  0.000548  0.000014
                 **** Energy Check signals convergence ****
              ***Rediagonalizing the Fockian in SOSCF/NRSCF***

               *****************************************************
               *                     SUCCESS                       *
               *           SCF CONVERGED AFTER  11 CYCLES          *
               *****************************************************


----------------
TOTAL SCF ENERGY
----------------

Total Energy       :          -92.80574361 Eh           -2525.37267 eV

Components:
Nuclear Repulsion  :           15.29302499 Eh             416.14437 eV
Electronic Energy  :         -108.09876860 Eh           -2941.51704 eV
One Electron Energy:         -159.39257490 Eh           -4337.29247 eV
Two Electron Energy:           51.29380630 Eh            1395.77543 eV
CPCM Dielectric    :           -0.11021577 Eh              -2.99912 eV

Virial components:
Potential Energy   :         -184.61151035 Eh           -5023.53459 eV
Kinetic Energy     :           91.80576674 Eh            2498.16192 eV
Virial Ratio       :            2.01089231


DFT components:
N(Alpha)           :        7.000000214758 electrons
N(Beta)            :        7.000000214758 electrons
N(Total)           :       14.000000429516 electrons
E(X)               :      -11.713667025238 Eh       
E(C)               :       -0.424124414198 Eh       
E(XC)              :      -12.137791439436 Eh       
DFET-embed. en.    :        0.000000000000 Eh       
CPCM Solvation Model Properties:
Surface-charge          :            0.97360478
Charge-correction       :           -0.00298804 Eh              -0.08131 eV
Free-energy (cav+disp)  :  This term is not implemented in the current solvation scheme

---------------
SCF CONVERGENCE
---------------

  Last Energy change         ...   -1.9262e-07  Tolerance :   1.0000e-06
  Last MAX-Density change    ...    3.0814e-05  Tolerance :   1.0000e-05
  Last RMS-Density change    ...    7.7894e-07  Tolerance :   1.0000e-06
  Last Orbital Gradient      ...    5.2415e-06  Tolerance :   5.0000e-05
  Last Orbital Rotation      ...    7.7142e-06  Tolerance :   5.0000e-05

             **** THE GBW FILE WAS UPDATED (inp.gbw) ****
             **** DENSITY inp.scfp WAS UPDATED ****
             **** ENERGY FILE WAS UPDATED (inp.en.tmp) ****
             **** THE GBW FILE WAS UPDATED (inp.gbw) ****
             **** DENSITY inp.scfp WAS UPDATED ****
----------------
ORBITAL ENERGIES
----------------

  NO   OCC          E(Eh)            E(eV) 
   0   2.0000     -13.959304      -379.8520 
   1   2.0000      -9.902386      -269.4576 
   2   2.0000      -0.669148       -18.2084 
   3   2.0000      -0.362765        -9.8713 
   4   2.0000      -0.213392        -5.8067 
   5   2.0000      -0.213369        -5.8061 
   6   2.0000      -0.208508        -5.6738 
   7   0.0000      -0.030123        -0.8197 
   8   0.0000      -0.030111        -0.8194 
   9   0.0000       0.125828         3.4239 
  10   0.0000       0.161137         4.3848 
  11   0.0000       0.229697         6.2504 
  12   0.0000       0.229738         6.2515 
  13   0.0000       0.296325         8.0634 
  14   0.0000       0.370409        10.0793 
  15   0.0000       0.387281        10.5384 
  16   0.0000       0.387308        10.5392 
  17   0.0000       0.522217        14.2103 
  18   0.0000       0.659496        17.9458 
  19   0.0000       0.659518        17.9464 
  20   0.0000       0.774657        21.0795 
  21   0.0000       0.774680        21.0801 
  22   0.0000       1.009767        27.4772 
  23   0.0000       1.109033        30.1783 
  24   0.0000       1.109042        30.1786 
  25   0.0000       1.266277        34.4571 
  26   0.0000       1.338433        36.4206 
  27   0.0000       1.338443        36.4209 
  28   0.0000       1.507763        41.0283 
  29   0.0000       1.507783        41.0289 
  30   0.0000       1.512717        41.1631 
  31   0.0000       1.678868        45.6843 
  32   0.0000       1.996107        54.3168 
  33   0.0000       2.066601        56.2351 
  34   0.0000       2.066616        56.2355 
  35   0.0000       2.644730        71.9668 
  36   0.0000       2.661078        72.4116 
  37   0.0000       2.661083        72.4117 
  38   0.0000       2.664003        72.4912 
  39   0.0000       2.664008        72.4913 
  40   0.0000       2.825583        76.8880 
  41   0.0000       2.825592        76.8883 
  42   0.0000       2.948896        80.2435 
  43   0.0000       2.948904        80.2438 
  44   0.0000       3.205691        87.2313 
  45   0.0000       3.205705        87.2317 
  46   0.0000       3.255726        88.5928 
  47   0.0000       3.678900       100.1080 
  48   0.0000       3.871845       105.3583 
  49   0.0000       3.871851       105.3584 
  50   0.0000       4.080724       111.0421 
  51   0.0000       4.080727       111.0422 
  52   0.0000       4.459453       121.3479 
  53   0.0000       4.459461       121.3481 
  54   0.0000       4.505543       122.6021 
  55   0.0000       4.505550       122.6022 
  56   0.0000       4.966127       135.1352 
  57   0.0000       4.966137       135.1355 
  58   0.0000       4.993710       135.8857 
  59   0.0000       5.151405       140.1769 
  60   0.0000      21.318074       580.0943 
  61   0.0000      31.227617       849.7467 

                    ********************************
                    * MULLIKEN POPULATION ANALYSIS *
                    ********************************

-----------------------
MULLIKEN ATOMIC CHARGES
-----------------------
   0 N :   -0.563196
   1 C :   -0.436804
Sum of atomic charges:   -1.0000000

--------------------------------
MULLIKEN REDUCED ORBITAL CHARGES
--------------------------------
  0 N s       :     3.843405  s :     3.843405
      pz      :     1.216257  p :     3.694027
      px      :     1.217782
      py      :     1.259988
      dz2     :     0.002507  d :     0.024448
      dxz     :     0.000294
      dyz     :     0.006963
      dx2y2   :     0.007425
      dxy     :     0.007259
      f0      :     0.000152  f :     0.001315
      f+1     :     0.000031
      f-1     :     0.000182
      f+2     :     0.000219
      f-2     :     0.000040
      f+3     :     0.000360
      f-3     :     0.000331
  1 C s       :     3.939780  s :     3.939780
      pz      :     0.760556  p :     2.450314
      px      :     0.766922
      py      :     0.922837
      dz2     :     0.003402  d :     0.042730
      dxz     :     0.000594
      dyz     :     0.014052
      dx2y2   :     0.010721
      dxy     :     0.013961
      f0      :     0.000495  f :     0.003980
      f+1     :     0.000098
      f-1     :     0.000486
      f+2     :     0.000709
      f-2     :     0.000129
      f+3     :     0.001112
      f-3     :     0.000951


                     *******************************
                     * LOEWDIN POPULATION ANALYSIS *
                     *******************************

----------------------
LOEWDIN ATOMIC CHARGES
----------------------
   0 N :   -0.427655
   1 C :   -0.572345

-------------------------------
LOEWDIN REDUCED ORBITAL CHARGES
-------------------------------
  0 N s       :     3.564193  s :     3.564193
      pz      :     1.173810  p :     3.799772
      px      :     1.183857
      py      :     1.442105
      dz2     :     0.010101  d :     0.059538
      dxz     :     0.000389
      dyz     :     0.009237
      dx2y2   :     0.027293
      dxy     :     0.012518
      f0      :     0.000262  f :     0.004152
      f+1     :     0.000080
      f-1     :     0.000996
      f+2     :     0.000376
      f-2     :     0.000068
      f+3     :     0.000978
      f-3     :     0.001392
  1 C s       :     3.614384  s :     3.614384
      pz      :     0.775620  p :     2.769317
      px      :     0.791905
      py      :     1.201792
      dz2     :     0.023042  d :     0.165021
      dxz     :     0.001483
      dyz     :     0.035171
      dx2y2   :     0.064243
      dxy     :     0.041081
      f0      :     0.002142  f :     0.023624
      f+1     :     0.000511
      f-1     :     0.004414
      f+2     :     0.003071
      f-2     :     0.000558
      f+3     :     0.006028
      f-3     :     0.006898


                      *****************************
                      * MAYER POPULATION ANALYSIS *
                      *****************************

  NA   - Mulliken gross atomic population
  ZA   - Total nuclear charge
  QA   - Mulliken gross atomic charge
  VA   - Mayer's total valence
  BVA  - Mayer's bonded valence
  FA   - Mayer's free valence

  ATOM       NA         ZA         QA         VA         BVA        FA
  0 N      7.5632     7.0000    -0.5632     2.7316     2.7316    -0.0000
  1 C      6.4368     6.0000    -0.4368     2.7316     2.7316     0.0000

  Mayer bond orders larger than 0.100000
B(  0-N ,  1-C ) :   2.7316 

-------
TIMINGS
-------

Total SCF time: 0 days 0 hours 0 min 8 sec 

Total time                  ....       8.160 sec
Sum of individual times     ....       6.144 sec  ( 75.3%)

Fock matrix formation       ....       5.264 sec  ( 64.5%)
  Split-RI-J                ....       0.146 sec  (  2.8% of F)
  XC integration            ....       2.544 sec  ( 48.3% of F)
    Basis function eval.    ....       0.261 sec  ( 10.3% of XC)
    Density eval.           ....       0.146 sec  (  5.7% of XC)
    XC-Functional eval.     ....       0.138 sec  (  5.4% of XC)
    XC-Potential eval.      ....       0.169 sec  (  6.7% of XC)
Diagonalization             ....       0.005 sec  (  0.1%)
Density matrix formation    ....       0.000 sec  (  0.0%)
Population analysis         ....       0.287 sec  (  3.5%)
Initial guess               ....       0.144 sec  (  1.8%)
Orbital Transformation      ....       0.000 sec  (  0.0%)
Orbital Orthonormalization  ....       0.000 sec  (  0.0%)
DIIS solution               ....       0.188 sec  (  2.3%)
SOSCF solution              ....       0.050 sec  (  0.6%)
Grid generation             ....       0.207 sec  (  2.5%)

Maximum memory used throughout the entire SCF-calculation: 13.0 MB


-------------------------------------------------------------------------------
                          DFT DISPERSION CORRECTION                            
                                                                               
                              DFTD3 V3.1  Rev 1                                
                          USING Becke-Johnson damping                          
-------------------------------------------------------------------------------
The PBE functional is recognized
Active option DFTDOPT                   ...         4   

molecular C6(AA) [au] = 126.220346 


            DFT-D V3
 parameters
 s6 scaling factor         :     1.0000 
 a1 scaling factor         :     0.4289 
 s8 scaling factor         :     0.7875 
 a2 scaling factor         :     4.4407 
 ad hoc parameters k1-k3   :    16.0000     1.3333    -4.0000 

 Edisp/kcal,au: -0.337242546059  -0.000537430149 
 E6   /kcal   :  -0.231125483 
 E8   /kcal   :  -0.106117063 
 % E8         :  31.466095907 

-------------------------   ----------------
Dispersion correction           -0.000537430
-------------------------   ----------------


-------------------------   --------------------
FINAL SINGLE POINT ENERGY       -92.806281042419
-------------------------   --------------------


                            ***************************************
                            *     ORCA property calculations      *
                            ***************************************

                                    ---------------------
                                    Active property flags
                                    ---------------------
   (+) Dipole Moment


------------------------------------------------------------------------------
                       ORCA ELECTRIC PROPERTIES CALCULATION
------------------------------------------------------------------------------

Dipole Moment Calculation                       ... on
Quadrupole Moment Calculation                   ... off
Polarizability Calculation                      ... off
GBWName                                         ... inp.gbw
Electron density                                ... inp.scfp
The origin for moment calculation is the CENTER OF MASS  = (-9.655191, -3.996631 -4.941528)

-------------
DIPOLE MOMENT
-------------
                                X             Y             Z
Electronic contribution:      0.00723       0.03871       0.00231
Nuclear contribution   :      0.00072       0.00362       0.00017
                        -----------------------------------------
Total Dipole Moment    :      0.00796       0.04233       0.00248
                        -----------------------------------------
Magnitude (a.u.)       :      0.04314
Magnitude (Debye)      :      0.10965



--------------------
Rotational spectrum 
--------------------
 
Rotational constants in cm-1:     0.000000     1.234333     1.234333 
Rotational constants in MHz :     0.000000 37004.383353 37004.383353 

 Dipole components along the rotational axes: 
x,y,z [a.u.] :     0.043133     0.000486     0.000516 
x,y,z [Debye]:     0.109635     0.001234     0.001311 

 

Timings for individual modules:

Sum of individual times         ...        8.878 sec (=   0.148 min)
GTO integral calculation        ...        0.679 sec (=   0.011 min)   7.6 %
SCF iterations                  ...        8.199 sec (=   0.137 min)  92.4 %
                             ****ORCA TERMINATED NORMALLY****
TOTAL RUN TIME: 0 days 0 hours 0 minutes 9 seconds 521 msec
