 Entering Gaussian System
 *********************************************
 Gaussian 98:
 frequency output generated by the xtb code
 *********************************************
                         Standard orientation:
 --------------------------------------------------------------------
  Center     Atomic     Atomic              Coordinates (Angstroms)
  Number     Number      Type              X           Y           Z
 --------------------------------------------------------------------
    1          6             0       -0.181838   -0.784099    0.939681
    2          6             0       -0.375337   -0.762183   -0.610585
    3         17             0       -1.713697   -1.295319    1.642229
    4          1             0        0.569458   -1.516293    1.229055
    5          1             0        0.035468    0.212076    1.319931
    6          8             0       -0.747729    0.317051   -1.099767
    7          8             0       -0.153634   -1.830122   -1.204752
 --------------------------------------------------------------------
     1 basis functions        1 primitive gaussians
     1 alpha electrons        1 beta electrons
 
 Harmonic frequencies (cm**-1), IR intensities (km*mol⁻¹),
 Raman scattering activities (A**4/amu), Raman depolarization ratios,
 reduced masses (AMU), force constants (mDyne/A) and normal coordinates:
                      1                      2                      3
                        a                      a                      a 
 Frequencies --   -15.7974               163.0308               402.4187
 Red. masses --    16.8498                23.8842                10.1194
 Frc consts  --     0.0000                 0.0000                 0.0000
 IR Inten    --     1.5057                13.9041                 0.7436
 Raman Activ --     0.0000                 0.0000                 0.0000
 Depolar     --     0.0000                 0.0000                 0.0000
 Atom AN      X      Y      Z        X      Y      Z        X      Y      Z
   1   6     0.12  -0.38  -0.02    -0.30  -0.08  -0.15     0.08  -0.27  -0.01
   2   6     0.03  -0.11  -0.00    -0.02   0.00  -0.22    -0.08   0.29   0.01
   3  17    -0.11   0.38   0.01    -0.16  -0.08   0.65     0.00  -0.06   0.01
   4   1    -0.05  -0.21  -0.04    -0.07  -0.01  -0.06    -0.10  -0.31  -0.27
   5   1     0.17  -0.15   0.03    -0.06  -0.02  -0.06     0.26  -0.22   0.24
   6   8    -0.43  -0.16   0.28     0.27   0.09  -0.29    -0.08   0.11  -0.47
   7   8     0.44   0.11  -0.28     0.28   0.11  -0.32     0.03   0.09   0.47
                      4                      5                      6
                        a                      a                      a 
 Frequencies --   575.7500               676.3091               780.8276
 Red. masses --    15.0300                15.9872                13.4058
 Frc consts  --     0.0000                 0.0000                 0.0000
 IR Inten    --    37.0561                39.6481                46.3915
 Raman Activ --     0.0000                 0.0000                 0.0000
 Depolar     --     0.0000                 0.0000                 0.0000
 Atom AN      X      Y      Z        X      Y      Z        X      Y      Z
   1   6     0.41   0.10   0.35     0.29   0.10  -0.39     0.58   0.19  -0.10
   2   6     0.39   0.11   0.06     0.43   0.14  -0.35    -0.60  -0.17   0.09
   3  17    -0.26  -0.09   0.13    -0.30  -0.10   0.17    -0.27  -0.09   0.05
   4   1     0.07   0.01   0.17     0.05   0.02  -0.07     0.16   0.04  -0.09
   5   1     0.06   0.02   0.16     0.04   0.02  -0.08     0.16   0.07  -0.08
   6   8    -0.10  -0.27  -0.33    -0.18   0.25   0.22     0.17   0.05  -0.01
   7   8    -0.23   0.21  -0.30    -0.02  -0.32   0.20     0.17   0.04  -0.02
                      7                      8                      9
                        a                      a                      a 
 Frequencies --   854.5118               920.4494              1090.2456
 Red. masses --    11.9875                 6.6671                 1.5741
 Frc consts  --     0.0000                 0.0000                 0.0000
 IR Inten    --   101.6913                 0.5619                 0.6220
 Raman Activ --     0.0000                 0.0000                 0.0000
 Depolar     --     0.0000                 0.0000                 0.0000
 Atom AN      X      Y      Z        X      Y      Z        X      Y      Z
   1   6    -0.05   0.01  -0.57    -0.17   0.58   0.03    -0.02   0.04   0.00
   2   6     0.21   0.03   0.53     0.04  -0.10  -0.01    -0.01   0.01   0.00
   3  17    -0.07  -0.02   0.03     0.02  -0.07  -0.00     0.03  -0.09  -0.00
   4   1     0.01   0.00  -0.22    -0.30  -0.25  -0.34    -0.42  -0.21   0.52
   5   1     0.00   0.03  -0.23     0.40  -0.07   0.32     0.45   0.11  -0.52
   6   8     0.07  -0.34   0.03     0.05  -0.12   0.17    -0.03   0.06  -0.06
   7   8    -0.12   0.32   0.07     0.01  -0.11  -0.18    -0.00   0.06   0.06
                     10                     11                     12
                        a                      a                      a 
 Frequencies --  1186.8668              1312.3271              1392.7004
 Red. masses --     3.5017                14.2102                 2.1100
 Frc consts  --     0.0000                 0.0000                 0.0000
 IR Inten    --     1.1211               372.2587                17.3297
 Raman Activ --     0.0000                 0.0000                 0.0000
 Depolar     --     0.0000                 0.0000                 0.0000
 Atom AN      X      Y      Z        X      Y      Z        X      Y      Z
   1   6    -0.15  -0.07   0.40    -0.03  -0.01   0.01    -0.21  -0.06  -0.19
   2   6     0.11   0.03  -0.02    -0.08   0.01  -0.62    -0.00  -0.00   0.09
   3  17    -0.05  -0.02  -0.03    -0.01  -0.00  -0.00    -0.02  -0.01  -0.00
   4   1     0.33   0.12  -0.52     0.06   0.06   0.01     0.34   0.49   0.30
   5   1     0.33   0.14  -0.52     0.09  -0.02   0.00     0.57  -0.24   0.26
   6   8    -0.04   0.05  -0.02     0.16  -0.46   0.24    -0.02   0.05  -0.02
   7   8    -0.01  -0.05  -0.02    -0.09   0.45   0.29     0.01  -0.05  -0.03
                     13                     14                     15
                        a                      a                      a 
 Frequencies --  1700.7944              2999.7975              3017.7691
 Red. masses --    13.1423                 1.4373                 2.0633
 Frc consts  --     0.0000                 0.0000                 0.0000
 IR Inten    --   810.7180                 6.2471                18.1003
 Raman Activ --     0.0000                 0.0000                 0.0000
 Depolar     --     0.0000                 0.0000                 0.0000
 Atom AN      X      Y      Z        X      Y      Z        X      Y      Z
   1   6    -0.01   0.04   0.00    -0.16  -0.03  -0.11     0.08  -0.30  -0.02
   2   6     0.22  -0.80  -0.04    -0.00  -0.00  -0.00     0.00  -0.01  -0.00
   3  17    -0.00   0.00  -0.00    -0.01  -0.00   0.00     0.00  -0.00  -0.00
   4   1     0.01  -0.01  -0.05     0.48  -0.50   0.18    -0.45   0.42  -0.18
   5   1    -0.00  -0.02   0.05     0.11   0.62   0.22     0.15   0.64   0.25
   6   8    -0.12   0.34  -0.15    -0.00   0.00  -0.00    -0.00   0.00   0.00
   7   8    -0.07   0.33   0.18    -0.00  -0.00  -0.00    -0.00   0.00  -0.00
