      -----------------------------------------------------------      
     |                   =====================                   |     
     |                           x T B                           |     
     |                   =====================                   |     
     |                         S. Grimme                         |     
     |          Mulliken Center for Theoretical Chemistry        |     
     |                    University of Bonn                     |     
      -----------------------------------------------------------      

   * xtb version 6.7.1 (edcfbbe) compiled by 'albert@albert-system' on 2024-07-22

   xtb is free software: you can redistribute it and/or modify it under
   the terms of the GNU Lesser General Public License as published by
   the Free Software Foundation, either version 3 of the License, or
   (at your option) any later version.
   
   xtb is distributed in the hope that it will be useful,
   but WITHOUT ANY WARRANTY; without even the implied warranty of
   MERCHANTABILITY or FITNESS FOR A PARTICULAR PURPOSE.  See the
   GNU Lesser General Public License for more details.
   
   Cite this work as:
   * C. Bannwarth, E. Caldeweyher, S. Ehlert, A. Hansen, P. Pracht,
     J. Seibert, S. Spicher, S. Grimme, WIREs Comput. Mol. Sci., 2020, 11,
     e01493. DOI: 10.1002/wcms.1493
   
   for GFN2-xTB:
   * C. Bannwarth, S. Ehlert and S. Grimme., J. Chem. Theory Comput., 2019,
     15, 1652-1671. DOI: 10.1021/acs.jctc.8b01176
   for GFN1-xTB:
   * S. Grimme, C. Bannwarth, P. Shushkov, J. Chem. Theory Comput., 2017,
     13, 1989-2009. DOI: 10.1021/acs.jctc.7b00118
   for GFN0-xTB:
   * P. Pracht, E. Caldeweyher, S. Ehlert, S. Grimme, ChemRxiv, 2019, preprint.
     DOI: 10.26434/chemrxiv.8326202.v1
   for GFN-FF:
   * S. Spicher and S. Grimme, Angew. Chem. Int. Ed., 2020, 59, 15665-15673.
     DOI: 10.1002/anie.202004239
   
   for ALPB and GBSA implicit solvation:
   * S. Ehlert, M. Stahn, S. Spicher, S. Grimme, J. Chem. Theory Comput.,
     2021, 17, 4250-4261. DOI: 10.1021/acs.jctc.1c00471
   
   for ddCOSMO and CPCM-X implicit solvation:
   * M. Stahn, S. Ehlert, S. Grimme, J. Phys. Chem. A,
     2023, XX, XXXX-XXXX. DOI: 10.1021/acs.jpca.3c04382
   
   for DFT-D4:
   * E. Caldeweyher, C. Bannwarth and S. Grimme, J. Chem. Phys., 2017,
     147, 034112. DOI: 10.1063/1.4993215
   * E. Caldeweyher, S. Ehlert, A. Hansen, H. Neugebauer, S. Spicher,
     C. Bannwarth and S. Grimme, J. Chem. Phys., 2019, 150, 154122.
     DOI: 10.1063/1.5090222
   * E. Caldeweyher, J.-M. Mewes, S. Ehlert and S. Grimme, Phys. Chem. Chem. Phys.
     2020, 22, 8499-8512. DOI: 10.1039/D0CP00502A
   
   for sTDA-xTB:
   * S. Grimme and C. Bannwarth, J. Chem. Phys., 2016, 145, 054103.
     DOI: 10.1063/1.4959605
   
   in the mass-spec context:
   * V. Asgeirsson, C. Bauer and S. Grimme, Chem. Sci., 2017, 8, 4879.
     DOI: 10.1039/c7sc00601b
   * J. Koopman and S. Grimme, ACS Omega 2019, 4, 12, 15120-15133.
     DOI: 10.1021/acsomega.9b02011
   
   for metadynamics refer to:
   * S. Grimme, J. Chem. Theory Comput., 2019, 155, 2847-2862
     DOI: 10.1021/acs.jctc.9b00143
   
   for SPH calculations refer to:
   * S. Spicher and S. Grimme, J. Chem. Theory Comput., 2021, 17, 1701-1714
     DOI: 10.1021/acs.jctc.0c01306
   
   for ONIOM refer to:
   * C. Plett, A. Katbashev, S. Ehlert, S. Grimme, M. Bursch,
     Phys. Chem. Chem. Phys., 2023, 25, 17860-17868. DOI: 10.1039/D3CP02178E
   
   for DIPRO refer to:
   * J. Kohn, N. Gildemeister, S. Grimme, D. Fazzi, A. Hansen,
     J. Chem. Phys., 2023, just accepted.
   
   for PTB refer to:
   * S. Grimme, M. Mueller, A. Hansen, J. Chem. Phys., 2023, 158, 124111.
     DOI: 10.1063/5.0137838
   
   with help from (in alphabetical order)
   P. Atkinson, C. Bannwarth, F. Bohle, G. Brandenburg, E. Caldeweyher
   M. Checinski, S. Dohm, S. Ehlert, S. Ehrlich, I. Gerasimov, C. Hölzer
   A. Katbashev, J. Kohn, J. Koopman, C. Lavigne, S. Lehtola, F. März, M. Müller,
   F. Musil, H. Neugebauer, J. Pisarek, C. Plett, P. Pracht, F. Pultar,
   J. Seibert, P. Shushkov, S. Spicher, M. Stahn, M. Steiner, T. Strunk,
   J. Stückrath, T. Rose, and J. Unsleber
   
 * started run on 2025/10/18 at 21:05:39.460     
   ID    Z sym.   atoms
    1    6 C      1, 2
    2   17 Cl     3
    3    1 H      4, 5
    4    8 O      6, 7

           -------------------------------------------------
          |                Calculation Setup                |
           -------------------------------------------------

          program call               : xtb xyz.xyz --alpb water --charge -1 --ohess
          hostname                   : m003
          coordinate file            : xyz.xyz
          omp threads                :                     2


molecular fragmentation (1/2 indicates fragments):
1211122
# atoms in fragment 1/2:     4     3
 fragment masses (1/2) :       49.48       44.01
CMA distance (Bohr)    :   6.229
constraining FC (au)   :  0.0500

           -------------------------------------------------
          |                 G F N 2 - x T B                 |
           -------------------------------------------------

        Reference                      10.1021/acs.jctc.8b01176
      * Hamiltonian:
        H0-scaling (s, p, d)           1.850000    2.230000    2.230000
        zeta-weighting                 0.500000
      * Dispersion:
        s8                             2.700000
        a1                             0.520000
        a2                             5.000000
        s9                             5.000000
      * Repulsion:
        kExp                           1.500000    1.000000
        rExp                           1.000000
      * Coulomb:
        alpha                          2.000000
        third order                    shell-resolved
        anisotropic                    true
        a3                             3.000000
        a5                             4.000000
        cn-shift                       1.200000
        cn-exp                         4.000000
        max-rad                        5.000000

      * Solvation model:               ALPB
        Solvent                        water
        Parameter file                 internal GFN2-xTB/ALPB
        Dielectric constant                8.0200E+01
        Reference state                gsolv [1 M gas/solution]
        Free energy shift                  1.0808E-03 Eh       6.7819E-01 kcal/mol
        Temperature                        2.9815E+02 K
        Density                            1.0000E+00 kg/L
        Solvent mass                       1.8000E+01 g/mol
        Interaction kernel             P16
        Born radius scaling (c1)           1.4744E+00
        Born radii integrator          GBOBC
        Born offset                        0.0000E+00 a0       0.0000E+00 AA
        H-bond correction              true
        Ion screening                  false
        Surface tension                    1.0000E-05 Eh       1.5569E+01 dyn/cm
        Grid points                               230 per atom

          ...................................................
          :                      SETUP                      :
          :.................................................:
          :  # basis functions                  28          :
          :  # atomic orbitals                  27          :
          :  # shells                           13          :
          :  # electrons                        30          :
          :  max. iterations                   250          :
          :  Hamiltonian                  GFN2-xTB          :
          :  restarted?                      false          :
          :  GBSA solvation                   true          :
          :  PC potential                    false          :
          :  electronic temp.          300.0000000     K    :
          :  accuracy                    1.0000000          :
          :  -> integral cutoff          0.2500000E+02      :
          :  -> integral neglect         0.1000000E-07      :
          :  -> SCF convergence          0.1000000E-05 Eh   :
          :  -> wf. convergence          0.1000000E-03 e    :
          :  Broyden damping             0.4000000          :
          :  net charge                         -1          :
          :  unpaired electrons                  0          :
          ...................................................

 iter      E             dE          RMSdq      gap      omega  full diag
   1    -18.2906879 -0.182907E+02  0.728E+00    4.43       0.0  T
   2    -18.3700878 -0.793999E-01  0.368E+00    1.11       1.0  T
   3    -18.3749713 -0.488347E-02  0.201E+00    0.97       1.0  T
   4    -18.3739195  0.105179E-02  0.105E+00    0.56       1.0  T
   5    -18.3764509 -0.253142E-02  0.772E-01    1.04       1.0  T
   6    -18.3778427 -0.139177E-02  0.447E-01    0.85       1.0  T
   7    -18.3777300  0.112656E-03  0.551E-01    1.10       1.0  T
   8    -18.3787185 -0.988457E-03  0.122E-01    0.90       1.0  T
   9    -18.3787547 -0.362335E-04  0.251E-02    0.87       1.5  T
  10    -18.3787540  0.707751E-06  0.167E-02    0.88       2.3  T
  11    -18.3787551 -0.106143E-05  0.301E-03    0.87      12.6  T
  12    -18.3787551 -0.307176E-07  0.448E-04    0.87      84.4  T
  13    -18.3787551 -0.267093E-09  0.350E-04    0.87     108.1  T

   *** convergence criteria satisfied after 13 iterations ***

         #    Occupation            Energy/Eh            Energy/eV
      -------------------------------------------------------------
         1        2.0000           -1.0320477             -28.0834
       ...           ...                  ...                  ...
         9        2.0000           -0.5137592             -13.9801
        10        2.0000           -0.5113648             -13.9149
        11        2.0000           -0.4540080             -12.3542
        12        2.0000           -0.4436675             -12.0728
        13        2.0000           -0.4089370             -11.1277
        14        2.0000           -0.3841129             -10.4522
        15        2.0000           -0.2318611              -6.3093 (HOMO)
        16                         -0.1998154              -5.4373 (LUMO)
        17                         -0.1944597              -5.2915
        18                         -0.0761648              -2.0725
        19                          0.0639515               1.7402
        20                          0.0641030               1.7443
       ...                                ...                  ...
        27                          1.3859888              37.7147
      -------------------------------------------------------------
                  HL-Gap            0.0320456 Eh            0.8720 eV
             Fermi-level           -0.2158400 Eh           -5.8733 eV

 SCC (total)                   0 d,  0 h,  0 min,  0.029 sec
 SCC setup                      ...        0 min,  0.000 sec (  1.150%)
 Dispersion                     ...        0 min,  0.000 sec (  0.284%)
 classical contributions        ...        0 min,  0.000 sec (  0.116%)
 integral evaluation            ...        0 min,  0.023 sec ( 77.073%)
 iterations                     ...        0 min,  0.005 sec ( 17.596%)
 molecular gradient             ...        0 min,  0.001 sec (  3.233%)
 printout                       ...        0 min,  0.000 sec (  0.401%)

         :::::::::::::::::::::::::::::::::::::::::::::::::::::
         ::                     SUMMARY                     ::
         :::::::::::::::::::::::::::::::::::::::::::::::::::::
         :: total energy             -18.209628040424 Eh    ::
         :: total w/o Gsasa/hb       -18.211744516286 Eh    ::
         :: gradient norm              0.063849618844 Eh/a0 ::
         :: HOMO-LUMO gap              0.872006153776 eV    ::
         ::.................................................::
         :: SCC energy               -18.378752816573 Eh    ::
         :: -> isotropic ES            0.169582183640 Eh    ::
         :: -> anisotropic ES         -0.005725660210 Eh    ::
         :: -> anisotropic XC         -0.008977335116 Eh    ::
         :: -> dispersion             -0.004872138627 Eh    ::
         :: -> Gsolv                  -0.093549416533 Eh    ::
         ::    -> Gelec               -0.095665892395 Eh    ::
         ::    -> Gsasa                0.003649621727 Eh    ::
         ::    -> Ghb                 -0.002613905564 Eh    ::
         ::    -> Gshift               0.001080759698 Eh    ::
         :: repulsion energy           0.169124776148 Eh    ::
         :: add. restraining           0.000000000000 Eh    ::
         :: total charge              -1.000000000341 e     ::
         :::::::::::::::::::::::::::::::::::::::::::::::::::::

      ----------------------------------------------------------- 
     |                   =====================                   |
     |                        A N C O P T                        |
     |                   =====================                   |
     |               Approximate Normal Coordinate               |
     |                Rational Function Optimizer                |
      ----------------------------------------------------------- 
      ----------------------------------------------------------- 
     |                   =====================                   |
     |                        A N C O P T                        |
     |                   =====================                   |
     |               Approximate Normal Coordinate               |
     |                Rational Function Optimizer                |
      ----------------------------------------------------------- 

          ...................................................
          :                      SETUP                      :
          :.................................................:
          :   optimization level            normal          :
          :   max. optcycles                   200          :
          :   ANC micro-cycles                  20          :
          :   degrees of freedom                15          :
          :.................................................:
          :   RF solver                   davidson          :
          :   write xtbopt.log                true          :
          :   linear?                        false          :
          :   energy convergence         0.5000000E-05 Eh   :
          :   grad. convergence          0.1000000E-02 Eh/α :
          :   maxmium RF displ.          1.0000000          :
          :   Hlow (freq-cutoff)         0.1000000E-01      :
          :   Hmax (freq-cutoff)         5.0000000          :
          :   S6 in model hess.         20.0000000          :
          ...................................................

generating ANC from exact Hessian ...
Using Lindh-Hessian (1995)
 Shifting diagonal of input Hessian by   9.625914441667209E-003
 Lowest  eigenvalues of input Hessian
    0.000000    0.000000    0.000000    0.000000    0.000000    0.000000
    0.010000    0.010147    0.010395    0.010907    0.011085    0.011513
    0.015906    0.149521    0.202850    0.495210    1.136939    1.251348
 Highest eigenvalues
    0.495210    1.136939    1.251348    1.257181    1.543539    3.263248
 

........................................................................
.............................. CYCLE    1 ..............................
........................................................................

 iter      E             dE          RMSdq      gap      omega  full diag
   1    -18.3787551 -0.183788E+02  0.120E-04    0.87       0.0  T
   2    -18.3787551 -0.166089E-10  0.707E-05    0.87     534.9  T
   3    -18.3787551 -0.271640E-10  0.260E-05    0.87    1451.5  T
     SCC iter.                  ...        0 min,  0.001 sec
     gradient                   ...        0 min,  0.001 sec
 * total energy  :   -18.2096280 Eh     change       -0.2625704E-09 Eh
   gradient norm :     0.0637847 Eh/α   predicted     0.0000000E+00 (-100.00%)
   displ. norm   :     0.6921676 α      lambda       -0.2008760E-01
   maximum displ.:     0.6868272 α      in ANC's #7, #4, #10, ...

........................................................................
.............................. CYCLE    2 ..............................
........................................................................

 iter      E             dE          RMSdq      gap      omega  full diag
   1    -18.3774495 -0.183774E+02  0.272E+00    1.85       0.0  T
   2    -18.3801721 -0.272256E-02  0.151E+00    2.35       1.0  T
   3    -18.3803171 -0.145033E-03  0.525E-01    2.35       1.0  T
   4    -18.3804498 -0.132651E-03  0.168E-01    2.50       1.0  T
   5    -18.3804935 -0.436908E-04  0.102E-01    2.44       1.0  T
   6    -18.3805100 -0.165629E-04  0.502E-02    2.42       1.0  T
   7    -18.3805108 -0.750380E-06  0.391E-02    2.44       1.0  T
   8    -18.3805163 -0.552092E-05  0.989E-03    2.42       3.8  T
   9    -18.3805164 -0.144079E-06  0.670E-03    2.42       5.6  T
  10    -18.3805165 -0.113749E-06  0.359E-03    2.42      10.5  T
  11    -18.3805166 -0.468046E-07  0.974E-04    2.42      38.8  T
  12    -18.3805166  0.114341E-09  0.644E-04    2.42      58.7  T
     SCC iter.                  ...        0 min,  0.003 sec
     gradient                   ...        0 min,  0.001 sec
 * total energy  :   -18.2426026 Eh     change       -0.3297452E-01 Eh
   gradient norm :     0.0537627 Eh/α   predicted    -0.1485571E-01 ( -54.95%)
   displ. norm   :     0.8259169 α      lambda       -0.1899982E-01
   maximum displ.:     0.7566051 α      in ANC's #7, #4, #6, ...

........................................................................
.............................. CYCLE    3 ..............................
........................................................................

 iter      E             dE          RMSdq      gap      omega  full diag
   1    -18.2982131 -0.182982E+02  0.300E+00    3.91       0.0  T
   2    -18.3102616 -0.120485E-01  0.152E+00    4.34       1.0  T
   3    -18.3126717 -0.241008E-02  0.116E+00    4.25       1.0  T
   4    -18.3145012 -0.182949E-02  0.324E-01    4.39       1.0  T
   5    -18.3142220  0.279207E-03  0.299E-01    4.31       1.0  T
   6    -18.3147333 -0.511309E-03  0.881E-02    4.35       1.0  T
   7    -18.3147494 -0.161384E-04  0.643E-02    4.35       1.0  T
   8    -18.3147491  0.357817E-06  0.618E-02    4.33       1.0  T
   9    -18.3147521 -0.300878E-05  0.554E-02    4.34       1.0  T
  10    -18.3147695 -0.173607E-04  0.673E-03    4.34       5.6  T
  11    -18.3147696 -0.174906E-06  0.251E-03    4.34      15.0  T
  12    -18.3147696 -0.139710E-07  0.196E-03    4.34      19.3  T
  13    -18.3147697 -0.104565E-07  0.136E-04    4.34     277.3  T
  14    -18.3147697 -0.431939E-10  0.317E-05    4.34    1192.2  T
     SCC iter.                  ...        0 min,  0.004 sec
     gradient                   ...        0 min,  0.001 sec
 * total energy  :   -18.1995586 Eh     change        0.4304401E-01 Eh
   gradient norm :     0.1578466 Eh/α   predicted    -0.1598013E-01 (-137.13%)
   displ. norm   :     0.4860089 α      lambda       -0.7238222E-01
   maximum displ.:     0.4810337 α      in ANC's #7, #4, #6, ...

........................................................................
.............................. CYCLE    4 ..............................
........................................................................

 iter      E             dE          RMSdq      gap      omega  full diag
   1    -18.3697417 -0.183697E+02  0.186E+00    3.63       0.0  T
   2    -18.3745886 -0.484697E-02  0.978E-01    3.07       1.0  T
   3    -18.3756550 -0.106635E-02  0.684E-01    3.32       1.0  T
   4    -18.3760196 -0.364604E-03  0.187E-01    3.29       1.0  T
   5    -18.3760410 -0.214577E-04  0.934E-02    3.29       1.0  T
   6    -18.3760486 -0.755390E-05  0.279E-02    3.28       1.4  T
   7    -18.3760514 -0.283539E-05  0.127E-02    3.29       3.0  T
   8    -18.3760516 -0.227564E-06  0.889E-03    3.29       4.3  T
   9    -18.3760518 -0.199553E-06  0.567E-03    3.29       6.7  T
  10    -18.3760519 -0.632786E-07  0.296E-03    3.29      12.8  T
  11    -18.3760519 -0.301196E-07  0.709E-04    3.29      53.3  T
  12    -18.3760519  0.636295E-08  0.140E-03    3.29      27.0  T
  13    -18.3760519 -0.794215E-08  0.547E-05    3.29     691.3  T
     SCC iter.                  ...        0 min,  0.003 sec
     gradient                   ...        0 min,  0.001 sec
 * total energy  :   -18.2463591 Eh     change       -0.4680051E-01 Eh
   gradient norm :     0.0577607 Eh/α   predicted    -0.4473961E-01 (  -4.40%)
   displ. norm   :     0.3756919 α      lambda       -0.9939866E-02
   maximum displ.:     0.2869740 α      in ANC's #6, #4, #7, ...

........................................................................
.............................. CYCLE    5 ..............................
........................................................................

 iter      E             dE          RMSdq      gap      omega  full diag
   1    -18.3945603 -0.183946E+02  0.836E-01    2.97       0.0  T
   2    -18.3947063 -0.145941E-03  0.513E-01    3.07       1.0  T
   3    -18.3947282 -0.219102E-04  0.135E-01    3.06       1.0  T
   4    -18.3947699 -0.417214E-04  0.660E-02    3.11       1.0  T
   5    -18.3947726 -0.268571E-05  0.235E-02    3.09       1.6  T
   6    -18.3947735 -0.904303E-06  0.170E-02    3.09       2.2  T
   7    -18.3947738 -0.324668E-06  0.116E-02    3.10       3.3  T
   8    -18.3947743 -0.471637E-06  0.429E-03    3.09       8.8  T
   9    -18.3947743 -0.514530E-07  0.130E-03    3.09      29.1  T
  10    -18.3947743 -0.333432E-08  0.974E-04    3.09      38.8  T
  11    -18.3947743 -0.162193E-08  0.692E-04    3.09      54.6  T
     SCC iter.                  ...        0 min,  0.002 sec
     gradient                   ...        0 min,  0.001 sec
 * total energy  :   -18.2525032 Eh     change       -0.6144168E-02 Eh
   gradient norm :     0.0547310 Eh/α   predicted    -0.5671413E-02 (  -7.69%)
   displ. norm   :     0.4651408 α      lambda       -0.6306440E-02
   maximum displ.:     0.3977338 α      in ANC's #6, #4, #12, ...

........................................................................
.............................. CYCLE    6 ..............................
........................................................................

 iter      E             dE          RMSdq      gap      omega  full diag
   1    -18.3995892 -0.183996E+02  0.129E+00    2.97       0.0  T
   2    -18.4026294 -0.304015E-02  0.668E-01    3.57       1.0  T
   3    -18.4035902 -0.960795E-03  0.337E-01    3.35       1.0  T
   4    -18.4036588 -0.686089E-04  0.751E-02    3.43       1.0  T
   5    -18.4036635 -0.472580E-05  0.480E-02    3.43       1.0  T
   6    -18.4036666 -0.306858E-05  0.233E-02    3.43       1.6  T
   7    -18.4036673 -0.703314E-06  0.157E-02    3.42       2.4  T
   8    -18.4036681 -0.788735E-06  0.304E-03    3.42      12.4  T
   9    -18.4036681 -0.152103E-07  0.128E-03    3.42      29.5  T
  10    -18.4036681 -0.333711E-08  0.955E-04    3.42      39.6  T
  11    -18.4036681 -0.403927E-08  0.152E-04    3.42     249.0  T
     SCC iter.                  ...        0 min,  0.002 sec
     gradient                   ...        0 min,  0.001 sec
 * total energy  :   -18.2598464 Eh     change       -0.7343177E-02 Eh
   gradient norm :     0.0885611 Eh/α   predicted    -0.3835433E-02 ( -47.77%)
   displ. norm   :     0.4613884 α      lambda       -0.1068934E-01
   maximum displ.:     0.3502575 α      in ANC's #6, #4, #12, ...

........................................................................
.............................. CYCLE    7 ..............................
........................................................................

 iter      E             dE          RMSdq      gap      omega  full diag
   1    -18.4024712 -0.184025E+02  0.159E+00    3.36       0.0  T
   2    -18.4087737 -0.630253E-02  0.855E-01    4.06       1.0  T
   3    -18.4107745 -0.200080E-02  0.383E-01    3.83       1.0  T
   4    -18.4108412 -0.667254E-04  0.101E-01    3.90       1.0  T
   5    -18.4108517 -0.104226E-04  0.668E-02    3.89       1.0  T
   6    -18.4108590 -0.737378E-05  0.327E-02    3.89       1.2  T
   7    -18.4108603 -0.124617E-05  0.211E-02    3.88       1.8  T
   8    -18.4108618 -0.151623E-05  0.443E-03    3.89       8.5  T
   9    -18.4108618 -0.267985E-07  0.180E-03    3.89      21.0  T
  10    -18.4108618 -0.670256E-08  0.134E-03    3.89      28.2  T
  11    -18.4108618 -0.775792E-08  0.246E-04    3.89     153.8  T
  12    -18.4108618 -0.839862E-10  0.280E-05    3.89    1352.1  T
     SCC iter.                  ...        0 min,  0.002 sec
     gradient                   ...        0 min,  0.001 sec
 * total energy  :   -18.2720820 Eh     change       -0.1223554E-01 Eh
   gradient norm :     0.1190924 Eh/α   predicted    -0.6482438E-02 ( -47.02%)
   displ. norm   :     0.4104976 α      lambda       -0.1555839E-01
   maximum displ.:     0.2984712 α      in ANC's #6, #4, #12, ...

........................................................................
.............................. CYCLE    8 ..............................
........................................................................

 iter      E             dE          RMSdq      gap      omega  full diag
   1    -18.4098057 -0.184098E+02  0.145E+00    3.80       0.0  T
   2    -18.4164606 -0.665490E-02  0.838E-01    4.30       1.0  T
   3    -18.4178936 -0.143300E-02  0.393E-01    4.17       1.0  T
   4    -18.4179386 -0.449468E-04  0.103E-01    4.22       1.0  T
   5    -18.4179527 -0.141503E-04  0.676E-02    4.21       1.0  T
   6    -18.4179593 -0.654623E-05  0.325E-02    4.21       1.2  T
   7    -18.4179614 -0.216364E-05  0.110E-02    4.21       3.4  T
   8    -18.4179618 -0.325253E-06  0.352E-03    4.21      10.7  T
   9    -18.4179618 -0.847979E-08  0.603E-04    4.21      62.7  T
  10    -18.4179618 -0.336300E-09  0.397E-04    4.21      95.2  T
     SCC iter.                  ...        0 min,  0.002 sec
     gradient                   ...        0 min,  0.001 sec
 * total energy  :   -18.2877833 Eh     change       -0.1570137E-01 Eh
   gradient norm :     0.1295496 Eh/α   predicted    -0.9090056E-02 ( -42.11%)
   displ. norm   :     0.7411578 α      lambda       -0.7196303E-01
   maximum displ.:     0.6114520 α      in ANC's #12, #6, #4, ...

........................................................................
.............................. CYCLE    9 ..............................
........................................................................

 iter      E             dE          RMSdq      gap      omega  full diag
   1    -18.3512347 -0.183512E+02  0.208E+00    3.26       0.0  T
   2    -18.3681545 -0.169198E-01  0.137E+00    3.58       1.0  T
   3    -18.3694626 -0.130809E-02  0.774E-01    3.50       1.0  T
   4    -18.3696569 -0.194298E-03  0.246E-01    3.49       1.0  T
   5    -18.3697458 -0.888309E-04  0.180E-01    3.45       1.0  T
   6    -18.3697974 -0.516333E-04  0.853E-02    3.47       1.0  T
   7    -18.3698137 -0.163003E-04  0.301E-02    3.47       1.3  T
   8    -18.3698160 -0.234085E-05  0.985E-03    3.47       3.8  T
   9    -18.3698161 -0.807499E-07  0.187E-03    3.47      20.2  T
  10    -18.3698161 -0.437532E-08  0.109E-03    3.47      34.8  T
  11    -18.3698161 -0.212906E-08  0.514E-04    3.47      73.5  T
  12    -18.3698161 -0.927034E-09  0.243E-04    3.47     155.5  T
     SCC iter.                  ...        0 min,  0.002 sec
     gradient                   ...        0 min,  0.001 sec
 * total energy  :   -18.2748366 Eh     change        0.1294676E-01 Eh
   gradient norm :     0.2343045 Eh/α   predicted    -0.5574670E-01 (-530.58%)
   displ. norm   :     0.3983634 α      lambda       -0.8144150E-01
   maximum displ.:     0.3350846 α      in ANC's #12, #6, #4, ...

........................................................................
.............................. CYCLE   10 ..............................
........................................................................

 iter      E             dE          RMSdq      gap      omega  full diag
   1    -18.4037299 -0.184037E+02  0.103E+00    4.34       0.0  T
   2    -18.4083162 -0.458632E-02  0.758E-01    4.18       1.0  T
   3    -18.4091060 -0.789781E-03  0.428E-01    4.25       1.0  T
   4    -18.4091655 -0.594248E-04  0.108E-01    4.24       1.0  T
   5    -18.4091746 -0.916756E-05  0.738E-02    4.25       1.0  T
   6    -18.4091815 -0.690839E-05  0.386E-02    4.25       1.0  T
   7    -18.4091845 -0.293621E-05  0.185E-02    4.25       2.0  T
   8    -18.4091853 -0.867766E-06  0.419E-03    4.25       9.0  T
   9    -18.4091853 -0.118433E-07  0.843E-04    4.25      44.8  T
  10    -18.4091853 -0.964349E-09  0.604E-04    4.25      62.6  T
     SCC iter.                  ...        0 min,  0.002 sec
     gradient                   ...        0 min,  0.001 sec
 * total energy  :   -18.3113582 Eh     change       -0.3652165E-01 Eh
   gradient norm :     0.0707597 Eh/α   predicted    -0.4718283E-01 (  29.19%)
   displ. norm   :     0.5890658 α      lambda       -0.7756622E-02
   maximum displ.:     0.4673037 α      in ANC's #4, #5, #6, ...

........................................................................
.............................. CYCLE   11 ..............................
........................................................................

 iter      E             dE          RMSdq      gap      omega  full diag
   1    -18.4182485 -0.184182E+02  0.121E+00    3.96       0.0  T
   2    -18.4196628 -0.141437E-02  0.743E-01    3.94       1.0  T
   3    -18.4196944 -0.315622E-04  0.288E-01    3.97       1.0  T
   4    -18.4197216 -0.272010E-04  0.438E-02    3.96       1.0  T
   5    -18.4197239 -0.232924E-05  0.235E-02    3.96       1.6  T
   6    -18.4197246 -0.642505E-06  0.141E-02    3.96       2.7  T
   7    -18.4197250 -0.438663E-06  0.913E-03    3.96       4.1  T
   8    -18.4197253 -0.290402E-06  0.288E-03    3.96      13.1  T
   9    -18.4197253 -0.129490E-07  0.125E-03    3.96      30.3  T
  10    -18.4197253 -0.399986E-08  0.587E-04    3.96      64.4  T
  11    -18.4197253 -0.770484E-09  0.262E-04    3.96     144.5  T
     SCC iter.                  ...        0 min,  0.002 sec
     gradient                   ...        0 min,  0.001 sec
 * total energy  :   -18.2916903 Eh     change        0.1966794E-01 Eh
   gradient norm :     0.1516845 Eh/α   predicted    -0.5224086E-02 (-126.56%)
   displ. norm   :     0.4729225 α      lambda       -0.4374669E-01
   maximum displ.:     0.3172477 α      in ANC's #6, #4, #5, ...

........................................................................
.............................. CYCLE   12 ..............................
........................................................................

 iter      E             dE          RMSdq      gap      omega  full diag
   1    -18.4163683 -0.184164E+02  0.802E-01    4.16       0.0  T
   2    -18.4172290 -0.860744E-03  0.504E-01    4.22       1.0  T
   3    -18.4172645 -0.355322E-04  0.238E-01    4.19       1.0  T
   4    -18.4172831 -0.185463E-04  0.499E-02    4.20       1.0  T
   5    -18.4172873 -0.425456E-05  0.291E-02    4.20       1.3  T
   6    -18.4172886 -0.127412E-05  0.197E-02    4.20       1.9  T
   7    -18.4172896 -0.990429E-06  0.131E-02    4.20       2.9  T
   8    -18.4172902 -0.639375E-06  0.334E-03    4.20      11.3  T
   9    -18.4172903 -0.209886E-07  0.896E-04    4.21      42.2  T
  10    -18.4172903 -0.979888E-09  0.567E-04    4.21      66.7  T
     SCC iter.                  ...        0 min,  0.002 sec
     gradient                   ...        0 min,  0.001 sec
 * total energy  :   -18.3164293 Eh     change       -0.2473906E-01 Eh
   gradient norm :     0.0436709 Eh/α   predicted    -0.2676545E-01 (   8.19%)
   displ. norm   :     0.3069240 α      lambda       -0.5301151E-02
   maximum displ.:     0.2671002 α      in ANC's #4, #5, #6, ...

........................................................................
.............................. CYCLE   13 ..............................
........................................................................

 iter      E             dE          RMSdq      gap      omega  full diag
   1    -18.4138271 -0.184138E+02  0.558E-01    4.52       0.0  T
   2    -18.4139732 -0.146077E-03  0.340E-01    4.53       1.0  T
   3    -18.4140057 -0.324788E-04  0.124E-01    4.53       1.0  T
   4    -18.4140231 -0.173744E-04  0.784E-02    4.53       1.0  T
   5    -18.4140332 -0.100969E-04  0.613E-02    4.52       1.0  T
   6    -18.4140476 -0.144586E-04  0.226E-02    4.52       1.7  T
   7    -18.4140489 -0.124826E-05  0.106E-02    4.52       3.6  T
   8    -18.4140491 -0.258094E-06  0.234E-03    4.52      16.2  T
   9    -18.4140491 -0.617914E-08  0.942E-04    4.52      40.1  T
  10    -18.4140491 -0.135057E-08  0.643E-04    4.52      58.8  T
     SCC iter.                  ...        0 min,  0.002 sec
     gradient                   ...        0 min,  0.001 sec
 * total energy  :   -18.3168387 Eh     change       -0.4093812E-03 Eh
   gradient norm :     0.0476327 Eh/α   predicted    -0.2900278E-02 ( 608.45%)
   displ. norm   :     0.3834108 α      lambda       -0.9786446E-02
   maximum displ.:     0.3442501 α      in ANC's #5, #11, #4, ...

........................................................................
.............................. CYCLE   14 ..............................
........................................................................

 iter      E             dE          RMSdq      gap      omega  full diag
   1    -18.4226677 -0.184227E+02  0.832E-01    4.85       0.0  T
   2    -18.4245307 -0.186293E-02  0.397E-01    4.83       1.0  T
   3    -18.4245657 -0.350193E-04  0.229E-01    4.84       1.0  T
   4    -18.4245683 -0.263246E-05  0.579E-02    4.83       1.0  T
   5    -18.4245768 -0.850797E-05  0.282E-02    4.84       1.3  T
   6    -18.4245786 -0.173723E-05  0.137E-02    4.84       2.8  T
   7    -18.4245790 -0.429432E-06  0.973E-03    4.84       3.9  T
   8    -18.4245793 -0.300953E-06  0.230E-03    4.84      16.4  T
   9    -18.4245793 -0.879616E-08  0.133E-03    4.84      28.5  T
  10    -18.4245793 -0.342600E-08  0.682E-04    4.84      55.4  T
  11    -18.4245793 -0.119437E-08  0.240E-04    4.84     157.2  T
     SCC iter.                  ...        0 min,  0.002 sec
     gradient                   ...        0 min,  0.001 sec
 * total energy  :   -18.3112610 Eh     change        0.5577676E-02 Eh
   gradient norm :     0.1197438 Eh/α   predicted    -0.5612553E-02 (-200.63%)
   displ. norm   :     0.4243786 α      lambda       -0.1919672E-01
   maximum displ.:     0.3055041 α      in ANC's #6, #5, #4, ...

........................................................................
.............................. CYCLE   15 ..............................
........................................................................

 iter      E             dE          RMSdq      gap      omega  full diag
   1    -18.4182714 -0.184183E+02  0.835E-01    4.39       0.0  T
   2    -18.4193705 -0.109911E-02  0.469E-01    4.48       1.0  T
   3    -18.4194367 -0.661712E-04  0.273E-01    4.47       1.0  T
   4    -18.4194964 -0.597666E-04  0.128E-01    4.49       1.0  T
   5    -18.4195229 -0.264940E-04  0.103E-01    4.48       1.0  T
   6    -18.4195657 -0.427777E-04  0.292E-02    4.50       1.3  T
   7    -18.4195688 -0.304766E-05  0.138E-02    4.50       2.7  T
   8    -18.4195690 -0.265489E-06  0.274E-03    4.50      13.8  T
   9    -18.4195690 -0.532996E-08  0.105E-03    4.50      35.9  T
  10    -18.4195690 -0.122313E-08  0.472E-04    4.50      80.1  T
  11    -18.4195690 -0.396057E-09  0.207E-04    4.50     182.4  T
     SCC iter.                  ...        0 min,  0.002 sec
     gradient                   ...        0 min,  0.001 sec
 * total energy  :   -18.3192180 Eh     change       -0.7956913E-02 Eh
   gradient norm :     0.0247358 Eh/α   predicted    -0.1132699E-01 (  42.35%)
   displ. norm   :     0.4285952 α      lambda       -0.4496276E-02
   maximum displ.:     0.3815231 α      in ANC's #6, #5, #4, ...

........................................................................
.............................. CYCLE   16 ..............................
........................................................................

 iter      E             dE          RMSdq      gap      omega  full diag
   1    -18.4223864 -0.184224E+02  0.654E-01    4.56       0.0  T
   2    -18.4226631 -0.276684E-03  0.405E-01    4.55       1.0  T
   3    -18.4227129 -0.497942E-04  0.166E-01    4.55       1.0  T
   4    -18.4227440 -0.311171E-04  0.100E-01    4.55       1.0  T
   5    -18.4227615 -0.174756E-04  0.766E-02    4.55       1.0  T
   6    -18.4227855 -0.239793E-04  0.161E-02    4.54       2.3  T
   7    -18.4227860 -0.460967E-06  0.402E-03    4.54       9.4  T
   8    -18.4227860 -0.189491E-07  0.268E-03    4.54      14.1  T
   9    -18.4227860 -0.110050E-07  0.142E-03    4.54      26.6  T
  10    -18.4227860 -0.341246E-08  0.934E-04    4.54      40.4  T
  11    -18.4227860 -0.205451E-08  0.162E-04    4.54     233.2  T
     SCC iter.                  ...        0 min,  0.002 sec
     gradient                   ...        0 min,  0.001 sec
 * total energy  :   -18.3176627 Eh     change        0.1555294E-02 Eh
   gradient norm :     0.0408147 Eh/α   predicted    -0.2661103E-02 (-271.10%)
   displ. norm   :     0.2463759 α      lambda       -0.4733136E-02
   maximum displ.:     0.2085329 α      in ANC's #6, #5, #4, ...

........................................................................
.............................. CYCLE   17 ..............................
........................................................................

 iter      E             dE          RMSdq      gap      omega  full diag
   1    -18.4246056 -0.184246E+02  0.368E-01    4.60       0.0  T
   2    -18.4247360 -0.130409E-03  0.218E-01    4.60       1.0  T
   3    -18.4247446 -0.854946E-05  0.959E-02    4.60       1.0  T
   4    -18.4247509 -0.633877E-05  0.428E-02    4.60       1.0  T
   5    -18.4247534 -0.245390E-05  0.349E-02    4.60       1.1  T
   6    -18.4247581 -0.477252E-05  0.102E-02    4.61       3.7  T
   7    -18.4247584 -0.262871E-06  0.606E-03    4.61       6.2  T
   8    -18.4247585 -0.698272E-07  0.138E-03    4.61      27.3  T
   9    -18.4247585 -0.158015E-08  0.542E-04    4.61      69.7  T
  10    -18.4247585 -0.382997E-09  0.369E-04    4.61     102.5  T
     SCC iter.                  ...        0 min,  0.002 sec
     gradient                   ...        0 min,  0.001 sec
 * total energy  :   -18.3202658 Eh     change       -0.2603089E-02 Eh
   gradient norm :     0.0067533 Eh/α   predicted    -0.2510223E-02 (  -3.57%)
   displ. norm   :     0.0522253 α      lambda       -0.1412402E-03
   maximum displ.:     0.0378249 α      in ANC's #6, #4, #3, ...

........................................................................
.............................. CYCLE   18 ..............................
........................................................................

 iter      E             dE          RMSdq      gap      omega  full diag
   1    -18.4252805 -0.184253E+02  0.743E-02    4.61       0.0  T
   2    -18.4252807 -0.174165E-06  0.444E-02    4.61       1.0  T
   3    -18.4252809 -0.181013E-06  0.630E-03    4.61       6.0  T
   4    -18.4252809 -0.451621E-07  0.527E-03    4.61       7.2  T
   5    -18.4252810 -0.934897E-07  0.227E-03    4.61      16.7  T
   6    -18.4252810 -0.166939E-07  0.123E-03    4.61      30.7  T
   7    -18.4252810 -0.389461E-08  0.376E-04    4.61     100.4  T
   8    -18.4252810 -0.222403E-09  0.149E-04    4.61     254.4  T
     SCC iter.                  ...        0 min,  0.001 sec
     gradient                   ...        0 min,  0.001 sec
 * total energy  :   -18.3203466 Eh     change       -0.8081669E-04 Eh
   gradient norm :     0.0061993 Eh/α   predicted    -0.7081135E-04 ( -12.38%)
   displ. norm   :     0.1276627 α      lambda       -0.2808505E-03
   maximum displ.:     0.1029062 α      in ANC's #3, #6, #4, ...

........................................................................
.............................. CYCLE   19 ..............................
........................................................................

 iter      E             dE          RMSdq      gap      omega  full diag
   1    -18.4260007 -0.184260E+02  0.181E-01    4.65       0.0  T
   2    -18.4260133 -0.125718E-04  0.104E-01    4.65       1.0  T
   3    -18.4260138 -0.538696E-06  0.254E-02    4.65       1.5  T
   4    -18.4260140 -0.229447E-06  0.806E-03    4.65       4.7  T
   5    -18.4260141 -0.747313E-07  0.660E-03    4.65       5.7  T
   6    -18.4260142 -0.140235E-06  0.303E-03    4.65      12.5  T
   7    -18.4260143 -0.240295E-07  0.172E-03    4.65      22.0  T
   8    -18.4260143 -0.820460E-08  0.459E-04    4.65      82.4  T
   9    -18.4260143 -0.297490E-09  0.223E-04    4.65     169.4  T
     SCC iter.                  ...        0 min,  0.002 sec
     gradient                   ...        0 min,  0.001 sec
 * total energy  :   -18.3201680 Eh     change        0.1785767E-03 Eh
   gradient norm :     0.0150368 Eh/α   predicted    -0.1427113E-03 (-179.92%)
   displ. norm   :     0.0880045 α      lambda       -0.4945272E-03
   maximum displ.:     0.0741418 α      in ANC's #3, #6, #5, ...

........................................................................
.............................. CYCLE   20 ..............................
........................................................................

 iter      E             dE          RMSdq      gap      omega  full diag
   1    -18.4259654 -0.184260E+02  0.127E-01    4.63       0.0  T
   2    -18.4259756 -0.101704E-04  0.707E-02    4.63       1.0  T
   3    -18.4259758 -0.187817E-06  0.224E-02    4.64       1.7  T
   4    -18.4259758 -0.582971E-07  0.353E-03    4.63      10.7  T
   5    -18.4259758 -0.128996E-07  0.261E-03    4.64      14.5  T
   6    -18.4259759 -0.171505E-07  0.130E-03    4.63      29.0  T
   7    -18.4259759 -0.402542E-08  0.547E-04    4.63      69.0  T
   8    -18.4259759 -0.815593E-09  0.211E-04    4.63     179.0  T
     SCC iter.                  ...        0 min,  0.001 sec
     gradient                   ...        0 min,  0.001 sec
 * total energy  :   -18.3204281 Eh     change       -0.2600704E-03 Eh
   gradient norm :     0.0029144 Eh/α   predicted    -0.2491794E-03 (  -4.19%)
   displ. norm   :     0.0110751 α      lambda       -0.1311943E-04
   maximum displ.:     0.0071705 α      in ANC's #1, #2, #10, ...
 * RMSD in coord.:     0.8879623 α      energy gain  -0.1108000E+00 Eh

generating ANC from exact Hessian ...
Using Lindh-Hessian (1995)
 Shifting diagonal of input Hessian by   0.000000000000000E+000
 Lowest  eigenvalues of input Hessian
    0.000000    0.000000    0.000000    0.000000    0.000000    0.000000
    0.018321    0.023468    0.041738    0.064510    0.081978    0.098658
    0.139822    0.147442    0.284508    0.565379    0.865551    1.127080
 Highest eigenvalues
    0.565379    0.865551    1.127080    1.139877    1.678395    2.361458
 

........................................................................
.............................. CYCLE   21 ..............................
........................................................................

 iter      E             dE          RMSdq      gap      omega  full diag
   1    -18.4260248 -0.184260E+02  0.175E-02    4.64       0.0  T
   2    -18.4260250 -0.153557E-06  0.108E-02    4.64       3.5  T
   3    -18.4260250 -0.383222E-07  0.434E-03    4.64       8.7  T
   4    -18.4260250 -0.265847E-07  0.285E-03    4.64      13.2  T
   5    -18.4260250 -0.131828E-07  0.227E-03    4.64      16.6  T
   6    -18.4260251 -0.217656E-07  0.485E-04    4.64      78.0  T
   7    -18.4260251 -0.308582E-09  0.275E-04    4.64     137.4  T
     SCC iter.                  ...        0 min,  0.001 sec
     gradient                   ...        0 min,  0.001 sec
 * total energy  :   -18.3204378 Eh     change       -0.9780020E-05 Eh
   gradient norm :     0.0186721 Eh/α   predicted     0.0000000E+00 (-100.00%)
   displ. norm   :     0.3574228 α      lambda       -0.5574780E-02
   maximum displ.:     0.3119500 α      in ANC's #2, #6, #4, ...

........................................................................
.............................. CYCLE   22 ..............................
........................................................................

 iter      E             dE          RMSdq      gap      omega  full diag
   1    -18.4173268 -0.184173E+02  0.650E-01    4.41       0.0  T
   2    -18.4174035 -0.767587E-04  0.392E-01    4.44       1.0  T
   3    -18.4173875  0.160723E-04  0.105E-01    4.42       1.0  T
   4    -18.4174248 -0.373299E-04  0.380E-02    4.43       1.0  T
   5    -18.4174273 -0.251747E-05  0.192E-02    4.43       2.0  T
   6    -18.4174281 -0.750981E-06  0.998E-03    4.43       3.8  T
   7    -18.4174284 -0.277279E-06  0.257E-03    4.43      14.7  T
   8    -18.4174284 -0.883519E-08  0.158E-03    4.43      24.0  T
   9    -18.4174284 -0.544933E-08  0.101E-03    4.43      37.3  T
  10    -18.4174284 -0.398066E-08  0.109E-04    4.43     347.6  T
  11    -18.4174284 -0.175291E-10  0.544E-05    4.43     695.0  T
     SCC iter.                  ...        0 min,  0.002 sec
     gradient                   ...        0 min,  0.001 sec
 * total energy  :   -18.3182109 Eh     change        0.2226970E-02 Eh
   gradient norm :     0.0494031 Eh/α   predicted    -0.3143482E-02 (-241.16%)
   displ. norm   :     0.1693123 α      lambda       -0.7191999E-02
   maximum displ.:     0.1001696 α      in ANC's #6, #4, #2, ...

........................................................................
.............................. CYCLE   23 ..............................
........................................................................

 iter      E             dE          RMSdq      gap      omega  full diag
   1    -18.4273028 -0.184273E+02  0.357E-01    4.68       0.0  T
   2    -18.4273802 -0.774663E-04  0.214E-01    4.65       1.0  T
   3    -18.4273821 -0.186320E-05  0.940E-02    4.66       1.0  T
   4    -18.4273945 -0.124226E-04  0.236E-02    4.65       1.6  T
   5    -18.4273956 -0.109539E-05  0.133E-02    4.65       2.8  T
   6    -18.4273961 -0.452207E-06  0.764E-03    4.65       4.9  T
   7    -18.4273962 -0.167115E-06  0.212E-03    4.65      17.9  T
   8    -18.4273963 -0.736762E-08  0.129E-03    4.65      29.2  T
   9    -18.4273963 -0.396345E-08  0.785E-04    4.65      48.1  T
  10    -18.4273963 -0.191751E-08  0.126E-04    4.65     300.2  T
     SCC iter.                  ...        0 min,  0.002 sec
     gradient                   ...        0 min,  0.001 sec
 * total energy  :   -18.3217852 Eh     change       -0.3574366E-02 Eh
   gradient norm :     0.0028043 Eh/α   predicted    -0.3699085E-02 (   3.49%)
   displ. norm   :     0.0438734 α      lambda       -0.6710111E-04
   maximum displ.:     0.0409079 α      in ANC's #2, #7, #6, ...

........................................................................
.............................. CYCLE   24 ..............................
........................................................................

 iter      E             dE          RMSdq      gap      omega  full diag
   1    -18.4273037 -0.184273E+02  0.656E-02    4.65       0.0  T
   2    -18.4273041 -0.394177E-06  0.391E-02    4.65       1.0  T
   3    -18.4273042 -0.745785E-07  0.570E-03    4.65       6.6  T
   4    -18.4273043 -0.555557E-07  0.381E-03    4.65       9.9  T
   5    -18.4273043 -0.305768E-07  0.190E-03    4.65      19.9  T
   6    -18.4273043 -0.105798E-07  0.619E-04    4.65      61.1  T
   7    -18.4273043 -0.999005E-09  0.303E-04    4.65     124.9  T
     SCC iter.                  ...        0 min,  0.001 sec
     gradient                   ...        0 min,  0.001 sec
 * total energy  :   -18.3218292 Eh     change       -0.4393414E-04 Eh
   gradient norm :     0.0013904 Eh/α   predicted    -0.3361708E-04 ( -23.48%)
   displ. norm   :     0.0335870 α      lambda       -0.1371330E-04
   maximum displ.:     0.0315759 α      in ANC's #2, #7, #9, ...

........................................................................
.............................. CYCLE   25 ..............................
........................................................................

 iter      E             dE          RMSdq      gap      omega  full diag
   1    -18.4275541 -0.184276E+02  0.535E-02    4.66       0.0  T
   2    -18.4275543 -0.273468E-06  0.318E-02    4.65       1.2  T
   3    -18.4275544 -0.353725E-07  0.505E-03    4.65       7.5  T
   4    -18.4275544 -0.570941E-07  0.324E-03    4.65      11.7  T
   5    -18.4275545 -0.188643E-07  0.194E-03    4.65      19.4  T
   6    -18.4275545 -0.103945E-07  0.101E-03    4.65      37.5  T
   7    -18.4275545 -0.285686E-08  0.251E-04    4.65     150.8  T
   8    -18.4275545 -0.968754E-10  0.185E-04    4.65     204.1  T
     SCC iter.                  ...        0 min,  0.001 sec
     gradient                   ...        0 min,  0.001 sec
 * total energy  :   -18.3218358 Eh     change       -0.6588822E-05 Eh
   gradient norm :     0.0007454 Eh/α   predicted    -0.6859560E-05 (   4.11%)
   displ. norm   :     0.0105343 α      lambda       -0.1804100E-05
   maximum displ.:     0.0100232 α      in ANC's #2, #7, #4, ...

........................................................................
.............................. CYCLE   26 ..............................
........................................................................

 iter      E             dE          RMSdq      gap      omega  full diag
   1    -18.4275921 -0.184276E+02  0.156E-02    4.65       0.0  T
   2    -18.4275921 -0.425380E-07  0.939E-03    4.65       4.0  T
   3    -18.4275921 -0.464573E-08  0.178E-03    4.65      21.2  T
   4    -18.4275921 -0.588945E-08  0.105E-03    4.65      36.0  T
   5    -18.4275921 -0.178608E-08  0.605E-04    4.65      62.4  T
   6    -18.4275921 -0.789989E-09  0.376E-04    4.65     100.6  T
     SCC iter.                  ...        0 min,  0.001 sec
     gradient                   ...        0 min,  0.001 sec
 * total energy  :   -18.3218372 Eh     change       -0.1431974E-05 Eh
   gradient norm :     0.0002706 Eh/α   predicted    -0.9010881E-06 ( -37.07%)
   displ. norm   :     0.0007537 α      lambda       -0.8710422E-07
   maximum displ.:     0.0004075 α      in ANC's #10, #1, #2, ...

   *** GEOMETRY OPTIMIZATION CONVERGED AFTER 26 ITERATIONS ***

------------------------------------------------------------------------
 total energy gain   :        -0.1122092 Eh      -70.4123 kcal/mol
 total RMSD          :         0.8822801 a0        0.4669 Å
 total power (kW/mol):       -11.3309653 (step)-3162.3186 (real)
------------------------------------------------------------------------

 ANCopt (total)                0 d,  0 h,  0 min,  0.093 sec
 optimizer setup                ...        0 min,  0.000 sec (  0.370%)
 model hessian                  ...        0 min,  0.001 sec (  0.895%)
 ANC generation                 ...        0 min,  0.000 sec (  0.230%)
 coordinate transformation      ...        0 min,  0.000 sec (  0.168%)
 single point calculation       ...        0 min,  0.089 sec ( 95.063%)
 optimization log               ...        0 min,  0.001 sec (  1.058%)
 hessian update                 ...        0 min,  0.000 sec (  0.234%)
 rational function              ...        0 min,  0.001 sec (  0.965%)

================
 final structure:
================
7
 xtb: 6.7.1 (edcfbbe)
C           -0.18183708864031       -0.78410141381877        0.93967873725806
C           -0.37533103486870       -0.76218345385327       -0.61058794350711
Cl          -1.71369582947495       -1.29533092278586        1.64222054276903
H            0.56946158654682       -1.51629235420392        1.22905401226488
H            0.03546185220611        0.21207427592578        1.31993181600551
O           -0.74772676227142        0.31704936696297       -1.09976930263671
O           -0.15361972349746       -1.83012049822687       -1.20475586215374
 
 Bond Distances (Angstroems)
 ---------------------------
C1-C2=1.5624         C1-Cl3=1.7611        C1-H4=1.0883         C1-H5=1.0882         C2-C1=1.5624         C2-O6=1.2421         
C2-O7=1.2420         Cl3-C1=1.7611        H4-C1=1.0883         H5-C1=1.0882         O6-C2=1.2421         O7-C2=1.2420         
 C  H  Rav=1.0882 sigma=0.0000  Rmin=1.0882  Rmax=1.0883     2
 C  C  Rav=1.5624 sigma=0.0000  Rmin=1.5624  Rmax=1.5624     1
 O  C  Rav=1.2421 sigma=0.0000  Rmin=1.2420  Rmax=1.2421     2
 Cl C  Rav=1.7611 sigma=0.0000  Rmin=1.7611  Rmax=1.7611     1
 
 selected bond angles (degree)
 --------------------
Cl3-C1-C2=106.99               H4-C1-C2=111.02                H4-C1-Cl3=107.40               H5-C1-C2=111.01                
H5-C1-Cl3=107.46               H5-C1-H4=112.65                O6-C2-C1=116.11                O7-C2-C1=116.13                
O7-C2-O6=127.75                
 
 selected dihedral angles (degree)
 ---------------------------------
O6-C2-C1-Cl3= 91.33           O6-C2-C1-H4=208.24            O6-C2-C1-H5=334.37            O7-C2-C1-Cl3=272.15           
O7-C2-C1-H4= 29.05            O7-C2-C1-H5=155.18            
 
 CMA Distance (Angstroems)
 ---------------------------
R(CMA):  2.6259
           -------------------------------------------------
          |                Final Singlepoint                |
           -------------------------------------------------

          ...................................................
          :                      SETUP                      :
          :.................................................:
          :  # basis functions                  28          :
          :  # atomic orbitals                  27          :
          :  # shells                           13          :
          :  # electrons                        30          :
          :  max. iterations                   250          :
          :  Hamiltonian                  GFN2-xTB          :
          :  restarted?                      false          :
          :  GBSA solvation                   true          :
          :  PC potential                    false          :
          :  electronic temp.          300.0000000     K    :
          :  accuracy                    1.0000000          :
          :  -> integral cutoff          0.2500000E+02      :
          :  -> integral neglect         0.1000000E-07      :
          :  -> SCF convergence          0.1000000E-05 Eh   :
          :  -> wf. convergence          0.1000000E-03 e    :
          :  Broyden damping             0.4000000          :
          :  net charge                         -1          :
          :  unpaired electrons                  0          :
          ...................................................

 iter      E             dE          RMSdq      gap      omega  full diag
   1    -18.4275921 -0.184276E+02  0.738E-05    4.65       0.0  T
   2    -18.4275921 -0.467892E-11  0.608E-05    4.65     621.7  T
   3    -18.4275921 -0.108429E-10  0.296E-05    4.65    1277.5  T

   *** convergence criteria satisfied after 3 iterations ***

         #    Occupation            Energy/Eh            Energy/eV
      -------------------------------------------------------------
         1        2.0000           -1.0645433             -28.9677
       ...           ...                  ...                  ...
         9        2.0000           -0.4925037             -13.4017
        10        2.0000           -0.4917022             -13.3799
        11        2.0000           -0.4347992             -11.8315
        12        2.0000           -0.4228717             -11.5069
        13        2.0000           -0.4136641             -11.2564
        14        2.0000           -0.3973724             -10.8131
        15        2.0000           -0.3758964             -10.2287 (HOMO)
        16                         -0.2048922              -5.5754 (LUMO)
        17                         -0.1404526              -3.8219
        18                          0.0112466               0.3060
        19                          0.0159634               0.4344
        20                          0.0191892               0.5222
       ...                                ...                  ...
        27                          0.6385173              17.3749
      -------------------------------------------------------------
                  HL-Gap            0.1710042 Eh            4.6533 eV
             Fermi-level           -0.2903943 Eh           -7.9020 eV

 SCC (total)                   0 d,  0 h,  0 min,  0.002 sec
 SCC setup                      ...        0 min,  0.000 sec (  5.340%)
 Dispersion                     ...        0 min,  0.000 sec (  1.073%)
 classical contributions        ...        0 min,  0.000 sec (  0.324%)
 integral evaluation            ...        0 min,  0.000 sec ( 22.869%)
 iterations                     ...        0 min,  0.001 sec ( 26.343%)
 molecular gradient             ...        0 min,  0.001 sec ( 39.783%)
 printout                       ...        0 min,  0.000 sec (  3.039%)

         :::::::::::::::::::::::::::::::::::::::::::::::::::::
         ::                     SUMMARY                     ::
         :::::::::::::::::::::::::::::::::::::::::::::::::::::
         :: total energy             -18.321837196063 Eh    ::
         :: total w/o Gsasa/hb       -18.324004009454 Eh    ::
         :: gradient norm              0.000273794353 Eh/a0 ::
         :: HOMO-LUMO gap              4.653262039193 eV    ::
         ::.................................................::
         :: SCC energy               -18.427591290619 Eh    ::
         :: -> isotropic ES            0.215607504691 Eh    ::
         :: -> anisotropic ES         -0.007086588037 Eh    ::
         :: -> anisotropic XC         -0.009614282540 Eh    ::
         :: -> dispersion             -0.004444345124 Eh    ::
         :: -> Gsolv                  -0.103330459543 Eh    ::
         ::    -> Gelec               -0.105497272933 Eh    ::
         ::    -> Gsasa                0.004379004549 Eh    ::
         ::    -> Ghb                 -0.003292950857 Eh    ::
         ::    -> Gshift               0.001080759698 Eh    ::
         :: repulsion energy           0.105754094556 Eh    ::
         :: add. restraining           0.000000000000 Eh    ::
         :: total charge              -1.000000000000 e     ::
         :::::::::::::::::::::::::::::::::::::::::::::::::::::

           ------------------------------------------------- 
          |                Numerical Hessian                |
           ------------------------------------------------- 
step length          :   0.00500
SCC accuracy         :   0.30000
Hessian scale factor :   1.00000
frozen atoms in %    :   0.00000    0
RMS gradient         :   0.00027
estimated CPU  time      0.00 min
estimated wall time      0.00 min

writing file <hessian>.

 projected vibrational frequencies (cm⁻¹)
eigval :       -0.00    -0.00    -0.00     0.00     0.00     0.00
eigval :      -15.80   163.03   402.42   575.75   676.31   780.83
eigval :      854.51   920.45  1090.25  1186.87  1312.33  1392.70
eigval :     1700.79  2999.80  3017.77
           -------------------------------------------------
          |                Property Printout                |
           -------------------------------------------------

    * Orbital Energies and Occupations

         #    Occupation            Energy/Eh            Energy/eV
      -------------------------------------------------------------
         1        2.0000           -1.0645432             -28.9677
       ...           ...                  ...                  ...
         3        2.0000           -0.6764770             -18.4079
         4        2.0000           -0.6259587             -17.0332
         5        2.0000           -0.5728362             -15.5877
         6        2.0000           -0.5368967             -14.6097
         7        2.0000           -0.5320634             -14.4782
         8        2.0000           -0.5276690             -14.3586
         9        2.0000           -0.4925035             -13.4017
        10        2.0000           -0.4917020             -13.3799
        11        2.0000           -0.4347991             -11.8315
        12        2.0000           -0.4228715             -11.5069
        13        2.0000           -0.4136639             -11.2564
        14        2.0000           -0.3973722             -10.8130
        15        2.0000           -0.3758962             -10.2287 (HOMO)
        16                         -0.2048919              -5.5754 (LUMO)
        17                         -0.1404522              -3.8219
        18                          0.0112467               0.3060
        19                          0.0159635               0.4344
        20                          0.0191893               0.5222
        21                          0.0219796               0.5981
        22                          0.1000048               2.7213
        23                          0.1558587               4.2411
        24                          0.1727266               4.7001
        25                          0.2052444               5.5850
        26                          0.4133965              11.2491
        27                          0.6385175              17.3749
      -------------------------------------------------------------
                  HL-Gap            0.1710043 Eh            4.6533 eV
             Fermi-level           -0.2903941 Eh           -7.9020 eV

     #   Z          covCN         q      C6AA      α(0)
     1   6 C        3.711    -0.005    20.796     6.517
     2   6 C        2.729     0.372    20.689     7.447
     3  17 Cl       0.937    -0.220   106.105    15.759
     4   1 H        0.925     0.059     2.210     2.325
     5   1 H        0.925     0.059     2.209     2.324
     6   8 O        0.856    -0.633    26.942     6.959
     7   8 O        0.856    -0.633    26.938     6.959

 Mol. C6AA /au·bohr⁶  :       1067.065471
 Mol. C8AA /au·bohr⁸  :      29593.484477
 Mol. α(0) /au        :         48.289076


Wiberg/Mayer (AO) data.
largest (>0.10) Wiberg bond orders for each atom

 ---------------------------------------------------------------------------
     #   Z sym  total        # sym  WBO       # sym  WBO       # sym  WBO
 ---------------------------------------------------------------------------
     1   6 C    3.914 --     5 H    0.982     4 H    0.982     3 Cl   0.938
                             2 C    0.904
     2   6 C    3.939 --     7 O    1.510     6 O    1.509     1 C    0.904
     3  17 Cl   0.993 --     1 C    0.938
     4   1 H    0.997 --     1 C    0.982
     5   1 H    0.997 --     1 C    0.982
     6   8 O    1.812 --     2 C    1.509     7 O    0.226
     7   8 O    1.812 --     2 C    1.510     6 O    0.226
 ---------------------------------------------------------------------------

Topologies differ in total number of bonds
Writing topology from bond orders to xtbtopo.mol

molecular dipole:
                 x           y           z       tot (Debye)
 q only:        1.596       1.673       1.919
   full:        1.882       1.770       1.693       7.850
molecular quadrupole (traceless):
                xx          xy          yy          xz          yz          zz
 q only:        4.041      -2.472      -2.689       0.603      -3.336      -1.352
  q+dip:        4.321      -3.802      -1.381       4.251      -1.594      -2.940
   full:        5.422      -3.206      -1.976       3.568      -1.815      -3.447

           -------------------------------------------------
          |                Geometry Summary                 |
           -------------------------------------------------

      molecular mass/u    :       93.4891007
   center of mass at/Å    :       -0.8691838      -0.9628679       0.2981396
  moments of inertia/u·Å² :        0.5964466E+02   0.1967443E+03   0.2200033E+03
rotational constants/cm⁻¹ :        0.2826344E+00   0.8568295E-01   0.7662446E-01

 * 5 selected distances

     #   Z          #   Z                                           value/Å
     1   6 C        3  17 Cl                                      1.7611111 (max)
     1   6 C        4   1 H                                       1.0882516
     1   6 C        5   1 H                                       1.0881992 (min)
     2   6 C        6   8 O                                       1.2420631
     2   6 C        7   8 O                                       1.2420472

 * 3 distinct bonds (by element types)

   Z      Z             #   av. dist./Å        max./Å        min./Å
   1 H    6 C           2     1.0882254     1.0882516     1.0881992
   6 C    8 O           2     1.2420551     1.2420631     1.2420472
   6 C   17 Cl          1     1.7611111     1.7611111     1.7611111

           -------------------------------------------------
          |               Frequency Printout                |
           -------------------------------------------------
 projected vibrational frequencies (cm⁻¹)
eigval :       -0.00    -0.00    -0.00     0.00     0.00     0.00
eigval :      -15.80   163.03   402.42   575.75   676.31   780.83
eigval :      854.51   920.45  1090.25  1186.87  1312.33  1392.70
eigval :     1700.79  2999.80  3017.77
 reduced masses (amu)
   1: 15.88   2: 17.64   3: 30.26   4: 25.69   5: 19.89   6: 19.14   7: 16.85   8: 23.88
   9: 10.12  10: 15.03  11: 15.99  12: 13.41  13: 11.99  14:  6.67  15:  1.57  16:  3.50
  17: 14.21  18:  2.11  19: 13.14  20:  1.44  21:  2.06
 IR intensities (km·mol⁻¹)
   1: 18.27   2: 15.57   3:  2.18   4:  1.54   5:  3.93   6:  8.34   7:  1.51   8: 13.90
   9:  0.74  10: 37.06  11: 39.65  12: 46.39  13:101.69  14:  0.56  15:  0.62  16:  1.12
  17:372.26  18: 17.33  19:810.72  20:  6.25  21: 18.10
 Raman intensities (Ä⁴*amu⁻¹)
   1:  0.00   2:  0.00   3:  0.00   4:  0.00   5:  0.00   6:  0.00   7:  0.00   8:  0.00
   9:  0.00  10:  0.00  11:  0.00  12:  0.00  13:  0.00  14:  0.00  15:  0.00  16:  0.00
  17:  0.00  18:  0.00  19:  0.00  20:  0.00  21:  0.00
 output can be read by thermo (or use thermo option).
 writing <g98.out> molden fake output.
 recommended (thermochemical) frequency scaling factor: 1.0
           -------------------------------------------------
          |             Thermodynamic Functions             |
           -------------------------------------------------

Molecule has the following symmetry elements: (sigma) 
It seems to be the Cs point group
cs  symmetry found (for desy threshold:  0.10E+00) used in thermo
 inverting freq            1   15.7974460530913     

          ...................................................
          :                      SETUP                      :
          :.................................................:
          :  # frequencies                          15      :
          :  # imaginary freq.                       0      :
          :  linear?                             false      :
          :  only rotor calc.                    false      :
          :  symmetry                               cs      :
          :  rotational number                       1      :
          :  scaling factor                  1.0000000      :
          :  rotor cutoff                   50.0000000 cm⁻¹ :
          :  imag. cutoff                  -20.0000000 cm⁻¹ :
          :.................................................:

    mode    ω/cm⁻¹     T·S(HO)/kcal·mol⁻¹    T·S(FR)/kcal·mol⁻¹   T·S(vib)
   ------------------------------------------------------------------------
       1     15.80    -2.11766 (  0.99%)    -1.39589 ( 99.01%)    -1.40301
       2    163.03    -0.74965 ( 99.12%)    -0.70622 (  0.88%)    -0.74927
   ------------------------------------------------------------------------

   temp. (K)  partition function   enthalpy   heat capacity  entropy
                                   cal/mol     cal/K/mol   cal/K/mol   J/K/mol
 298.15  VIB   34.5                 1503.020      8.818      9.679
         ROT  0.123E+06              888.752      2.981     26.267
         INT  0.423E+07             2391.772     11.798     35.946
         TR   0.875E+27             1481.254      4.968     39.499
         TOT                        3873.0260    16.7666    75.4459   315.6656

       T/K    H(0)-H(T)+PV         H(T)/Eh          T*S/Eh         G(T)/Eh
   ------------------------------------------------------------------------
    298.15    0.617206E-02    0.451050E-01    0.358468E-01    0.925825E-02
   ------------------------------------------------------------------------

         :::::::::::::::::::::::::::::::::::::::::::::::::::::
         ::                  THERMODYNAMIC                  ::
         :::::::::::::::::::::::::::::::::::::::::::::::::::::
         :: total free energy         -18.312578947216 Eh   ::
         ::.................................................::
         :: total energy              -18.321837196190 Eh   ::
         :: zero point energy           0.038932964091 Eh   ::
         :: G(RRHO) w/o ZPVE           -0.029674715118 Eh   ::
         :: G(RRHO) contrib.            0.009258248973 Eh   ::
         :::::::::::::::::::::::::::::::::::::::::::::::::::::
imag cut-off (cm-1) :    5.00
 found            1  significant imaginary frequency
 writing imag mode distorted coords to xtbhess.xyz
 for further optimization.

optimized geometry written to: xtbopt.xyz


           -------------------------------------------------
          | TOTAL ENERGY              -18.321837196190 Eh   |
          | TOTAL ENTHALPY            -18.276732172355 Eh   |
          | TOTAL FREE ENERGY         -18.312578947216 Eh   |
          | GRADIENT NORM               0.000273902082 Eh/α |
          | HOMO-LUMO GAP               4.653263437544 eV   |
           -------------------------------------------------

------------------------------------------------------------------------
 * finished run on 2025/10/18 at 21:05:40.688     
------------------------------------------------------------------------
 total:
 * wall-time:     0 d,  0 h,  0 min,  1.228 sec
 *  cpu-time:     0 d,  0 h,  0 min,  0.890 sec
 * ratio c/w:     0.725 speedup
 SCF:
 * wall-time:     0 d,  0 h,  0 min,  0.029 sec
 *  cpu-time:     0 d,  0 h,  0 min,  0.040 sec
 * ratio c/w:     1.354 speedup
 ANC optimizer:
 * wall-time:     0 d,  0 h,  0 min,  0.302 sec
 *  cpu-time:     0 d,  0 h,  0 min,  0.398 sec
 * ratio c/w:     1.319 speedup
 analytical hessian:
 * wall-time:     0 d,  0 h,  0 min,  0.155 sec
 *  cpu-time:     0 d,  0 h,  0 min,  0.229 sec
 * ratio c/w:     1.473 speedup

