7
 energy: -18.209628040687 gnorm: 0.063844772488 xtb: 6.7.1 (edcfbbe)
C           -0.16327289018103       -0.81304944774459        1.58455832159786
C           -0.43253964067672       -0.73637798493681       -1.44190166243915
Cl          -1.75805614439891       -1.30398560575791        1.75269203875664
H            0.59693093349965       -1.56644156098070        1.56493117973891
H            0.05346733235844        0.23243053451801        1.65968947260540
O           -0.76159293852211        0.35830392404427       -1.39552695269200
O           -0.10222365207932       -1.82978485914228       -1.50867039756766
7
 energy: -18.242602563895 gnorm: 0.053948237640 xtb: 6.7.1 (edcfbbe)
C           -0.17747930880102       -0.79971411614200        1.24992229465293
C           -0.42808868586091       -0.73744815530686       -1.39729503135169
Cl          -1.75458636445784       -1.30615406855400        1.80930964177756
H            0.59366413771070       -1.55871563613426        1.64833331689277
H            0.05701748823242        0.21635773328772        1.74174779728861
O           -0.76147954104269        0.36717167879284       -1.36082061817445
O           -0.09633472578066       -1.84040243594344       -1.47542540108572
7
 energy: -18.199558557967 gnorm: 0.157856327289 xtb: 6.7.1 (edcfbbe)
C           -0.19950926567995       -0.78641647177724        0.87174370048448
C           -0.40211223073865       -0.73292700041760       -1.33577687034668
Cl          -1.74436376928139       -1.31307889351178        1.99485970075288
H            0.56270189613938       -1.53201972644947        1.68375421872379
H            0.04656380675584        0.17398563203576        1.77358935176235
O           -0.74848740692375        0.37171536720573       -1.32834044092748
O           -0.08208003027146       -1.84016390708541       -1.44405766044933
7
 energy: -18.246359068004 gnorm: 0.057791547848 xtb: 6.7.1 (edcfbbe)
C           -0.18466784614414       -0.79358951354727        1.09298979659841
C           -0.40262304294847       -0.73311949764992       -1.33510991432121
Cl          -1.75601616036069       -1.31469407312374        1.95841964237880
H            0.56384509959142       -1.53526651287565        1.59612753270284
H            0.04309593359754        0.18576599305855        1.68667275304516
O           -0.74867394711391        0.37197091676270       -1.33377547579267
O           -0.08224703662172       -1.83997231262469       -1.44955233461133
7
 energy: -18.252503236281 gnorm: 0.055197426191 xtb: 6.7.1 (edcfbbe)
C           -0.17178840034910       -0.79138625909665        1.12161662458824
C           -0.40751366422630       -0.73933996975293       -1.24250376185517
Cl          -1.75735005587801       -1.31053051731608        1.87592370673683
H            0.55723820272023       -1.51967155601827        1.51274438752413
H            0.04406432412310        0.17697243897655        1.60135381458979
O           -0.74883332658851        0.36722412712230       -1.26913821937782
O           -0.08310407980136       -1.84217326391494       -1.38422455220602
7
 energy: -18.259846413142 gnorm: 0.090286703054 xtb: 6.7.1 (edcfbbe)
C           -0.15939295740146       -0.78567756752725        1.08392238927942
C           -0.41642755558942       -0.74924817017696       -1.10497138264713
Cl          -1.75458962369879       -1.30406212072505        1.76555665738636
H            0.55328226877374       -1.50927181375250        1.43249910851355
H            0.04392646950716        0.17403733344729        1.52124351924509
O           -0.75098125797592        0.36493365819563       -1.18337575022503
O           -0.08310434361527       -1.84961631946116       -1.29910254155229
7
 energy: -18.272081956290 gnorm: 0.122603063413 xtb: 6.7.1 (edcfbbe)
C           -0.15250087448817       -0.78107104048580        1.03029978555787
C           -0.42002507985474       -0.75761337436848       -0.95998796314994
Cl          -1.75380079552419       -1.30019627504278        1.69072630652433
H            0.54982967566107       -1.50609164292280        1.34371780148213
H            0.03986839249054        0.17770862327475        1.42931732182543
O           -0.75107870584908        0.36646595448230       -1.10213547916161
O           -0.07957961243538       -1.85810724493720       -1.21616577307828
7
 energy: -18.287783328055 gnorm: 0.135478417594 xtb: 6.7.1 (edcfbbe)
C           -0.14905048272300       -0.77688865891613        0.98548611099916
C           -0.42309418618239       -0.76680908855409       -0.81852546910970
Cl          -1.75322658941090       -1.29692776116403        1.62942460731594
H            0.54790920662358       -1.50522731767278        1.25982551380582
H            0.03561218700309        0.18559335104234        1.35156481478122
O           -0.74965792403985        0.36760337752317       -1.03412602316968
O           -0.07577921127045       -1.86624890225848       -1.15787755462284
7
 energy: -18.274836568957 gnorm: 0.236093254911 xtb: 6.7.1 (edcfbbe)
C           -0.13950239289241       -0.76671954806354        0.91559610414441
C           -0.43972049115440       -0.79323489260300       -0.46483548892005
Cl          -1.74380733271939       -1.29100353454239        1.55921560671021
H            0.54195654367279       -1.51980967578350        1.17827481854944
H            0.02060575768913        0.21190450729352        1.29350304733724
O           -0.74862680102147        0.39908098618668       -1.04547725493135
O           -0.05819228357413       -1.89912284248776       -1.22050483288998
7
 energy: -18.311358221522 gnorm: 0.083533866380 xtb: 6.7.1 (edcfbbe)
C           -0.15276075951385       -0.77474023760774        0.94705761383747
C           -0.43219544670782       -0.77886807879047       -0.65236663019453
Cl          -1.74657761504724       -1.29292443083816        1.58725134483033
H            0.55569657399791       -1.52904371949769        1.22293497824771
H            0.02679361335347        0.21616156611084        1.32700468337770
O           -0.74712320024152        0.37184674291006       -1.03795198979601
O           -0.07112016584086       -1.87133684228684       -1.17815800030275
7
 energy: -18.291690280158 gnorm: 0.155420570651 xtb: 6.7.1 (edcfbbe)
C           -0.17137495898578       -0.79209864831190        0.87245139158642
C           -0.41704980639032       -0.76106491140755       -0.58619938151357
Cl          -1.75086527258483       -1.30214428606511        1.62352381078814
H            0.55822746518680       -1.53885080310615        1.11971666566090
H            0.02583995084879        0.20926682901129        1.16670085807893
O           -0.74251541826491        0.36816086655127       -1.01871644190851
O           -0.06954895980966       -1.84217404667184       -0.96170490269244
7
 energy: -18.316429341143 gnorm: 0.051082907386 xtb: 6.7.1 (edcfbbe)
C           -0.19010697339373       -0.78507110694841        0.90700627968568
C           -0.41615130235004       -0.76895977459091       -0.61791433269739
Cl          -1.74683556956012       -1.30497239313320        1.69582321403749
H            0.55811274350605       -1.53427520985459        1.18602861910963
H            0.02853339239922        0.22092754320676        1.26708247798423
O           -0.73050590189666        0.35611005295069       -1.06701938768917
O           -0.07033338870462       -1.84266411163034       -1.15523487043055
7
 energy: -18.316838722372 gnorm: 0.061543596500 xtb: 6.7.1 (edcfbbe)
C           -0.18461378310590       -0.78744121256519        0.95137001825593
C           -0.43683594710996       -0.77297096063419       -0.61909777753280
Cl          -1.73360508717947       -1.29662810695914        1.60279391496049
H            0.56334293725443       -1.52940401870225        1.22420462772957
H            0.04268822403265        0.21013495010918        1.35688766412328
O           -0.73782618153644        0.34661703453357       -1.13490898081359
O           -0.08043716235523       -1.82921268578197       -1.16547746672296
7
 energy: -18.311261046218 gnorm: 0.123983815195 xtb: 6.7.1 (edcfbbe)
C           -0.21729506134775       -0.77961829592956        0.96207198213594
C           -0.42541422832883       -0.79146733669377       -0.60706899932284
Cl          -1.72359942070456       -1.28444634010494        1.63199124275391
H            0.56086837042032       -1.50376570860082        1.19125549882933
H            0.03885768422449        0.21862899037684        1.34250868318317
O           -0.71498505130221        0.28863000949679       -1.01123577552127
O           -0.08571929296133       -1.80686631854453       -1.29375063205831
7
 energy: -18.319217958962 gnorm: 0.029117981501 xtb: 6.7.1 (edcfbbe)
C           -0.22634815441567       -0.79515439143706        0.93471103319242
C           -0.40678346023735       -0.77039989153782       -0.63081124399135
Cl          -1.72979302875110       -1.30382150505466        1.79395656794368
H            0.55700128314040       -1.51645682417263        1.21395226968642
H            0.02714020483744        0.20478253780458        1.28860513596821
O           -0.70867677420169        0.32463444053842       -1.13128500593344
O           -0.07982707037193       -1.80248936614083       -1.25335675686600
7
 energy: -18.317662664898 gnorm: 0.054212283117 xtb: 6.7.1 (edcfbbe)
C           -0.18847291448117       -0.78704861389968        0.94313410940209
C           -0.42971441222059       -0.77566039708646       -0.60661256426595
Cl          -1.72695185700591       -1.29711708346294        1.61476731776478
H            0.55966573499507       -1.52490766213799        1.18739157864101
H            0.03193304296830        0.20994951536130        1.31713646098155
O           -0.72462805969436        0.34790915993807       -1.09580019570488
O           -0.08911853456126       -1.83202991871227       -1.14424470681868
7
 energy: -18.320265753953 gnorm: 0.024499529639 xtb: 6.7.1 (edcfbbe)
C           -0.21352961234896       -0.79176043264189        0.94007559466839
C           -0.41660998095418       -0.77398876022987       -0.61815409745638
Cl          -1.72161015688394       -1.29887801967351        1.71298721591389
H            0.55640395311165       -1.51918274018808        1.20114652937593
H            0.02685515894103        0.20822358304763        1.29878258819229
O           -0.71014024749377        0.32988413584383       -1.10579578737085
O           -0.08865611437173       -1.81320276615807       -1.21327004332335
7
 energy: -18.320346570641 gnorm: 0.021511901146 xtb: 6.7.1 (edcfbbe)
C           -0.21906747509698       -0.79342578911995        0.93828256769348
C           -0.41313326851799       -0.77331168342283       -0.61874925384054
Cl          -1.71681475572146       -1.29824769637407        1.73482172599464
H            0.55266144184872       -1.51875455714257        1.18977870706697
H            0.02431292771025        0.20760720247438        1.29893797069159
O           -0.70537973557916        0.32848829657663       -1.10975947838251
O           -0.08986613464328       -1.81126077299155       -1.21754023922370
7
 energy: -18.320167993916 gnorm: 0.022354268311 xtb: 6.7.1 (edcfbbe)
C           -0.22729143626224       -0.80038777649331        0.93738722185978
C           -0.40980855574906       -0.77013101127636       -0.61770184055927
Cl          -1.70289193337811       -1.29501367720451        1.76045645783874
H            0.54920234457970       -1.52097790744865        1.22196076190999
H            0.01563033878386        0.20537461616108        1.25312869750121
O           -0.69588291222120        0.32892535099709       -1.10856187408253
O           -0.09624484575288       -1.80669459473528       -1.23089742446798
7
 energy: -18.320428064359 gnorm: 0.018931932832 xtb: 6.7.1 (edcfbbe)
C           -0.22371968166910       -0.79663276760592        0.93693703864039
C           -0.41153427839160       -0.77211514946578       -0.61846772421795
Cl          -1.70728447339492       -1.29654180064678        1.74524036405311
H            0.54984403821169       -1.51930205629489        1.19629828179438
H            0.01930752969322        0.20650281202708        1.28536700294974
O           -0.69787505553431        0.33043800592488       -1.11032273256531
O           -0.09602507891490       -1.81125404393853       -1.21928023065443
7
 energy: -18.320437844379 gnorm: 0.018673043494 xtb: 6.7.1 (edcfbbe)
C           -0.22430200876261       -0.79667532206802        0.93663502464072
C           -0.41140555936847       -0.77214369919651       -0.61880372107852
Cl          -1.70547199341282       -1.29698864222644        1.74501224416442
H            0.54959608132203       -1.51853439037946        1.19450246548536
H            0.01819441227727        0.20633450446811        1.28608128500384
O           -0.69502532907706        0.33214400155722       -1.10977562319600
O           -0.09887260297824       -1.81304145215485       -1.21787967501988
7
 energy: -18.318210874830 gnorm: 0.049411629103 xtb: 6.7.1 (edcfbbe)
C           -0.19289629792235       -0.78788661586777        0.94487250758832
C           -0.30358693784334       -0.74219022385797       -0.61744509326386
Cl          -1.71889060330507       -1.29716540635072        1.66487385270664
H            0.56319707500046       -1.51751518461630        1.23265492403401
H            0.03034694093781        0.20942716544247        1.32217055275705
O           -0.77107259565562        0.31322493341195       -1.11215757478145
O           -0.17438458121179       -1.83679966816160       -1.21919716904076
7
 energy: -18.321785240709 gnorm: 0.002804310523 xtb: 6.7.1 (edcfbbe)
C           -0.19356422354191       -0.78773800184039        0.94034552494258
C           -0.37463193787518       -0.76207897257910       -0.61282861613543
Cl          -1.71338849210411       -1.29600453184299        1.66853742802000
H            0.56504453547743       -1.51706688527946        1.22194683063053
H            0.03175950449842        0.21096027138464        1.31239422212802
O           -0.73853137759529        0.31857669926083       -1.10414578269811
O           -0.14397500885928       -1.82555357910349       -1.21047760688767
7
 energy: -18.321829174847 gnorm: 0.001390503477 xtb: 6.7.1 (edcfbbe)
C           -0.18606099863442       -0.78545362441534        0.94042932314522
C           -0.37618040456497       -0.76249817329409       -0.61094716539072
Cl          -1.71411092494877       -1.29564081825427        1.65110727951478
H            0.56855095813390       -1.51646775557205        1.22684422701435
H            0.03484674335920        0.21192547354020        1.31744552751699
O           -0.74437182313906        0.31760086216469       -1.10174757263450
O           -0.14996055020578       -1.82837096416908       -1.20735961916620
7
 energy: -18.321835763669 gnorm: 0.000745740076 xtb: 6.7.1 (edcfbbe)
C           -0.18012383513211       -0.78359246807392        0.93970476174357
C           -0.37538920632677       -0.76220214904918       -0.60989811766353
Cl          -1.71384463687514       -1.29518997332027        1.63802089865406
H            0.57023014976953       -1.51613468108304        1.23020837910243
H            0.03623566464868        0.21223388461322        1.32108237779808
O           -0.74927287654545        0.31667036141786       -1.09926475705701
O           -0.15512225953866       -1.83068997450462       -1.20408154257766
7
 energy: -18.321837195643 gnorm: 0.000270825352 xtb: 6.7.1 (edcfbbe)
C           -0.18183708864031       -0.78410141381877        0.93967873725806
C           -0.37533103486870       -0.76218345385327       -0.61058794350711
Cl          -1.71369582947495       -1.29533092278586        1.64222054276903
H            0.56946158654682       -1.51629235420392        1.22905401226488
H            0.03546185220611        0.21207427592578        1.31993181600551
O           -0.74772676227142        0.31704936696297       -1.09976930263671
O           -0.15361972349746       -1.83012049822687       -1.20475586215374
