7
 energy: -18.321837196063 gnorm: 0.000273794353 xtb: 6.7.1 (edcfbbe)
C           -0.18183791407117       -0.78409882167845        0.93968074049722
C           -0.37533715699943       -0.76218255427880       -0.61058530308891
Cl          -1.71369687932387       -1.29531908369021        1.64222878546239
H            0.56945793747565       -1.51629319079326        1.22905467088900
H            0.03546757006570        0.21207639393621        1.31993132207080
O           -0.74772894112106        0.31705136260688       -1.09976724592508
O           -0.15363351137410       -1.83012179652163       -1.20475213174773
