 Entering Gaussian System
 *********************************************
 Gaussian 98:
 frequency output generated by the xtb code
 *********************************************
                         Standard orientation:
 --------------------------------------------------------------------
  Center     Atomic     Atomic              Coordinates (Angstroms)
  Number     Number      Type              X           Y           Z
 --------------------------------------------------------------------
    1          6             0       -2.067097   -2.877988    1.605027
    2          6             0       -2.540307   -2.203943    0.420957
    3          6             0       -3.708964   -2.539529   -0.177716
    4          6             0       -4.513440   -3.575470    0.348066
    5          6             0       -4.087033   -4.256118    1.510703
    6          6             0       -2.919301   -3.924631    2.113478
    7          8             0       -6.395840   -4.832847    0.211987
    8          8             0       -0.983004   -2.573469    2.157319
    9          1             0       -1.918964   -1.413981    0.025582
   10          1             0       -4.056974   -2.031740   -1.065664
   11          7             0       -5.689650   -3.914884   -0.260622
   12          1             0       -4.719834   -5.042816    1.895489
   13          8             0       -6.058514   -3.308079   -1.290159
   14          1             0       -2.585431   -4.439957    3.001987
 --------------------------------------------------------------------
     1 basis functions        1 primitive gaussians
     1 alpha electrons        1 beta electrons
 
 Harmonic frequencies (cm**-1), IR intensities (km*mol⁻¹),
 Raman scattering activities (A**4/amu), Raman depolarization ratios,
 reduced masses (AMU), force constants (mDyne/A) and normal coordinates:
                      1                      2                      3
                        a                      a                      a 
 Frequencies --    88.1721                95.3697               213.5997
 Red. masses --    13.7769                14.0467                14.0749
 Frc consts  --     0.0000                 0.0000                 0.0000
 IR Inten    --    26.2573                 0.1297                17.9609
 Raman Activ --     0.0000                 0.0000                 0.0000
 Depolar     --     0.0000                 0.0000                 0.0000
 Atom AN      X      Y      Z        X      Y      Z        X      Y      Z
   1   6    -0.02   0.03   0.03    -0.00   0.00   0.00    -0.01  -0.05   0.05
   2   6     0.10  -0.14  -0.12     0.14  -0.19  -0.16     0.13   0.07   0.04
   3   6     0.16  -0.22  -0.18     0.11  -0.15  -0.13     0.14   0.21  -0.13
   4   6     0.12  -0.17  -0.14     0.01  -0.01  -0.01     0.05   0.23  -0.23
   5   6     0.17  -0.24  -0.20    -0.09   0.12   0.10    -0.06   0.15  -0.24
   6   6     0.12  -0.17  -0.14    -0.12   0.17   0.14    -0.12  -0.01  -0.09
   7   8    -0.16   0.22   0.19     0.28  -0.38  -0.32     0.35  -0.05   0.36
   8   8    -0.29   0.41   0.35    -0.02   0.03   0.03    -0.05  -0.25   0.24
   9   1     0.03  -0.04  -0.03     0.07  -0.10  -0.09     0.07   0.02   0.04
  10   1     0.06  -0.08  -0.06     0.06  -0.08  -0.07     0.08   0.09  -0.04
  11   7    -0.04   0.05   0.04    -0.00   0.00   0.00     0.01   0.02  -0.02
  12   1     0.06  -0.09  -0.07    -0.05   0.07   0.06    -0.05   0.05  -0.10
  13   8    -0.12   0.17   0.14    -0.30   0.40   0.35    -0.42  -0.28  -0.04
  14   1     0.04  -0.05  -0.04    -0.07   0.09   0.08    -0.07  -0.03  -0.03
                      4                      5                      6
                        a                      a                      a 
 Frequencies --   248.4168               353.4633               370.5841
 Red. masses --    11.8297                14.3833                 9.4861
 Frc consts  --     0.0000                 0.0000                 0.0000
 IR Inten    --     0.3457                 0.6934                 0.0039
 Raman Activ --     0.0000                 0.0000                 0.0000
 Depolar     --     0.0000                 0.0000                 0.0000
 Atom AN      X      Y      Z        X      Y      Z        X      Y      Z
   1   6    -0.10   0.14   0.12     0.32   0.09   0.17     0.00   0.00  -0.00
   2   6    -0.18   0.25   0.22     0.12  -0.05   0.16     0.21  -0.29  -0.25
   3   6     0.10  -0.14  -0.12     0.07  -0.06   0.14    -0.21   0.29   0.25
   4   6     0.26  -0.36  -0.30    -0.14  -0.04  -0.08    -0.00   0.00   0.00
   5   6     0.10  -0.14  -0.11     0.11   0.12  -0.04     0.21  -0.29  -0.25
   6   6    -0.18   0.26   0.22     0.16   0.13  -0.02    -0.21   0.30   0.25
   7   8    -0.10   0.13   0.11    -0.36  -0.07  -0.22    -0.02   0.03   0.02
   8   8     0.15  -0.21  -0.19     0.40   0.11   0.20     0.00  -0.01   0.01
   9   1    -0.09   0.13   0.11    -0.00  -0.00   0.01     0.09  -0.13  -0.11
  10   1     0.04  -0.05  -0.04     0.07   0.02   0.04    -0.14   0.18   0.16
  11   7     0.08  -0.11  -0.09    -0.26  -0.08  -0.13    -0.00  -0.00   0.00
  12   1     0.04  -0.05  -0.04     0.07   0.03   0.03     0.14  -0.19  -0.16
  13   8    -0.09   0.13   0.11    -0.38  -0.14  -0.16     0.02  -0.03  -0.02
  14   1    -0.09   0.13   0.11     0.00   0.01  -0.00    -0.09   0.13   0.11
                      7                      8                      9
                        a                      a                      a 
 Frequencies --   428.6505               442.3569               542.8280
 Red. masses --    13.1334                 8.9729                13.1872
 Frc consts  --     0.0000                 0.0000                 0.0000
 IR Inten    --    21.0244                 0.2379                 1.1338
 Raman Activ --     0.0000                 0.0000                 0.0000
 Depolar     --     0.0000                 0.0000                 0.0000
 Atom AN      X      Y      Z        X      Y      Z        X      Y      Z
   1   6     0.05   0.24  -0.24     0.22  -0.31  -0.26     0.02   0.10  -0.10
   2   6     0.07   0.28  -0.26     0.04  -0.06  -0.05     0.02   0.06  -0.06
   3   6    -0.03  -0.03   0.01    -0.14   0.19   0.16    -0.04  -0.26   0.27
   4   6    -0.01  -0.07   0.07     0.23  -0.32  -0.27    -0.04  -0.18   0.18
   5   6     0.02  -0.01   0.04    -0.14   0.19   0.16    -0.08  -0.27   0.25
   6   6     0.05   0.26  -0.27     0.04  -0.06  -0.05     0.01   0.06  -0.06
   7   8    -0.17  -0.09  -0.05    -0.03   0.05   0.04     0.40   0.23   0.07
   8   8    -0.10  -0.44   0.44    -0.10   0.14   0.12    -0.00  -0.02   0.02
   9   1    -0.05   0.09  -0.14    -0.10   0.14   0.12    -0.05   0.03  -0.08
  10   1    -0.06  -0.05  -0.00    -0.16   0.22   0.19    -0.08  -0.12   0.07
  11   7    -0.02  -0.10   0.10     0.08  -0.11  -0.10     0.05   0.24  -0.24
  12   1     0.05  -0.01   0.06    -0.16   0.22   0.18     0.03  -0.09   0.13
  13   8     0.16   0.01   0.13    -0.04   0.05   0.04    -0.34   0.02  -0.31
  14   1     0.09   0.13  -0.08    -0.10   0.14   0.12     0.07   0.07  -0.01
                     10                     11                     12
                        a                      a                      a 
 Frequencies --   609.5605               618.2028               656.2652
 Red. masses --    11.8258                13.4562                11.8996
 Frc consts  --     0.0000                 0.0000                 0.0000
 IR Inten    --     0.0109               105.9297                22.2996
 Raman Activ --     0.0000                 0.0000                 0.0000
 Depolar     --     0.0000                 0.0000                 0.0000
 Atom AN      X      Y      Z        X      Y      Z        X      Y      Z
   1   6    -0.01  -0.03   0.04     0.19   0.05   0.10     0.19  -0.26  -0.23
   2   6    -0.38  -0.21  -0.07    -0.20  -0.22   0.09    -0.08   0.12   0.10
   3   6    -0.34   0.01  -0.30    -0.20  -0.17   0.03     0.13  -0.17  -0.15
   4   6     0.00   0.02  -0.02    -0.24  -0.07  -0.13    -0.02   0.03   0.03
   5   6     0.39   0.22   0.07    -0.16   0.07  -0.21     0.13  -0.17  -0.14
   6   6     0.33  -0.01   0.29    -0.13   0.13  -0.26    -0.08   0.12   0.10
   7   8     0.11   0.09  -0.01     0.24  -0.11   0.34     0.10  -0.14  -0.12
   8   8    -0.04  -0.21   0.20     0.26   0.08   0.13    -0.04   0.06   0.05
   9   1    -0.11  -0.06  -0.03    -0.12  -0.05  -0.05    -0.11   0.16   0.14
  10   1    -0.10   0.00  -0.08    -0.01  -0.02   0.01    -0.03   0.04   0.03
  11   7     0.02   0.08  -0.08    -0.13  -0.03  -0.06    -0.32   0.44   0.37
  12   1     0.11   0.06   0.02    -0.01   0.01  -0.02    -0.03   0.04   0.04
  13   8    -0.08   0.04  -0.12     0.33   0.28  -0.04     0.10  -0.14  -0.12
  14   1     0.10   0.00   0.08    -0.12  -0.02  -0.07    -0.11   0.16   0.14
                     13                     14                     15
                        a                      a                      a 
 Frequencies --   706.2802               779.7524               820.9750
 Red. masses --    12.5002                13.7229                 3.3818
 Frc consts  --     0.0000                 0.0000                 0.0000
 IR Inten    --    41.7296                12.9809                 0.0037
 Raman Activ --     0.0000                 0.0000                 0.0000
 Depolar     --     0.0000                 0.0000                 0.0000
 Atom AN      X      Y      Z        X      Y      Z        X      Y      Z
   1   6    -0.22   0.30   0.26    -0.16  -0.04  -0.08     0.00  -0.00  -0.00
   2   6     0.09  -0.12  -0.10     0.20   0.12   0.02     0.10  -0.14  -0.12
   3   6    -0.09   0.12   0.11     0.19  -0.01   0.17     0.12  -0.17  -0.14
   4   6     0.25  -0.35  -0.30    -0.14  -0.04  -0.07     0.00  -0.00  -0.00
   5   6    -0.09   0.12   0.10     0.22   0.13   0.03    -0.12   0.17   0.14
   6   6     0.09  -0.12  -0.10     0.17  -0.02   0.17    -0.10   0.14   0.12
   7   8     0.07  -0.10  -0.09    -0.04  -0.31   0.32     0.01  -0.01  -0.01
   8   8     0.05  -0.08  -0.07    -0.27  -0.08  -0.14    -0.00   0.00   0.00
   9   1     0.06  -0.08  -0.07     0.10   0.02   0.06    -0.23   0.32   0.27
  10   1    -0.02   0.02   0.02     0.10   0.03   0.05    -0.19   0.26   0.23
  11   7    -0.27   0.36   0.31    -0.32  -0.10  -0.17    -0.00   0.00   0.00
  12   1    -0.02   0.02   0.02     0.10   0.03   0.05     0.19  -0.27  -0.23
  13   8     0.08  -0.10  -0.09     0.10   0.32  -0.29    -0.01   0.01   0.01
  14   1     0.06  -0.08  -0.07     0.10   0.03   0.05     0.24  -0.33  -0.28
                     16                     17                     18
                        a                      a                      a 
 Frequencies --   830.3365               853.8753               921.4890
 Red. masses --     6.2413                12.1817                 2.7288
 Frc consts  --     0.0000                 0.0000                 0.0000
 IR Inten    --    50.6887                60.5090                 0.6849
 Raman Activ --     0.0000                 0.0000                 0.0000
 Depolar     --     0.0000                 0.0000                 0.0000
 Atom AN      X      Y      Z        X      Y      Z        X      Y      Z
   1   6    -0.20   0.29   0.25    -0.16  -0.04  -0.08     0.04  -0.06  -0.05
   2   6     0.14  -0.19  -0.17    -0.04  -0.28   0.29     0.07  -0.10  -0.08
   3   6     0.07  -0.10  -0.09     0.06  -0.23   0.33    -0.11   0.16   0.13
   4   6    -0.11   0.15   0.13    -0.03  -0.01  -0.02     0.01  -0.01  -0.01
   5   6     0.07  -0.10  -0.09     0.18   0.30  -0.20    -0.11   0.15   0.13
   6   6     0.14  -0.19  -0.16     0.08   0.29  -0.27     0.07  -0.09  -0.08
   7   8    -0.01   0.01   0.01     0.06   0.17  -0.15     0.00  -0.00  -0.00
   8   8     0.06  -0.08  -0.07    -0.30  -0.08  -0.15    -0.00   0.01   0.01
   9   1    -0.21   0.30   0.26    -0.02  -0.08   0.08    -0.18   0.24   0.21
  10   1    -0.13   0.18   0.15     0.11  -0.00   0.10     0.26  -0.36  -0.31
  11   7     0.04  -0.05  -0.04     0.11   0.03   0.06    -0.02   0.02   0.02
  12   1    -0.13   0.17   0.15     0.12   0.07   0.02     0.26  -0.36  -0.30
  13   8    -0.01   0.01   0.01    -0.01  -0.15   0.17     0.00  -0.00  -0.00
  14   1    -0.21   0.29   0.25     0.02   0.08  -0.08    -0.17   0.24   0.20
                     19                     20                     21
                        a                      a                      a 
 Frequencies --   923.3559               968.9789              1104.0643
 Red. masses --     3.5341                 8.6780                 3.7673
 Frc consts  --     0.0000                 0.0000                 0.0000
 IR Inten    --     0.0005                 0.9648                 6.3590
 Raman Activ --     0.0000                 0.0000                 0.0000
 Depolar     --     0.0000                 0.0000                 0.0000
 Atom AN      X      Y      Z        X      Y      Z        X      Y      Z
   1   6     0.00   0.00   0.00     0.03   0.01   0.01    -0.05  -0.21   0.21
   2   6     0.11  -0.15  -0.13     0.07   0.27  -0.26     0.08   0.15  -0.11
   3   6    -0.12   0.17   0.14    -0.03  -0.28   0.31    -0.04   0.07  -0.11
   4   6     0.00   0.00   0.00    -0.09  -0.02  -0.04    -0.03  -0.13   0.13
   5   6     0.12  -0.17  -0.14     0.10   0.30  -0.27     0.08   0.10  -0.05
   6   6    -0.11   0.15   0.13    -0.05  -0.26   0.27    -0.02   0.12  -0.16
   7   8    -0.00  -0.00   0.00     0.05   0.09  -0.06     0.02   0.02  -0.01
   8   8     0.00   0.00   0.00     0.02   0.00   0.01     0.00   0.02  -0.02
   9   1    -0.19   0.27   0.24    -0.15   0.12  -0.25     0.30  -0.02   0.28
  10   1     0.22  -0.30  -0.26    -0.14  -0.18   0.08    -0.39  -0.24  -0.04
  11   7     0.00  -0.00  -0.00     0.04   0.01   0.02    -0.00  -0.01   0.00
  12   1    -0.23   0.31   0.27    -0.08   0.11  -0.20     0.32  -0.04   0.32
  13   8     0.00   0.00  -0.00     0.02  -0.07   0.09    -0.01   0.01  -0.02
  14   1     0.20  -0.28  -0.24    -0.22  -0.22   0.07    -0.35  -0.20  -0.06
                     22                     23                     24
                        a                      a                      a 
 Frequencies --  1142.0970              1170.7661              1233.6253
 Red. masses --     8.4893                 5.1952                 5.0642
 Frc consts  --     0.0000                 0.0000                 0.0000
 IR Inten    --   118.3339               865.4974                21.1401
 Raman Activ --     0.0000                 0.0000                 0.0000
 Depolar     --     0.0000                 0.0000                 0.0000
 Atom AN      X      Y      Z        X      Y      Z        X      Y      Z
   1   6    -0.01  -0.00  -0.00     0.07   0.02   0.04     0.08   0.38  -0.38
   2   6     0.06   0.12  -0.09    -0.10  -0.07   0.00    -0.05  -0.06   0.03
   3   6     0.01   0.07  -0.07     0.11   0.07   0.01    -0.12  -0.09   0.00
   4   6    -0.43  -0.13  -0.22     0.18   0.05   0.09    -0.02  -0.08   0.08
   5   6    -0.02  -0.07   0.07     0.09  -0.01   0.09     0.09  -0.03   0.11
   6   6     0.01  -0.10   0.12    -0.08   0.02  -0.09     0.02  -0.04   0.06
   7   8     0.21   0.25  -0.12    -0.16  -0.17   0.07     0.01   0.01   0.00
   8   8     0.00   0.00   0.00    -0.12  -0.03  -0.06    -0.01  -0.05   0.05
   9   1    -0.02   0.04  -0.06    -0.35   0.05  -0.35     0.32  -0.09   0.38
  10   1     0.35   0.27  -0.02     0.25   0.17   0.01     0.20   0.14   0.01
  11   7    -0.15  -0.04  -0.08     0.23   0.07   0.12     0.00   0.01  -0.01
  12   1     0.28  -0.09   0.34     0.21  -0.04   0.23    -0.16   0.04  -0.18
  13   8     0.12  -0.16   0.28    -0.10   0.10  -0.20    -0.01   0.00  -0.01
  14   1    -0.04  -0.06   0.03    -0.42  -0.27  -0.04    -0.41  -0.30   0.00
                     25                     26                     27
                        a                      a                      a 
 Frequencies --  1301.7643              1322.2931              1377.6863
 Red. masses --     8.1215                11.0850                 9.7468
 Frc consts  --     0.0000                 0.0000                 0.0000
 IR Inten    --    12.3883              2702.2653              1378.0249
 Raman Activ --     0.0000                 0.0000                 0.0000
 Depolar     --     0.0000                 0.0000                 0.0000
 Atom AN      X      Y      Z        X      Y      Z        X      Y      Z
   1   6    -0.07  -0.34   0.33     0.08   0.02   0.04     0.24   0.07   0.12
   2   6    -0.06   0.18  -0.26    -0.08   0.07  -0.15     0.15  -0.05   0.19
   3   6    -0.04   0.01  -0.05    -0.07  -0.11   0.07     0.13   0.19  -0.11
   4   6    -0.07  -0.31   0.31    -0.31  -0.09  -0.16    -0.46  -0.13  -0.24
   5   6     0.05   0.04  -0.00    -0.03   0.08  -0.12     0.06  -0.14   0.21
   6   6     0.15   0.24  -0.15    -0.12  -0.13   0.05     0.19   0.15  -0.01
   7   8     0.04   0.03  -0.00    -0.16  -0.17   0.06     0.01   0.01  -0.01
   8   8     0.00   0.02  -0.02     0.03   0.01   0.02    -0.26  -0.07  -0.13
   9   1     0.05   0.03   0.00     0.20  -0.03   0.20    -0.11   0.02  -0.12
  10   1     0.33   0.25  -0.01     0.12   0.07   0.02    -0.27  -0.16  -0.04
  11   7     0.00   0.00  -0.00     0.57   0.17   0.29     0.19   0.05   0.10
  12   1    -0.26   0.08  -0.31     0.11  -0.01   0.10    -0.23   0.01  -0.21
  13   8    -0.03   0.01  -0.04    -0.11   0.09  -0.19     0.00  -0.01   0.01
  14   1    -0.04   0.01  -0.04     0.24   0.16   0.02    -0.13  -0.09  -0.00
                     28                     29                     30
                        a                      a                      a 
 Frequencies --  1429.0877              1482.4273              1524.2665
 Red. masses --    14.3746                11.7362                11.6190
 Frc consts  --     0.0000                 0.0000                 0.0000
 IR Inten    --   529.6088               136.8584                 6.5728
 Raman Activ --     0.0000                 0.0000                 0.0000
 Depolar     --     0.0000                 0.0000                 0.0000
 Atom AN      X      Y      Z        X      Y      Z        X      Y      Z
   1   6     0.01   0.06  -0.06    -0.04  -0.17   0.17     0.01   0.06  -0.06
   2   6     0.08  -0.02   0.10    -0.12   0.09  -0.21    -0.40  -0.11  -0.21
   3   6     0.01   0.07  -0.07    -0.11  -0.25   0.20     0.44   0.18   0.16
   4   6    -0.03  -0.11   0.11     0.10   0.47  -0.46    -0.01  -0.06   0.06
   5   6     0.02   0.07  -0.07     0.01  -0.22   0.26    -0.41  -0.06  -0.28
   6   6    -0.11  -0.08   0.00     0.18   0.18  -0.06     0.40   0.12   0.20
   7   8     0.22   0.29  -0.15     0.03   0.07  -0.05     0.02   0.02  -0.01
   8   8     0.00   0.00  -0.00     0.00   0.00  -0.00    -0.01  -0.03   0.03
   9   1    -0.03   0.01  -0.04     0.09  -0.01   0.09     0.01  -0.06   0.08
  10   1    -0.01   0.01  -0.02     0.05  -0.01   0.05    -0.04  -0.07   0.05
  11   7    -0.12  -0.54   0.53    -0.04  -0.19   0.19    -0.01  -0.05   0.05
  12   1     0.01   0.02  -0.01    -0.06  -0.04  -0.00     0.01  -0.05   0.08
  13   8    -0.12   0.20  -0.33    -0.00   0.06  -0.07    -0.01   0.01  -0.02
  14   1     0.04   0.03   0.00    -0.11  -0.07  -0.01    -0.04  -0.07   0.06
                     31                     32                     33
                        a                      a                      a 
 Frequencies --  1553.4786              1611.1828              3074.1469
 Red. masses --    12.6007                11.6341                 1.7712
 Frc consts  --     0.0000                 0.0000                 0.0000
 IR Inten    --   439.6411               284.5225                 0.0359
 Raman Activ --     0.0000                 0.0000                 0.0000
 Depolar     --     0.0000                 0.0000                 0.0000
 Atom AN      X      Y      Z        X      Y      Z        X      Y      Z
   1   6     0.64   0.18   0.33    -0.11  -0.03  -0.06    -0.00  -0.00   0.00
   2   6    -0.03   0.05  -0.08     0.40   0.08   0.25    -0.07  -0.08   0.04
   3   6    -0.14  -0.09  -0.01    -0.42  -0.17  -0.15    -0.05   0.07  -0.12
   4   6     0.20   0.06   0.10     0.07   0.02   0.03     0.00   0.01  -0.01
   5   6    -0.12   0.02  -0.12    -0.39  -0.06  -0.26     0.09   0.11  -0.05
   6   6    -0.05  -0.07   0.04     0.42   0.16   0.17     0.04  -0.05   0.09
   7   8     0.03   0.03  -0.01    -0.04  -0.04   0.02    -0.00  -0.00   0.00
   8   8    -0.43  -0.12  -0.22    -0.02  -0.01  -0.01     0.00   0.00  -0.00
   9   1     0.09  -0.00   0.08    -0.02   0.06  -0.08     0.24   0.31  -0.15
  10   1     0.07   0.05  -0.00     0.05   0.07  -0.04     0.17  -0.25   0.44
  11   7    -0.14  -0.04  -0.07     0.12   0.03   0.06     0.00   0.00  -0.00
  12   1     0.05  -0.02   0.06     0.02  -0.05   0.08    -0.31  -0.39   0.19
  13   8     0.02  -0.02   0.04    -0.02   0.03  -0.05    -0.00  -0.00   0.00
  14   1     0.11   0.06   0.02    -0.05  -0.08   0.05    -0.13   0.20  -0.35
                     34                     35                     36
                        a                      a                      a 
 Frequencies --  3075.9968              3085.8206              3089.6602
 Red. masses --     1.7638                 1.8864                 1.8847
 Frc consts  --     0.0000                 0.0000                 0.0000
 IR Inten    --    41.7013               170.9498                23.1932
 Raman Activ --     0.0000                 0.0000                 0.0000
 Depolar     --     0.0000                 0.0000                 0.0000
 Atom AN      X      Y      Z        X      Y      Z        X      Y      Z
   1   6    -0.01  -0.00  -0.00     0.00   0.00  -0.00    -0.01  -0.00  -0.01
   2   6    -0.07  -0.08   0.04     0.09   0.11  -0.05    -0.09  -0.11   0.05
   3   6    -0.05   0.07  -0.12    -0.04   0.06  -0.10     0.04  -0.06   0.10
   4   6    -0.01  -0.00  -0.00    -0.00  -0.00   0.00     0.01   0.00   0.00
   5   6    -0.09  -0.11   0.05     0.07   0.09  -0.04     0.07   0.09  -0.04
   6   6    -0.04   0.05  -0.09    -0.05   0.07  -0.13    -0.05   0.07  -0.13
   7   8    -0.00   0.00  -0.00     0.00  -0.00   0.00    -0.00  -0.00   0.00
   8   8     0.00   0.00   0.00    -0.00   0.00  -0.00     0.00   0.00   0.00
   9   1     0.24   0.31  -0.15    -0.31  -0.39   0.20     0.31   0.39  -0.20
  10   1     0.17  -0.26   0.44     0.13  -0.20   0.35    -0.13   0.20  -0.34
  11   7    -0.00  -0.00  -0.00     0.00   0.00  -0.00     0.00   0.00   0.00
  12   1     0.31   0.39  -0.20    -0.24  -0.31   0.15    -0.24  -0.30   0.15
  13   8    -0.00  -0.00   0.00    -0.00  -0.00   0.00    -0.00   0.00  -0.00
  14   1     0.13  -0.20   0.34     0.16  -0.25   0.44     0.16  -0.26   0.44
