14
 energy: -30.237741767118 gnorm: 0.000739711753 xtb: 6.7.1 (edcfbbe)
C           -2.06709635470143       -2.87798784147511        1.60502687998587
C           -2.54030725380675       -2.20394307936530        0.42095687661477
C           -3.70896322356916       -2.53952882538879       -0.17771606060226
C           -4.51343924955334       -3.57546924394845        0.34806585578656
C           -4.08703239707103       -4.25611753503691        1.51070267094306
C           -2.91930038242655       -3.92463032508979        2.11347765115033
O           -6.39583989931801       -4.83284606221868        0.21198697270169
O           -0.98300421144536       -2.57346856489637        2.15731924752299
H           -1.91896423534457       -1.41398049184982        0.02558233936302
H           -4.05697340721684       -2.03173957556065       -1.06566378713616
N           -5.68964968272614       -3.91488404990466       -0.26062209463245
H           -4.71983397103852       -5.04281525859368        1.89548883432026
O           -6.05851385386063       -3.30807836029140       -1.29015842250812
H           -2.58543099291325       -4.43995691690921        3.00198632117856
