14
 energy: -30.128668955134 gnorm: 0.253123237688 xtb: 6.7.1 (edcfbbe)
C           -2.04516100000000       -2.89836400000000        1.58920600000000
C           -2.44700100000000       -2.18295700000000        0.40347300000000
C           -3.70963800000000       -2.52780100000000       -0.23585900000000
C           -4.57685500000000       -3.58380000000000        0.32529700000000
C           -4.10290400000000       -4.31239000000000        1.51965900000000
C           -2.83899700000000       -3.96184700000000        2.15329400000000
O           -6.40096800000000       -4.98301100000000        0.11871000000000
O           -1.02462600000000       -2.52392400000000        2.19847600000000
H           -1.83880200000000       -1.37480300000000        0.01718700000000
H           -4.02055800000000       -1.95626100000000       -1.10018300000000
N           -5.95869500000000       -3.68195100000000       -0.08422200000000
H           -4.70935500000000       -5.08364100000000        1.97547100000000
O           -6.05104100000000       -3.39942300000000       -1.44114300000000
H           -2.51953900000000       -4.46556500000000        3.05680300000000
14
 energy: -30.200810619108 gnorm: 0.156515759366 xtb: 6.7.1 (edcfbbe)
C           -2.05757905854171       -2.88855222684669        1.59640207828840
C           -2.48509857957211       -2.20580233451788        0.39934588758896
C           -3.70576006828787       -2.51506477207887       -0.18690859573500
C           -4.52784199176473       -3.55401478757843        0.36655972714880
C           -4.09144580815766       -4.26543923014803        1.53485189550032
C           -2.87109830617238       -3.95777822310057        2.12258983737126
O           -6.45075428380887       -4.95745589702462        0.16192958496773
O           -1.01596855613711       -2.52749652286628        2.19676533253809
H           -1.86419477317519       -1.40651249982514        0.01169616942039
H           -4.02266916666221       -1.98017584090252       -1.07602945960695
N           -5.81819812646022       -3.80592784505156       -0.17862372317349
H           -4.70092268159776       -5.05979481819610        1.95268088900980
O           -6.09464303856926       -3.34613344165783       -1.42532808072289
H           -2.53796556109291       -4.46558956020548        3.02023745740459
14
 energy: -30.231380023379 gnorm: 0.083325867854 xtb: 6.7.1 (edcfbbe)
C           -2.07066416168189       -2.88518101438248        1.59690089689229
C           -2.54067478612234       -2.22939237622372        0.39701240735929
C           -3.71452654852668       -2.52186554774727       -0.15349586320813
C           -4.53710472892399       -3.51655055927371        0.40264124377864
C           -4.09093718027743       -4.23119789467623        1.52761048314721
C           -2.91919373941407       -3.94818228376824        2.08749959818362
O           -6.38089577886458       -4.88917473157620        0.17360266690396
O           -1.00671676927723       -2.54550267900575        2.18045047125085
H           -1.89523947070033       -1.44902717317436        0.00401797107875
H           -4.04426982588975       -2.00409610127848       -1.04876021528093
N           -5.73359490226809       -3.87125515505269       -0.22596503524121
H           -4.71040862591180       -5.02857738021664        1.92595959983526
O           -6.04014336154026       -3.34918365200726       -1.34318864167943
H           -2.55977012060154       -4.46655145161696        2.97188341697981
14
 energy: -30.236917260446 gnorm: 0.024280077817 xtb: 6.7.1 (edcfbbe)
C           -2.06224352929228       -2.87600309269675        1.60813800509941
C           -2.53954751529695       -2.21808987342739        0.41292692439796
C           -3.72636911627298       -2.52309166857392       -0.15529923380789
C           -4.53061310594849       -3.55333722122731        0.36675987271696
C           -4.10237405028628       -4.23028606348489        1.52397131242234
C           -2.91716425215457       -3.93278122121471        2.09950185048586
O           -6.38599766956625       -4.85863595280480        0.18654526705641
O           -0.99024568675841       -2.55197332507927        2.17753312352414
H           -1.88902061375703       -1.45259216949417        0.00693702836965
H           -4.07371063462140       -2.00996378611244       -1.04339142532172
N           -5.68963675206300       -3.91191546149609       -0.25749484488905
H           -4.73586795108915       -5.01705967624526        1.91421158717446
O           -6.04899236003566       -3.33493526426487       -1.31409173832337
H           -2.55235676285755       -4.46507322387811        2.96992127109484
14
 energy: -30.237501287267 gnorm: 0.006916150787 xtb: 6.7.1 (edcfbbe)
C           -2.06199967093765       -2.88372168147463        1.60034043625982
C           -2.53881326605204       -2.21010681015369        0.41559372711899
C           -3.72115895277686       -2.52695858367674       -0.16781789242588
C           -4.53550579207086       -3.54813829791844        0.37098893859149
C           -4.09932690497521       -4.24362758566470        1.52092370602725
C           -2.91768232123627       -3.93020372371925        2.10763353955906
O           -6.37664161103697       -4.85166495870791        0.19980848076989
O           -0.98514154790612       -2.56962476969510        2.16069815043964
H           -1.90514447647510       -1.43345882787167        0.01459184944962
H           -4.07164707307891       -2.01565752746888       -1.05338356419515
N           -5.68717253690639       -3.91777341623232       -0.26287156741295
H           -4.73478435061752       -5.02735414848716        1.90878472842885
O           -6.03891125338818       -3.32359147222727       -1.30461249611202
H           -2.57021024254192       -4.45385619670223        2.98549096350138
14
 energy: -30.237612686283 gnorm: 0.013476949588 xtb: 6.7.1 (edcfbbe)
C           -2.06858123745934       -2.87808527802665        1.60459938567486
C           -2.53943620437398       -2.20347040182039        0.41985110711381
C           -3.70960417246622       -2.53730913840854       -0.17810928405529
C           -4.52104527049016       -3.56712328728254        0.35484933381405
C           -4.08826299752917       -4.25634571418803        1.51273334684075
C           -2.91878118526096       -3.92597431012779        2.11400255165991
O           -6.39294169731923       -4.83805805163228        0.20725769935155
O           -0.98515679061240       -2.57290842397210        2.15741796633080
H           -1.91512551254490       -1.41975577178604        0.02024403182003
H           -4.06196383266492       -2.02460444827464       -1.06072939282935
N           -5.68141114686582       -3.91521868304248       -0.25927415513167
H           -4.72510865237464       -5.03688817808966        1.90159748759329
O           -6.05526142431309       -3.31379706615701       -1.29504745957880
H           -2.58145987572517       -4.44619924719184        2.99677638139608
14
 energy: -30.237695996185 gnorm: 0.004966367397 xtb: 6.7.1 (edcfbbe)
C           -2.06813000000738       -2.87843092461146        1.60433575237406
C           -2.54105862182998       -2.20105300483448        0.42227486714638
C           -3.71461983992806       -2.52978618007919       -0.17011879678654
C           -4.52240740102379       -3.56524932256958        0.35661301610539
C           -4.09283944282580       -4.24752836067572        1.51940391027610
C           -2.92046129350996       -3.92294510286576        2.11642720881339
O           -6.38813483256592       -4.84346591147883        0.20155594794993
O           -0.97608978311129       -2.58305005126118        2.14903933125894
H           -1.91441956562029       -1.42013684331434        0.01850147910000
H           -4.06117331686800       -2.02538543158969       -1.06042749942302
N           -5.68680556200500       -3.91730610845956       -0.26188566234835
H           -4.72422018944404       -5.03649726136020        1.90147093297599
O           -6.05228806968747       -3.31760548481343       -1.29817716483388
H           -2.58149208157302       -4.44729801208658        2.99715567739161
14
 energy: -30.237715200838 gnorm: 0.004344032916 xtb: 6.7.1 (edcfbbe)
C           -2.06490946064622       -2.88165068259577        1.60181878163913
C           -2.54088772119896       -2.20263573856839        0.42191276906821
C           -3.71302198781625       -2.53307380904959       -0.17205330845904
C           -4.51987375203263       -3.56712631156480        0.35469758294154
C           -4.09130734723061       -4.24941610740751        1.51602491429096
C           -2.91965349755090       -3.92423490980599        2.11388842683103
O           -6.39134940792104       -4.83941462842877        0.20807624104838
O           -0.97736201169767       -2.58186954568702        2.15032832401279
H           -1.91803666530282       -1.41578008297081        0.02356018403538
H           -4.06216569548001       -2.02520941668403       -1.05927613210361
N           -5.68738164914420       -3.91569695201600       -0.26262837977714
H           -4.72448182893333       -5.03614743886905        1.89979477166718
O           -6.04991937088995       -3.31971491781374       -1.29884367394579
H           -2.58378960415542       -4.44376745853852        2.99886849875097
14
 energy: -30.237686620139 gnorm: 0.008657663608 xtb: 6.7.1 (edcfbbe)
C           -2.06235965287360       -2.88361496156504        1.60028899026305
C           -2.54000330104060       -2.20656517469322        0.41989139511663
C           -3.71009108254598       -2.54029019600231       -0.17655914301935
C           -4.51471475656283       -3.57318606151014        0.35105733985022
C           -4.08729449102914       -4.25517034411111        1.51065976960480
C           -2.91925587552584       -3.92428300420476        2.11261922299102
O           -6.38682810177412       -4.84155773843438        0.20347235062362
O           -0.97949393624820       -2.57871003474155        2.15217577325228
H           -1.92140988892392       -1.41312702705592        0.02707686680507
H           -4.06222289359660       -2.02883677040839       -1.06059370382264
N           -5.68846060790999       -3.91748718453321       -0.25938610314037
H           -4.72507848645438       -5.03509202223789        1.90019366130997
O           -6.05776122158091       -3.30335019831771       -1.29021064967067
H           -2.58916570393390       -4.43446728218438        3.00548322983638
14
 energy: -30.237735401101 gnorm: 0.001089238061 xtb: 6.7.1 (edcfbbe)
C           -2.06622427645737       -2.87936583864078        1.60380907806657
C           -2.54073030746739       -2.20342142300076        0.42156327667275
C           -3.71053388718954       -2.53734698978551       -0.17575550576563
C           -4.51533825980742       -3.57262560294624        0.35057717720110
C           -4.08855784463704       -4.25388491676623        1.51259418706715
C           -2.91971229687200       -3.92388283335838        2.11396462543062
O           -6.39205537208930       -4.83746506589367        0.20851873384669
O           -0.97787234174735       -2.58056386809274        2.15123929109910
H           -1.91969624473210       -1.41366934866611        0.02542986442691
H           -4.06076858587239       -2.02770698860722       -1.06160499278898
N           -5.68799343113318       -3.91638876587633       -0.26162590988219
H           -4.72347643233971       -5.03791858066499        1.89891137788524
O           -6.05489312527426       -3.31169283653087       -1.29366864968661
H           -2.58628759438096       -4.43980494117017        3.00221644642729
14
 energy: -30.237737441287 gnorm: 0.001407445659 xtb: 6.7.1 (edcfbbe)
C           -2.06566675970157       -2.87989079827925        1.60341150775477
C           -2.54066325770700       -2.20311922540896        0.42170076530714
C           -3.71011784937586       -2.53749840527614       -0.17598924455785
C           -4.51447201871512       -3.57410867421082        0.34919724219108
C           -4.08822250644606       -4.25414681836830        1.51249450094457
C           -2.91964298247763       -3.92385876723827        2.11418604992499
O           -6.39469956103400       -4.83486122491827        0.20995633935396
O           -0.98028432345970       -2.57740064917962        2.15395128621268
H           -1.91954848018887       -1.41325662401604        0.02592306140060
H           -4.05803415214794       -2.03032328347148       -1.06437398985240
N           -5.68866952013058       -3.91567966627325       -0.26130500143954
H           -4.72085270473386       -5.04135565119151        1.89663836521965
O           -6.05724360549894       -3.31065356254283       -1.29210736689428
H           -2.58602227838288       -4.43958464962524        3.00248548443463
14
 energy: -30.237741767061 gnorm: 0.000739789732 xtb: 6.7.1 (edcfbbe)
C           -2.06708688815213       -2.87800146601025        1.60501464144352
C           -2.54029718335418       -2.20395711504228        0.42094416267719
C           -3.70894930620781       -2.53954793524050       -0.17773343962635
C           -4.51342174332983       -3.57549348366866        0.34804386056185
C           -4.08701538535793       -4.25614157127234        1.51068097621117
C           -2.91928721048115       -3.92464929914765        2.11346061112647
O           -6.39581533444269       -4.83287992063257        0.21195621212942
O           -0.98299826724078       -2.57347747708159        2.15731132466264
H           -1.91895692102125       -1.41399058413944        0.02557317306079
H           -4.05695904910461       -2.03175895783390       -1.06568149469122
N           -5.68962827458580       -3.91491338587508       -0.26064878799661
H           -4.71981418333034       -5.04284327973311        1.89546355765329
O           -6.05849202918041       -3.30810783075723       -1.29018534438203
H           -2.58541822421109       -4.43997569356540        3.00196954716985
