
                                 *****************
                                 * O   R   C   A *
                                 *****************

                                            #,                                       
                                            ###                                      
                                            ####                                     
                                            #####                                    
                                            ######                                   
                                           ########,                                 
                                     ,,################,,,,,                         
                               ,,#################################,,                 
                          ,,##########################################,,             
                       ,#########################################, ''#####,          
                    ,#############################################,,   '####,        
                  ,##################################################,,,,####,       
                ,###########''''           ''''###############################       
              ,#####''   ,,,,##########,,,,          '''####'''          '####       
            ,##' ,,,,###########################,,,                        '##       
           ' ,,###''''                  '''############,,,                           
         ,,##''                                '''############,,,,        ,,,,,,###''
      ,#''                                            '''#######################'''  
     '                                                          ''''####''''         
             ,#######,   #######,   ,#######,      ##                                
            ,#'     '#,  ##    ##  ,#'     '#,    #''#        ######   ,####,        
            ##       ##  ##   ,#'  ##            #'  '#       #        #'  '#        
            ##       ##  #######   ##           ,######,      #####,   #    #        
            '#,     ,#'  ##    ##  '#,     ,#' ,#      #,         ##   #,  ,#        
             '#######'   ##     ##  '#######'  #'      '#     #####' # '####'        



                  #######################################################
                  #                        -***-                        #
                  #          Department of theory and spectroscopy      #
                  #    Directorship and core code : Frank Neese         #
                  #        Max Planck Institute fuer Kohlenforschung    #
                  #                Kaiser Wilhelm Platz 1               #
                  #                 D-45470 Muelheim/Ruhr               #
                  #                      Germany                        #
                  #                                                     #
                  #                  All rights reserved                #
                  #                        -***-                        #
                  #######################################################


                         Program Version 5.0.4 -  RELEASE  -


 With contributions from (in alphabetic order):
   Daniel Aravena         : Magnetic Suceptibility
   Michael Atanasov       : Ab Initio Ligand Field Theory (pilot matlab implementation)
   Alexander A. Auer      : GIAO ZORA, VPT2 properties, NMR spectrum
   Ute Becker             : Parallelization
   Giovanni Bistoni       : ED, misc. LED, open-shell LED, HFLD
   Martin Brehm           : Molecular dynamics
   Dmytro Bykov           : SCF Hessian
   Vijay G. Chilkuri      : MRCI spin determinant printing, contributions to CSF-ICE
   Dipayan Datta          : RHF DLPNO-CCSD density
   Achintya Kumar Dutta   : EOM-CC, STEOM-CC
   Dmitry Ganyushin       : Spin-Orbit,Spin-Spin,Magnetic field MRCI
   Miquel Garcia          : C-PCM and meta-GGA Hessian, CC/C-PCM, Gaussian charge scheme
   Yang Guo               : DLPNO-NEVPT2, F12-NEVPT2, CIM, IAO-localization
   Andreas Hansen         : Spin unrestricted coupled pair/coupled cluster methods
   Benjamin Helmich-Paris : MC-RPA, TRAH-SCF, COSX integrals
   Lee Huntington         : MR-EOM, pCC
   Robert Izsak           : Overlap fitted RIJCOSX, COSX-SCS-MP3, EOM
   Marcus Kettner         : VPT2
   Christian Kollmar      : KDIIS, OOCD, Brueckner-CCSD(T), CCSD density, CASPT2, CASPT2-K
   Simone Kossmann        : Meta GGA functionals, TD-DFT gradient, OOMP2, MP2 Hessian
   Martin Krupicka        : Initial AUTO-CI
   Lucas Lang             : DCDCAS
   Marvin Lechner         : AUTO-CI (C++ implementation), FIC-MRCC
   Dagmar Lenk            : GEPOL surface, SMD
   Dimitrios Liakos       : Extrapolation schemes; Compound Job, initial MDCI parallelization
   Dimitrios Manganas     : Further ROCIS development; embedding schemes
   Dimitrios Pantazis     : SARC Basis sets
   Anastasios Papadopoulos: AUTO-CI, single reference methods and gradients
   Taras Petrenko         : DFT Hessian,TD-DFT gradient, ASA, ECA, R-Raman, ABS, FL, XAS/XES, NRVS
   Peter Pinski           : DLPNO-MP2, DLPNO-MP2 Gradient
   Christoph Reimann      : Effective Core Potentials
   Marius Retegan         : Local ZFS, SOC
   Christoph Riplinger    : Optimizer, TS searches, QM/MM, DLPNO-CCSD(T), (RO)-DLPNO pert. Triples
   Tobias Risthaus        : Range-separated hybrids, TD-DFT gradient, RPA, STAB
   Michael Roemelt        : Original ROCIS implementation
   Masaaki Saitow         : Open-shell DLPNO-CCSD energy and density
   Barbara Sandhoefer     : DKH picture change effects
   Avijit Sen             : IP-ROCIS
   Kantharuban Sivalingam : CASSCF convergence, NEVPT2, FIC-MRCI
   Bernardo de Souza      : ESD, SOC TD-DFT
   Georgi Stoychev        : AutoAux, RI-MP2 NMR, DLPNO-MP2 response
   Willem Van den Heuvel  : Paramagnetic NMR
   Boris Wezisla          : Elementary symmetry handling
   Frank Wennmohs         : Technical directorship


 We gratefully acknowledge several colleagues who have allowed us to
 interface, adapt or use parts of their codes:
   Stefan Grimme, W. Hujo, H. Kruse, P. Pracht,  : VdW corrections, initial TS optimization,
                  C. Bannwarth, S. Ehlert          DFT functionals, gCP, sTDA/sTD-DF
   Ed Valeev, F. Pavosevic, A. Kumar             : LibInt (2-el integral package), F12 methods
   Garnet Chan, S. Sharma, J. Yang, R. Olivares  : DMRG
   Ulf Ekstrom                                   : XCFun DFT Library
   Mihaly Kallay                                 : mrcc  (arbitrary order and MRCC methods)
   Jiri Pittner, Ondrej Demel                    : Mk-CCSD
   Frank Weinhold                                : gennbo (NPA and NBO analysis)
   Christopher J. Cramer and Donald G. Truhlar   : smd solvation model
   Lars Goerigk                                  : TD-DFT with DH, B97 family of functionals
   V. Asgeirsson, H. Jonsson                     : NEB implementation
   FAccTs GmbH                                   : IRC, NEB, NEB-TS, DLPNO-Multilevel, CI-OPT
                                                   MM, QMMM, 2- and 3-layer-ONIOM, Crystal-QMMM,
                                                   LR-CPCM, SF, NACMEs, symmetry and pop. for TD-DFT,
                                                   nearIR, NL-DFT gradient (VV10), updates on ESD,
                                                   ML-optimized integration grids
   S Lehtola, MJT Oliveira, MAL Marques          : LibXC Library
   Liviu Ungur et al                             : ANISO software


 Your calculation uses the libint2 library for the computation of 2-el integrals
 For citations please refer to: http://libint.valeyev.net

 Your ORCA version has been built with support for libXC version: 5.1.0
 For citations please refer to: https://tddft.org/programs/libxc/

 This ORCA versions uses:
   CBLAS   interface :  Fast vector & matrix operations
   LAPACKE interface :  Fast linear algebra routines
   SCALAPACK package :  Parallel linear algebra routines
   Shared memory     :  Shared parallel matrices
   BLAS/LAPACK       :  OpenBLAS 0.3.15  USE64BITINT DYNAMIC_ARCH NO_AFFINITY Haswell SINGLE_THREADED
        Core in use  :  Haswell
   Copyright (c) 2011-2014, The OpenBLAS Project


Your calculation utilizes the atom-pairwise dispersion correction
with the Becke-Johnson damping scheme (D3BJ)
Cite in your paper:
S.Grimme, S.Ehrlich, L.Goerigk, J Comput Chem, (2011), 32, 1456–1465 
S.Grimme, J.Antony, S.Ehrlich and H.Krieg, J.Chem.Phys., 132, (2010), 154104 
   

================================================================================

----- Orbital basis set information -----
Your calculation utilizes the basis: def2-TZVP
   F. Weigend and R. Ahlrichs, Phys. Chem. Chem. Phys. 7, 3297 (2005).

----- AuxJ basis set information -----
Your calculation utilizes the auxiliary basis: def2/J
   F. Weigend, Phys. Chem. Chem. Phys. 8, 1057 (2006).

================================================================================
                                        WARNINGS
                       Please study these warnings very carefully!
================================================================================


WARNING: Geometry Optimization
  ===> : Switching off AutoStart
         For restart on a previous wavefunction, please use MOREAD

INFO   : the flag for use of the SHARK integral package has been found!

================================================================================
                                       INPUT FILE
================================================================================
NAME = inp.inp
|  1> !OPT PBE D3BJ def2-TZVP CPCM(water)
|  2> 
|  3> *xyz -1 1
|  4> C     -3.388817   -4.189429   -2.962457
|  5> C     -4.203620   -2.927800   -2.578216
|  6> O     -3.379849   -2.125768   -1.921383
|  7> H     -5.096893   -3.298751   -2.050349
|  8> H     -4.646623   -2.559942   -3.517560
|  9> C     -4.236954   -5.189377   -3.740434
| 10> H     -2.521123   -3.918193   -3.580081
| 11> H     -3.002226   -4.689051   -2.063311
| 12> H     -4.603110   -4.750488   -4.673975
| 13> H     -3.643083   -6.073935   -3.991460
| 14> H     -5.099490   -5.515780   -3.150608
| 15> *
| 16> 
| 17>                          ****END OF INPUT****
================================================================================

                       *****************************
                       * Geometry Optimization Run *
                       *****************************

Geometry optimization settings:
Update method            Update   .... BFGS
Choice of coordinates    CoordSys .... Z-matrix Internals
Initial Hessian          InHess   .... Almoef's Model

Convergence Tolerances:
Energy Change            TolE     ....  5.0000e-06 Eh
Max. Gradient            TolMAXG  ....  3.0000e-04 Eh/bohr
RMS Gradient             TolRMSG  ....  1.0000e-04 Eh/bohr
Max. Displacement        TolMAXD  ....  4.0000e-03 bohr
RMS Displacement         TolRMSD  ....  2.0000e-03 bohr
Strict Convergence                ....  False
------------------------------------------------------------------------------
                        ORCA OPTIMIZATION COORDINATE SETUP
------------------------------------------------------------------------------

The optimization will be done in new redundant internal coordinates
Making redundant internal coordinates   ...  (new redundants) done
Evaluating the initial hessian          ...  (Almloef) done
Evaluating the coordinates              ...  done
Calculating the B-matrix                .... done
Calculating the G-matrix                .... done
Diagonalizing the G-matrix              .... done
The first mode is                       ....   19
The number of degrees of freedom        ....   27

    -----------------------------------------------------------------
                    Redundant Internal Coordinates


    -----------------------------------------------------------------
         Definition                    Initial Value    Approx d2E/dq
    -----------------------------------------------------------------
      1. B(C   1,C   0)                  1.5502         0.346802   
      2. B(O   2,C   1)                  1.3241         0.712835   
      3. B(H   3,C   1)                  1.1019         0.344696   
      4. B(H   4,C   1)                  1.1018         0.344838   
      5. B(C   5,C   0)                  1.5246         0.381025   
      6. B(H   6,C   0)                  1.0991         0.348319   
      7. B(H   7,C   0)                  1.0989         0.348542   
      8. B(H   8,C   5)                  1.0946         0.354040   
      9. B(H   9,C   5)                  1.0946         0.354072   
     10. B(H  10,C   5)                  1.0947         0.353916   
     11. A(C   1,C   0,H   7)          110.6169         0.318689   
     12. A(C   5,C   0,H   6)          108.3183         0.323600   
     13. A(H   6,C   0,H   7)          107.1142         0.287852   
     14. A(C   5,C   0,H   7)          108.3628         0.323634   
     15. A(C   1,C   0,C   5)          111.5831         0.359981   
     16. A(C   1,C   0,H   6)          110.6952         0.318656   
     17. A(H   3,C   1,H   4)          101.2371         0.286903   
     18. A(O   2,C   1,H   3)          118.0742         0.356475   
     19. A(O   2,C   1,H   4)          118.0882         0.356500   
     20. A(C   0,C   1,O   2)          106.7925         0.398686   
     21. A(C   0,C   1,H   4)          105.7672         0.318134   
     22. A(C   0,C   1,H   3)          105.7148         0.318113   
     23. A(H   8,C   5,H   9)          108.0541         0.289299   
     24. A(C   0,C   5,H   9)          110.1953         0.324471   
     25. A(C   0,C   5,H   8)          110.9957         0.324467   
     26. A(H   9,C   5,H  10)          108.0648         0.289283   
     27. A(H   8,C   5,H  10)          108.3908         0.289279   
     28. A(C   0,C   5,H  10)          111.0344         0.324448   
     29. D(H   4,C   1,C   0,C   5)    -52.9093         0.009705   
     30. D(H   3,C   1,C   0,C   5)     53.9364         0.009705   
     31. D(H   4,C   1,C   0,H   7)   -173.6261         0.009705   
     32. D(H   4,C   1,C   0,H   6)     67.8045         0.009705   
     33. D(O   2,C   1,C   0,H   7)     59.7731         0.009705   
     34. D(H   3,C   1,C   0,H   7)    -66.7804         0.009705   
     35. D(O   2,C   1,C   0,H   6)    -58.7963         0.009705   
     36. D(O   2,C   1,C   0,C   5)   -179.5101         0.009705   
     37. D(H   3,C   1,C   0,H   6)    174.6502         0.009705   
     38. D(H   9,C   5,C   0,H   6)     58.4432         0.011568   
     39. D(H   9,C   5,C   0,C   1)   -179.4636         0.011568   
     40. D(H   8,C   5,C   0,H   7)   -177.0991         0.011568   
     41. D(H   8,C   5,C   0,H   6)    -61.2177         0.011568   
     42. D(H   9,C   5,C   0,H   7)    -57.4383         0.011568   
     43. D(H   8,C   5,C   0,C   1)     60.8755         0.011568   
     44. D(H  10,C   5,C   0,H   7)     62.2609         0.011568   
     45. D(H  10,C   5,C   0,H   6)    178.1424         0.011568   
     46. D(H  10,C   5,C   0,C   1)    -59.7645         0.011568   
    -----------------------------------------------------------------

Number of atoms                         .... 11
Number of degrees of freedom            .... 46

         *************************************************************
         *                GEOMETRY OPTIMIZATION CYCLE   1            *
         *************************************************************
---------------------------------
CARTESIAN COORDINATES (ANGSTROEM)
---------------------------------
  C     -3.388817   -4.189429   -2.962457
  C     -4.203620   -2.927800   -2.578216
  O     -3.379849   -2.125768   -1.921383
  H     -5.096893   -3.298751   -2.050349
  H     -4.646623   -2.559942   -3.517560
  C     -4.236954   -5.189377   -3.740434
  H     -2.521123   -3.918193   -3.580081
  H     -3.002226   -4.689051   -2.063311
  H     -4.603110   -4.750488   -4.673975
  H     -3.643083   -6.073935   -3.991460
  H     -5.099490   -5.515780   -3.150608

----------------------------
CARTESIAN COORDINATES (A.U.)
----------------------------
  NO LB      ZA    FRAG     MASS         X           Y           Z
   0 C     6.0000    0    12.011   -6.403936   -7.916873   -5.598232
   1 C     6.0000    0    12.011   -7.943691   -5.532740   -4.872122
   2 O     8.0000    0    15.999   -6.386989   -4.017119   -3.630888
   3 H     1.0000    0     1.008   -9.631732   -6.233736   -3.874598
   4 H     1.0000    0     1.008   -8.780845   -4.837589   -6.647225
   5 C     6.0000    0    12.011   -8.006683   -9.806501   -7.068396
   6 H     1.0000    0     1.008   -4.764232   -7.404312   -6.765373
   7 H     1.0000    0     1.008   -5.673385   -8.861022   -3.899093
   8 H     1.0000    0     1.008   -8.698617   -8.977121   -8.832533
   9 H     1.0000    0     1.008   -6.884429  -11.478074   -7.542766
  10 H     1.0000    0     1.008   -9.636640  -10.423314   -5.953786

--------------------------------
INTERNAL COORDINATES (ANGSTROEM)
--------------------------------
 C      0   0   0     0.000000000000     0.00000000     0.00000000
 C      1   0   0     1.550242822441     0.00000000     0.00000000
 O      2   1   0     1.324116150250   106.79247469     0.00000000
 H      2   1   3     1.101900570205   105.71476637   233.44655062
 H      2   1   3     1.101788689590   105.76724852   126.60083937
 C      1   2   3     1.524624736124   111.58312980   180.48987949
 H      1   2   3     1.099054707787   110.69517948   301.20366999
 H      1   2   3     1.098880463691   110.61692455    59.77309486
 H      6   1   2     1.094619828679   110.99569730    60.87552061
 H      6   1   2     1.094595666299   110.19525927   180.53639719
 H      6   1   2     1.094715479009   111.03444728   300.23553208

---------------------------
INTERNAL COORDINATES (A.U.)
---------------------------
 C      0   0   0     0.000000000000     0.00000000     0.00000000
 C      1   0   0     2.929534375491     0.00000000     0.00000000
 O      2   1   0     2.502216893475   106.79247469     0.00000000
 H      2   1   3     2.082290304500   105.71476637   233.44655062
 H      2   1   3     2.082078880778   105.76724852   126.60083937
 C      1   2   3     2.881123208277   111.58312980   180.48987949
 H      1   2   3     2.076912403914   110.69517948   301.20366999
 H      1   2   3     2.076583130292   110.61692455    59.77309486
 H      6   1   2     2.068531696964   110.99569730    60.87552061
 H      6   1   2     2.068486036683   110.19525927   180.53639719
 H      6   1   2     2.068712449891   111.03444728   300.23553208

---------------------
BASIS SET INFORMATION
---------------------
There are 3 groups of distinct atoms

 Group   1 Type C   : 11s6p2d1f contracted to 5s3p2d1f pattern {62111/411/11/1}
 Group   2 Type O   : 11s6p2d1f contracted to 5s3p2d1f pattern {62111/411/11/1}
 Group   3 Type H   : 5s1p contracted to 3s1p pattern {311/1}

Atom   0C    basis set group =>   1
Atom   1C    basis set group =>   1
Atom   2O    basis set group =>   2
Atom   3H    basis set group =>   3
Atom   4H    basis set group =>   3
Atom   5C    basis set group =>   1
Atom   6H    basis set group =>   3
Atom   7H    basis set group =>   3
Atom   8H    basis set group =>   3
Atom   9H    basis set group =>   3
Atom  10H    basis set group =>   3
---------------------------------
AUXILIARY/J BASIS SET INFORMATION
---------------------------------
There are 3 groups of distinct atoms

 Group   1 Type C   : 12s5p4d2f1g contracted to 6s4p3d1f1g pattern {711111/2111/211/2/1}
 Group   2 Type O   : 12s5p4d2f1g contracted to 6s4p3d1f1g pattern {711111/2111/211/2/1}
 Group   3 Type H   : 5s2p1d contracted to 3s1p1d pattern {311/2/1}

Atom   0C    basis set group =>   1
Atom   1C    basis set group =>   1
Atom   2O    basis set group =>   2
Atom   3H    basis set group =>   3
Atom   4H    basis set group =>   3
Atom   5C    basis set group =>   1
Atom   6H    basis set group =>   3
Atom   7H    basis set group =>   3
Atom   8H    basis set group =>   3
Atom   9H    basis set group =>   3
Atom  10H    basis set group =>   3
------------------------------------------------------------------------------
                           ORCA GTO INTEGRAL CALCULATION
                           -- RI-GTO INTEGRALS CHOSEN --
------------------------------------------------------------------------------
------------------------------------------------------------------------------
                   ___                                                        
                  /   \      - P O W E R E D   B Y -                         
                 /     \                                                     
                 |  |  |   _    _      __       _____    __    __             
                 |  |  |  | |  | |    /  \     |  _  \  |  |  /  |          
                  \  \/   | |  | |   /    \    | | | |  |  | /  /          
                 / \  \   | |__| |  /  /\  \   | |_| |  |  |/  /          
                |  |  |   |  __  | /  /__\  \  |    /   |      \           
                |  |  |   | |  | | |   __   |  |    \   |  |\   \          
                \     /   | |  | | |  |  |  |  | |\  \  |  | \   \       
                 \___/    |_|  |_| |__|  |__|  |_| \__\ |__|  \__/        
                                                                              
                      - O R C A' S   B I G   F R I E N D -                    
                                      &                                       
                       - I N T E G R A L  F E E D E R -                       
                                                                              
 v1 FN, 2020, v2 2021                                                         
------------------------------------------------------------------------------


Reading SHARK input file inp.SHARKINP.tmp ... ok
----------------------
SHARK INTEGRAL PACKAGE
----------------------

Number of atoms                             ...     11
Number of basis functions                   ...    166
Number of shells                            ...     72
Maximum angular momentum                    ...      3
Integral batch strategy                     ... SHARK/LIBINT Hybrid
RI-J (if used) integral strategy            ... SPLIT-RIJ (Revised 2003 algorithm where possible)
Printlevel                                  ...      1
Contraction scheme used                     ... SEGMENTED contraction
Coulomb Range Separation                    ... NOT USED
Exchange Range Separation                   ... NOT USED
Finite Nucleus Model                        ... NOT USED
Auxiliary Coulomb fitting basis             ... AVAILABLE
   # of basis functions in Aux-J            ...    273
   # of shells in Aux-J                     ...     95
   Maximum angular momentum in Aux-J        ...      4
Auxiliary J/K fitting basis                 ... NOT available
Auxiliary Correlation fitting basis         ... NOT available
Auxiliary 'external' fitting basis          ... NOT available
Integral threshold                          ...     2.500000e-11
Primitive cut-off                           ...     2.500000e-12
Primitive pair pre-selection threshold      ...     2.500000e-12

Calculating pre-screening integrals         ... done (  0.0 sec) Dimension = 72
Organizing shell pair data                  ... done (  0.1 sec)
Shell pair information
Total number of shell pairs                 ...      2628
Shell pairs after pre-screening             ...      2553
Total number of primitive shell pairs       ...      7612
Primitive shell pairs kept                  ...      6091
          la=0 lb=0:    824 shell pairs
          la=1 lb=0:    764 shell pairs
          la=1 lb=1:    188 shell pairs
          la=2 lb=0:    319 shell pairs
          la=2 lb=1:    149 shell pairs
          la=2 lb=2:     35 shell pairs
          la=3 lb=0:    157 shell pairs
          la=3 lb=1:     75 shell pairs
          la=3 lb=2:     32 shell pairs
          la=3 lb=3:     10 shell pairs

Calculating one electron integrals          ... done (  0.0 sec)
Calculating RI/J V-Matrix + Cholesky decomp.... done (  0.2 sec)
Calculating Nuclear repulsion               ... done (  0.0 sec) ENN=    123.334111999689 Eh

SHARK setup successfully completed in   1.2 seconds

Maximum memory used throughout the entire GTOINT-calculation: 31.9 MB
-------------------------------------------------------------------------------
                                 ORCA SCF
-------------------------------------------------------------------------------

------------
SCF SETTINGS
------------
Hamiltonian:
 Density Functional     Method          .... DFT(GTOs)
 Exchange Functional    Exchange        .... PBE
   PBE kappa parameter   XKappa         ....  0.804000
   PBE mue parameter    XMuePBE         ....  0.219520
 Correlation Functional Correlation     .... PBE
   PBE beta parameter  CBetaPBE         ....  0.066725
 LDA part of GGA corr.  LDAOpt          .... PW91-LDA
 Gradients option       PostSCFGGA      .... off
   Density functional embedding theory  .... OFF
   NL short-range parameter             ....  6.400000
 RI-approximation to the Coulomb term is turned on
   Number of AuxJ basis functions       .... 273


General Settings:
 Integral files         IntName         .... inp
 Hartree-Fock type      HFTyp           .... RHF
 Total Charge           Charge          ....   -1
 Multiplicity           Mult            ....    1
 Number of Electrons    NEL             ....   34
 Basis Dimension        Dim             ....  166
 Nuclear Repulsion      ENuc            ....    123.3341119997 Eh

Convergence Acceleration:
 DIIS                   CNVDIIS         .... on
   Start iteration      DIISMaxIt       ....    12
   Startup error        DIISStart       ....  0.200000
   # of expansion vecs  DIISMaxEq       ....     5
   Bias factor          DIISBfac        ....   1.050
   Max. coefficient     DIISMaxC        ....  10.000
 Trust-Rad. Augm. Hess. CNVTRAH         .... auto
   Auto Start mean grad. ratio tolernc. ....  1.125000
   Auto Start start iteration           ....    20
   Auto Start num. interpolation iter.  ....    10
   Max. Number of Micro iterations      ....    16
   Max. Number of Macro iterations      .... Maxiter - #DIIS iter
   Number of Davidson start vectors     ....     2
   Converg. threshold I  (grad. norm)   ....   1.000e-05
   Converg. threshold II (energy diff.) ....   1.000e-08
   Grad. Scal. Fac. for Micro threshold ....   0.100
   Minimum threshold for Micro iter.    ....   0.010
   NR start threshold (gradient norm)   ....   0.001
   Initial trust radius                 ....   0.400
   Minimum AH scaling param. (alpha)    ....   1.000
   Maximum AH scaling param. (alpha)    .... 1000.000
   Orbital update algorithm             .... Taylor
   White noise on init. David. guess    .... on
   Maximum white noise                  ....   0.010
   Quad. conv. algorithm                .... NR
 SOSCF                  CNVSOSCF        .... on
   Start iteration      SOSCFMaxIt      ....   150
   Startup grad/error   SOSCFStart      ....  0.003300
 Level Shifting         CNVShift        .... on
   Level shift para.    LevelShift      ....    0.2500
   Turn off err/grad.   ShiftErr        ....    0.0010
 Zerner damping         CNVZerner       .... off
 Static damping         CNVDamp         .... on
   Fraction old density DampFac         ....    0.7000
   Max. Damping (<1)    DampMax         ....    0.9800
   Min. Damping (>=0)   DampMin         ....    0.0000
   Turn off err/grad.   DampErr         ....    0.1000
 Fernandez-Rico         CNVRico         .... off

SCF Procedure:
 Maximum # iterations   MaxIter         ....   125
 SCF integral mode      SCFMode         .... Direct
   Integral package                     .... SHARK and LIBINT hybrid scheme
 Reset frequency        DirectResetFreq ....    20
 Integral Threshold     Thresh          ....  2.500e-11 Eh
 Primitive CutOff       TCut            ....  2.500e-12 Eh

Convergence Tolerance:
 Convergence Check Mode ConvCheckMode   .... Total+1el-Energy
 Convergence forced     ConvForced      .... 0
 Energy Change          TolE            ....  1.000e-08 Eh
 1-El. energy change                    ....  1.000e-05 Eh
 Orbital Gradient       TolG            ....  1.000e-05
 Orbital Rotation angle TolX            ....  1.000e-05
 DIIS Error             TolErr          ....  5.000e-07


Diagonalization of the overlap matrix:
Smallest eigenvalue                        ... 3.664e-04
Time for diagonalization                   ...    0.005 sec
Threshold for overlap eigenvalues          ... 1.000e-08
Number of eigenvalues below threshold      ... 0
Time for construction of square roots      ...    0.077 sec
Total time needed                          ...    0.082 sec

Time for model grid setup =    0.240 sec

------------------------------
INITIAL GUESS: MODEL POTENTIAL
------------------------------
Loading Hartree-Fock densities                     ... done
Calculating cut-offs                               ... done
Initializing the effective Hamiltonian             ... done
Setting up the integral package (SHARK)            ... done
Starting the Coulomb interaction                   ... done (   0.2 sec)
Reading the grid                                   ... done
Mapping shells                                     ... done
Starting the XC term evaluation                    ... done (   0.2 sec)
  promolecular density results
     # of electrons  =     32.999169272
     EX              =    -25.509864341
     EC              =     -1.065862204
     EX+EC           =    -26.575726544
Transforming the Hamiltonian                       ... done (   0.0 sec)
Diagonalizing the Hamiltonian                      ... done (   0.0 sec)
Back transforming the eigenvectors                 ... done (   0.0 sec)
Now organizing SCF variables                       ... done
                      ------------------
                      INITIAL GUESS DONE (   0.6 sec)
                      ------------------
-------------------
DFT GRID GENERATION
-------------------

General Integration Accuracy     IntAcc      ... 4.388
Radial Grid Type                 RadialGrid  ... OptM3 with GC (2021)
Angular Grid (max. ang.)         AngularGrid ... 4 (Lebedev-302)
Angular grid pruning method      GridPruning ... 4 (adaptive)
Weight generation scheme         WeightScheme... Becke
Basis function cutoff            BFCut       ... 1.0000e-11
Integration weight cutoff        WCut        ... 1.0000e-14
Angular grids for H and He will be reduced by one unit
Partially contracted basis set               ... off
Rotationally invariant grid construction     ... off

Total number of grid points                  ...    46900
Total number of batches                      ...      740
Average number of points per batch           ...       63
Average number of grid points per atom       ...     4264
Time for grid setup =    0.567 sec


--------------------
CPCM SOLVATION MODEL
--------------------
CPCM parameters:
  Epsilon                                         ...      80.4000
  Refrac                                          ...       1.3300
  Rsolv                                           ...       1.3000
  Surface type                                    ... GAUSSIAN VDW
  Epsilon function type                           ...         CPCM
Radii:
 Radius for C  used is    3.8550 Bohr (=   2.0400 Ang.)
 Radius for O  used is    3.4469 Bohr (=   1.8240 Ang.)
 Radius for H  used is    2.4944 Bohr (=   1.3200 Ang.)
Calculating surface                               ...        done! (  0.0s)
GEPOL surface points                              ...          675
GEPOL Volume                                      ...     610.5871
GEPOL Surface-area                                ...     392.1367
Calculating surface distance matrix               ...        done! (  0.0s)
Performing Cholesky decomposition & store         ...        done! (  0.4s)
Overall time for CPCM initialization              ...                 0.4s
--------------
SCF ITERATIONS
--------------
ITER       Energy         Delta-E        Max-DP      RMS-DP      [F,P]     Damp
               ***  Starting incremental Fock matrix formation  ***
  0   -193.3645794601   0.000000000000 1.34477053  0.01212720  0.3744101 0.7000
  1   -193.5197775630  -0.155198102840 0.93809620  0.00839195  0.1035246 0.7000
                               ***Turning on DIIS***
  2   -193.5608915708  -0.041114007848 0.24277682  0.00470088  0.0232951 0.0000
  3   -193.6448067540  -0.083915183240 0.94326498  0.00811217  0.0546844 0.0000
  4   -193.6603675425  -0.015560788457 0.18857204  0.00165773  0.0381237 0.0000
                      *** Initiating the SOSCF procedure ***
                           *** Shutting down DIIS ***
                      *** Re-Reading the Fockian *** 
                      *** Removing any level shift *** 
ITER      Energy       Delta-E        Grad      Rot      Max-DP    RMS-DP
  5   -193.66305663  -0.0026890851  0.001222  0.001222  0.083728  0.000733
               *** Restarting incremental Fock matrix formation ***
  6   -193.66316301  -0.0001063803  0.000667  0.002699  0.051911  0.000469
  7   -193.66315686   0.0000061527  0.001111  0.001230  0.033797  0.000291
  8   -193.66317865  -0.0000217938  0.000282  0.001212  0.031066  0.000266
  9   -193.66317863   0.0000000190  0.000260  0.000212  0.006369  0.000057
 10   -193.66318052  -0.0000018910  0.000063  0.000261  0.005869  0.000050
 11   -193.66318062  -0.0000000947  0.000028  0.000096  0.002168  0.000019
 12   -193.66318066  -0.0000000441  0.000005  0.000013  0.000358  0.000003
                 **** Energy Check signals convergence ****
              ***Rediagonalizing the Fockian in SOSCF/NRSCF***

               *****************************************************
               *                     SUCCESS                       *
               *           SCF CONVERGED AFTER  13 CYCLES          *
               *****************************************************


----------------
TOTAL SCF ENERGY
----------------

Total Energy       :         -193.66318066 Eh           -5269.84306 eV

Components:
Nuclear Repulsion  :          123.33411200 Eh            3356.09181 eV
Electronic Energy  :         -316.99729266 Eh           -8625.93487 eV
One Electron Energy:         -514.19568337 Eh          -13991.97588 eV
Two Electron Energy:          197.19839071 Eh            5366.04102 eV
CPCM Dielectric    :           -0.11557042 Eh              -3.14483 eV

Virial components:
Potential Energy   :         -386.65053448 Eh          -10521.29594 eV
Kinetic Energy     :          192.98735383 Eh            5251.45288 eV
Virial Ratio       :            2.00350192


DFT components:
N(Alpha)           :       17.000014871449 electrons
N(Beta)            :       17.000014871449 electrons
N(Total)           :       34.000029742898 electrons
E(X)               :      -26.413046511653 Eh       
E(C)               :       -1.102026617732 Eh       
E(XC)              :      -27.515073129385 Eh       
DFET-embed. en.    :        0.000000000000 Eh       
CPCM Solvation Model Properties:
Surface-charge          :            0.96313623
Charge-correction       :           -0.00636428 Eh              -0.17318 eV
Free-energy (cav+disp)  :  This term is not implemented in the current solvation scheme

---------------
SCF CONVERGENCE
---------------

  Last Energy change         ...    1.7566e-09  Tolerance :   1.0000e-08
  Last MAX-Density change    ...    1.8390e-04  Tolerance :   1.0000e-07
  Last RMS-Density change    ...    1.5987e-06  Tolerance :   5.0000e-09
  Last Orbital Gradient      ...    6.4044e-06  Tolerance :   1.0000e-05
  Last Orbital Rotation      ...    7.5148e-06  Tolerance :   1.0000e-05

             **** THE GBW FILE WAS UPDATED (inp.gbw) ****
             **** DENSITY inp.scfp WAS UPDATED ****
             **** ENERGY FILE WAS UPDATED (inp.en.tmp) ****
             **** THE GBW FILE WAS UPDATED (inp.gbw) ****
             **** DENSITY inp.scfp WAS UPDATED ****
----------------
ORBITAL ENERGIES
----------------

  NO   OCC          E(Eh)            E(eV) 
   0   2.0000     -18.604731      -506.2605 
   1   2.0000      -9.862633      -268.3759 
   2   2.0000      -9.848556      -267.9928 
   3   2.0000      -9.839391      -267.7434 
   4   2.0000      -0.805704       -21.9243 
   5   2.0000      -0.665594       -18.1117 
   6   2.0000      -0.543508       -14.7896 
   7   2.0000      -0.487605       -13.2684 
   8   2.0000      -0.388367       -10.5680 
   9   2.0000      -0.348310        -9.4780 
  10   2.0000      -0.320008        -8.7079 
  11   2.0000      -0.319561        -8.6957 
  12   2.0000      -0.279278        -7.5995 
  13   2.0000      -0.264700        -7.2029 
  14   2.0000      -0.263771        -7.1776 
  15   2.0000      -0.122021        -3.3204 
  16   2.0000      -0.115941        -3.1549 
  17   0.0000       0.034105         0.9280 
  18   0.0000       0.071560         1.9472 
  19   0.0000       0.074816         2.0358 
  20   0.0000       0.081338         2.2133 
  21   0.0000       0.111977         3.0470 
  22   0.0000       0.124162         3.3786 
  23   0.0000       0.134095         3.6489 
  24   0.0000       0.153717         4.1828 
  25   0.0000       0.184140         5.0107 
  26   0.0000       0.189054         5.1444 
  27   0.0000       0.198851         5.4110 
  28   0.0000       0.226196         6.1551 
  29   0.0000       0.226859         6.1731 
  30   0.0000       0.281824         7.6688 
  31   0.0000       0.304423         8.2838 
  32   0.0000       0.312715         8.5094 
  33   0.0000       0.353755         9.6262 
  34   0.0000       0.370191        10.0734 
  35   0.0000       0.389446        10.5974 
  36   0.0000       0.397249        10.8097 
  37   0.0000       0.408257        11.1092 
  38   0.0000       0.415185        11.2978 
  39   0.0000       0.434148        11.8138 
  40   0.0000       0.444267        12.0891 
  41   0.0000       0.446211        12.1420 
  42   0.0000       0.478169        13.0116 
  43   0.0000       0.482922        13.1410 
  44   0.0000       0.536225        14.5914 
  45   0.0000       0.565484        15.3876 
  46   0.0000       0.588929        16.0256 
  47   0.0000       0.589771        16.0485 
  48   0.0000       0.601467        16.3667 
  49   0.0000       0.659933        17.9577 
  50   0.0000       0.692087        18.8326 
  51   0.0000       0.801820        21.8186 
  52   0.0000       0.803705        21.8699 
  53   0.0000       0.827408        22.5149 
  54   0.0000       0.879894        23.9431 
  55   0.0000       0.914584        24.8871 
  56   0.0000       0.945259        25.7218 
  57   0.0000       0.971291        26.4302 
  58   0.0000       1.010683        27.5021 
  59   0.0000       1.061035        28.8722 
  60   0.0000       1.064986        28.9797 
  61   0.0000       1.107165        30.1275 
  62   0.0000       1.119545        30.4644 
  63   0.0000       1.136421        30.9236 
  64   0.0000       1.198554        32.6143 
  65   0.0000       1.404198        38.2102 
  66   0.0000       1.455542        39.6073 
  67   0.0000       1.464476        39.8504 
  68   0.0000       1.465676        39.8831 
  69   0.0000       1.486960        40.4622 
  70   0.0000       1.515670        41.2435 
  71   0.0000       1.531112        41.6637 
  72   0.0000       1.537480        41.8370 
  73   0.0000       1.593554        43.3628 
  74   0.0000       1.601385        43.5759 
  75   0.0000       1.648925        44.8695 
  76   0.0000       1.664735        45.2997 
  77   0.0000       1.708831        46.4997 
  78   0.0000       1.745093        47.4864 
  79   0.0000       1.766639        48.0727 
  80   0.0000       1.798751        48.9465 
  81   0.0000       1.821221        49.5579 
  82   0.0000       1.863032        50.6957 
  83   0.0000       1.865420        50.7607 
  84   0.0000       1.885868        51.3171 
  85   0.0000       2.015551        54.8459 
  86   0.0000       2.038152        55.4609 
  87   0.0000       2.087535        56.8047 
  88   0.0000       2.135680        58.1148 
  89   0.0000       2.193497        59.6881 
  90   0.0000       2.203037        59.9477 
  91   0.0000       2.257858        61.4394 
  92   0.0000       2.274505        61.8924 
  93   0.0000       2.278193        61.9928 
  94   0.0000       2.339882        63.6714 
  95   0.0000       2.350877        63.9706 
  96   0.0000       2.414440        65.7003 
  97   0.0000       2.419555        65.8394 
  98   0.0000       2.483738        67.5859 
  99   0.0000       2.488622        67.7189 
 100   0.0000       2.521420        68.6113 
 101   0.0000       2.536113        69.0111 
 102   0.0000       2.536849        69.0312 
 103   0.0000       2.601199        70.7822 
 104   0.0000       2.616558        71.2002 
 105   0.0000       2.636456        71.7416 
 106   0.0000       2.676054        72.8191 
 107   0.0000       2.691074        73.2278 
 108   0.0000       2.734268        74.4032 
 109   0.0000       2.818532        76.6962 
 110   0.0000       2.844619        77.4060 
 111   0.0000       2.882804        78.4451 
 112   0.0000       2.978613        81.0522 
 113   0.0000       2.988472        81.3205 
 114   0.0000       3.002243        81.6952 
 115   0.0000       3.044017        82.8319 
 116   0.0000       3.064608        83.3922 
 117   0.0000       3.093993        84.1918 
 118   0.0000       3.153473        85.8104 
 119   0.0000       3.167631        86.1956 
 120   0.0000       3.182029        86.5874 
 121   0.0000       3.185642        86.6857 
 122   0.0000       3.245678        88.3194 
 123   0.0000       3.286985        89.4434 
 124   0.0000       3.315627        90.2228 
 125   0.0000       3.339390        90.8694 
 126   0.0000       3.370549        91.7173 
 127   0.0000       3.433934        93.4421 
 128   0.0000       3.490821        94.9901 
 129   0.0000       3.496645        95.1486 
 130   0.0000       3.529479        96.0420 
 131   0.0000       3.580883        97.4408 
 132   0.0000       3.616552        98.4114 
 133   0.0000       3.748196       101.9936 
 134   0.0000       3.785238       103.0016 
 135   0.0000       3.820083       103.9497 
 136   0.0000       3.859086       105.0111 
 137   0.0000       3.911065       106.4255 
 138   0.0000       3.994752       108.7027 
 139   0.0000       4.079030       110.9960 
 140   0.0000       4.181321       113.7795 
 141   0.0000       4.191080       114.0451 
 142   0.0000       4.261191       115.9529 
 143   0.0000       4.352864       118.4474 
 144   0.0000       4.419083       120.2494 
 145   0.0000       4.452409       121.1562 
 146   0.0000       4.476459       121.8106 
 147   0.0000       4.565296       124.2280 
 148   0.0000       4.734476       128.8316 
 149   0.0000       4.829953       131.4297 
 150   0.0000       5.181633       140.9994 
 151   0.0000       5.212074       141.8277 
 152   0.0000       5.449526       148.2891 
 153   0.0000       5.465648       148.7279 
 154   0.0000       5.904854       160.6792 
 155   0.0000       5.923413       161.1843 
 156   0.0000       6.025383       163.9590 
 157   0.0000       6.349471       172.7779 
 158   0.0000       6.354539       172.9158 
 159   0.0000       6.758469       183.9073 
 160   0.0000       6.849080       186.3729 
 161   0.0000       6.928141       188.5243 
 162   0.0000      22.061116       600.3135 
 163   0.0000      22.174676       603.4036 
 164   0.0000      22.425638       610.2326 
 165   0.0000      43.464668      1182.7338 

                    ********************************
                    * MULLIKEN POPULATION ANALYSIS *
                    ********************************

-----------------------
MULLIKEN ATOMIC CHARGES
-----------------------
   0 C :   -0.079092
   1 C :   -0.041623
   2 O :   -0.808638
   3 H :   -0.028412
   4 H :   -0.028565
   5 C :   -0.430449
   6 H :    0.046385
   7 H :    0.047030
   8 H :    0.106607
   9 H :    0.110352
  10 H :    0.106405
Sum of atomic charges:   -1.0000000

--------------------------------
MULLIKEN REDUCED ORBITAL CHARGES
--------------------------------
  0 C s       :     3.065273  s :     3.065273
      pz      :     0.978557  p :     2.918979
      px      :     0.991585
      py      :     0.948837
      dz2     :     0.010703  d :     0.089152
      dxz     :     0.019318
      dyz     :     0.019353
      dx2y2   :     0.023597
      dxy     :     0.016180
      f0      :     0.000298  f :     0.005689
      f+1     :     0.000574
      f-1     :     0.000880
      f+2     :     0.000792
      f-2     :     0.001180
      f+3     :     0.000757
      f-3     :     0.001208
  1 C s       :     3.195723  s :     3.195723
      pz      :     0.936218  p :     2.701915
      px      :     0.879340
      py      :     0.886357
      dz2     :     0.020839  d :     0.133311
      dxz     :     0.026108
      dyz     :     0.023187
      dx2y2   :     0.039863
      dxy     :     0.023314
      f0      :     0.000657  f :     0.010673
      f+1     :     0.001338
      f-1     :     0.001407
      f+2     :     0.001767
      f-2     :     0.001969
      f+3     :     0.001735
      f-3     :     0.001800
  2 O s       :     3.795075  s :     3.795075
      pz      :     1.699757  p :     4.988567
      px      :     1.604036
      py      :     1.684773
      dz2     :     0.003298  d :     0.023611
      dxz     :     0.005072
      dyz     :     0.004571
      dx2y2   :     0.004399
      dxy     :     0.006271
      f0      :     0.000130  f :     0.001386
      f+1     :     0.000168
      f-1     :     0.000140
      f+2     :     0.000176
      f-2     :     0.000350
      f+3     :     0.000198
      f-3     :     0.000224
  3 H s       :     1.008299  s :     1.008299
      pz      :     0.005515  p :     0.020113
      px      :     0.009403
      py      :     0.005195
  4 H s       :     1.008436  s :     1.008436
      pz      :     0.009537  p :     0.020128
      px      :     0.005805
      py      :     0.004786
  5 C s       :     3.275345  s :     3.275345
      pz      :     1.033119  p :     3.096759
      px      :     1.021554
      py      :     1.042086
      dz2     :     0.011954  d :     0.055056
      dxz     :     0.011615
      dyz     :     0.006882
      dx2y2   :     0.013854
      dxy     :     0.010750
      f0      :     0.000108  f :     0.003288
      f+1     :     0.000414
      f-1     :     0.000604
      f+2     :     0.000512
      f-2     :     0.000769
      f+3     :     0.000481
      f-3     :     0.000401
  6 H s       :     0.932672  s :     0.932672
      pz      :     0.006369  p :     0.020943
      px      :     0.009668
      py      :     0.004907
  7 H s       :     0.932029  s :     0.932029
      pz      :     0.009127  p :     0.020941
      px      :     0.005892
      py      :     0.005923
  8 H s       :     0.872433  s :     0.872433
      pz      :     0.009635  p :     0.020960
      px      :     0.005444
      py      :     0.005880
  9 H s       :     0.868495  s :     0.868495
      pz      :     0.005198  p :     0.021153
      px      :     0.006490
      py      :     0.009466
 10 H s       :     0.872637  s :     0.872637
      pz      :     0.006521  p :     0.020958
      px      :     0.008931
      py      :     0.005506


                     *******************************
                     * LOEWDIN POPULATION ANALYSIS *
                     *******************************

----------------------
LOEWDIN ATOMIC CHARGES
----------------------
   0 C :   -0.340156
   1 C :   -0.589698
   2 O :   -0.413165
   3 H :    0.064840
   4 H :    0.064681
   5 C :   -0.354927
   6 H :    0.113621
   7 H :    0.113752
   8 H :    0.113673
   9 H :    0.113640
  10 H :    0.113738

-------------------------------
LOEWDIN REDUCED ORBITAL CHARGES
-------------------------------
  0 C s       :     2.810646  s :     2.810646
      pz      :     1.025994  p :     3.091364
      px      :     1.031856
      py      :     1.033513
      dz2     :     0.050702  d :     0.400222
      dxz     :     0.090892
      dyz     :     0.090015
      dx2y2   :     0.083751
      dxy     :     0.084861
      f0      :     0.003271  f :     0.037924
      f+1     :     0.003867
      f-1     :     0.007024
      f+2     :     0.005103
      f-2     :     0.005173
      f+3     :     0.005598
      f-3     :     0.007887
  1 C s       :     2.807637  s :     2.807637
      pz      :     1.008542  p :     2.992055
      px      :     0.993578
      py      :     0.989935
      dz2     :     0.121936  d :     0.703120
      dxz     :     0.155854
      dyz     :     0.115511
      dx2y2   :     0.156488
      dxy     :     0.153331
      f0      :     0.006984  f :     0.086885
      f+1     :     0.009676
      f-1     :     0.013656
      f+2     :     0.012421
      f-2     :     0.012248
      f+3     :     0.015585
      f-3     :     0.016315
  2 O s       :     3.465058  s :     3.465058
      pz      :     1.656310  p :     4.881620
      px      :     1.598428
      py      :     1.626882
      dz2     :     0.009488  d :     0.061744
      dxz     :     0.012201
      dyz     :     0.011695
      dx2y2   :     0.013908
      dxy     :     0.014451
      f0      :     0.000382  f :     0.004744
      f+1     :     0.000634
      f-1     :     0.000492
      f+2     :     0.000715
      f-2     :     0.001053
      f+3     :     0.000642
      f-3     :     0.000826
  3 H s       :     0.876607  s :     0.876607
      pz      :     0.016418  p :     0.058553
      px      :     0.026839
      py      :     0.015297
  4 H s       :     0.876750  s :     0.876750
      pz      :     0.029595  p :     0.058569
      px      :     0.015914
      py      :     0.013060
  5 C s       :     2.838122  s :     2.838122
      pz      :     1.073966  p :     3.216352
      px      :     1.074996
      py      :     1.067390
      dz2     :     0.051168  d :     0.275242
      dxz     :     0.059022
      dyz     :     0.049623
      dx2y2   :     0.052680
      dxy     :     0.062748
      f0      :     0.002374  f :     0.025210
      f+1     :     0.002870
      f-1     :     0.005077
      f+2     :     0.004012
      f-2     :     0.002979
      f+3     :     0.004467
      f-3     :     0.003431
  6 H s       :     0.827385  s :     0.827385
      pz      :     0.019248  p :     0.058994
      px      :     0.025268
      py      :     0.014478
  7 H s       :     0.827218  s :     0.827218
      pz      :     0.025864  p :     0.059030
      px      :     0.015774
      py      :     0.017392
  8 H s       :     0.824728  s :     0.824728
      pz      :     0.028043  p :     0.061599
      px      :     0.015831
      py      :     0.017725
  9 H s       :     0.824501  s :     0.824501
      pz      :     0.014880  p :     0.061860
      px      :     0.020180
      py      :     0.026799
 10 H s       :     0.824668  s :     0.824668
      pz      :     0.020147  p :     0.061594
      px      :     0.026182
      py      :     0.015264


                      *****************************
                      * MAYER POPULATION ANALYSIS *
                      *****************************

  NA   - Mulliken gross atomic population
  ZA   - Total nuclear charge
  QA   - Mulliken gross atomic charge
  VA   - Mayer's total valence
  BVA  - Mayer's bonded valence
  FA   - Mayer's free valence

  ATOM       NA         ZA         QA         VA         BVA        FA
  0 C      6.0791     6.0000    -0.0791     3.5222     3.5222    -0.0000
  1 C      6.0416     6.0000    -0.0416     4.3273     4.3273    -0.0000
  2 O      8.8086     8.0000    -0.8086     1.5811     1.5811     0.0000
  3 H      1.0284     1.0000    -0.0284     0.9063     0.9063     0.0000
  4 H      1.0286     1.0000    -0.0286     0.9060     0.9060     0.0000
  5 C      6.4304     6.0000    -0.4304     3.9518     3.9518     0.0000
  6 H      0.9536     1.0000     0.0464     1.0084     1.0084    -0.0000
  7 H      0.9530     1.0000     0.0470     1.0075     1.0075    -0.0000
  8 H      0.8934     1.0000     0.1066     0.9729     0.9729     0.0000
  9 H      0.8896     1.0000     0.1104     0.9666     0.9666     0.0000
 10 H      0.8936     1.0000     0.1064     0.9731     0.9731     0.0000

  Mayer bond orders larger than 0.100000
B(  0-C ,  1-C ) :   0.9338 B(  0-C ,  2-O ) :  -0.1724 B(  0-C ,  5-C ) :   0.9337 
B(  0-C ,  6-H ) :   0.9445 B(  0-C ,  7-H ) :   0.9448 B(  1-C ,  2-O ) :   1.5495 
B(  1-C ,  3-H ) :   0.9078 B(  1-C ,  4-H ) :   0.9085 B(  5-C ,  8-H ) :   0.9711 
B(  5-C ,  9-H ) :   0.9634 B(  5-C , 10-H ) :   0.9709 

-------
TIMINGS
-------

Total SCF time: 0 days 0 hours 0 min 26 sec 

Total time                  ....      26.188 sec
Sum of individual times     ....      23.425 sec  ( 89.4%)

Fock matrix formation       ....      21.514 sec  ( 82.2%)
  Split-RI-J                ....       2.344 sec  ( 10.9% of F)
  XC integration            ....      11.244 sec  ( 52.3% of F)
    Basis function eval.    ....       2.926 sec  ( 26.0% of XC)
    Density eval.           ....       1.894 sec  ( 16.8% of XC)
    XC-Functional eval.     ....       0.570 sec  (  5.1% of XC)
    XC-Potential eval.      ....       2.519 sec  ( 22.4% of XC)
Diagonalization             ....       0.031 sec  (  0.1%)
Density matrix formation    ....       0.003 sec  (  0.0%)
Population analysis         ....       0.143 sec  (  0.5%)
Initial guess               ....       0.391 sec  (  1.5%)
Orbital Transformation      ....       0.000 sec  (  0.0%)
Orbital Orthonormalization  ....       0.000 sec  (  0.0%)
DIIS solution               ....       0.228 sec  (  0.9%)
SOSCF solution              ....       0.308 sec  (  1.2%)
Grid generation             ....       0.807 sec  (  3.1%)

Maximum memory used throughout the entire SCF-calculation: 47.1 MB


-------------------------------------------------------------------------------
                          DFT DISPERSION CORRECTION                            
                                                                               
                              DFTD3 V3.1  Rev 1                                
                          USING Becke-Johnson damping                          
-------------------------------------------------------------------------------
The PBE functional is recognized
Active option DFTDOPT                   ...         4   

molecular C6(AA) [au] = 819.160219 


            DFT-D V3
 parameters
 s6 scaling factor         :     1.0000 
 a1 scaling factor         :     0.4289 
 s8 scaling factor         :     0.7875 
 a2 scaling factor         :     4.4407 
 ad hoc parameters k1-k3   :    16.0000     1.3333    -4.0000 

 Edisp/kcal,au: -4.142619444560  -0.006601683598 
 E6   /kcal   :  -3.010731165 
 E8   /kcal   :  -1.131888280 
 % E8         :  27.323008900 

-------------------------   ----------------
Dispersion correction           -0.006601684
-------------------------   ----------------


-------------------------   --------------------
FINAL SINGLE POINT ENERGY      -193.669782341737
-------------------------   --------------------

------------------------------------------------------------------------------
                         ORCA SCF GRADIENT CALCULATION
------------------------------------------------------------------------------

Gradient of the Kohn-Sham DFT energy:
Kohn-Sham wavefunction type      ... RKS
Hartree-Fock exchange scaling    ...    0.000
Number of operators              ...    1
Number of atoms                  ...   11
Basis set dimensions             ...  166
Integral neglect threshold       ... 2.5e-11
Integral primitive cutoff        ... 2.5e-12
SHARK Integral package           ... ON

Nuc. rep. gradient       (SHARK) ... done (  0.0 sec)
HCore & Overlap gradient (SHARK) ... done (  0.1 sec)
RI-J gradient            (SHARK) ... done (  0.7 sec)
Exchange-correlation gradient    ... done
Dispersion correction            ... done

------------------
CARTESIAN GRADIENT
------------------

   1   C   :    0.020944058    0.013843578    0.013437780
   2   C   :   -0.031317139    0.029182795    0.004444624
   3   O   :   -0.007376410   -0.040750578   -0.022193953
   4   H   :    0.014551979    0.005830111   -0.014186000
   5   H   :    0.004722666   -0.010358455    0.017942991
   6   C   :   -0.006328818    0.005190177    0.000613328
   7   H   :   -0.001801446   -0.005850816   -0.000715119
   8   H   :   -0.000537018   -0.003520391   -0.004874163
   9   H   :    0.002293552   -0.000912921    0.003799922
  10   H   :    0.000920257    0.005667506    0.003129563
  11   H   :    0.003928319    0.001678996   -0.001398972

Difference to translation invariance:
           :   -0.0000000000    0.0000000000    0.0000000000

Difference to rotation invariance:
           :    0.0003430856   -0.0017367637    0.0020450277

Norm of the cartesian gradient     ...    0.0774239079
RMS gradient                       ...    0.0134777724
MAX gradient                       ...    0.0407505783

-------
TIMINGS
-------

Total SCF gradient time            ...        5.071 sec

One electron gradient       ....       0.122 sec  (  2.4%)
RI-J Coulomb gradient       ....       0.700 sec  ( 13.8%)
XC gradient                 ....       3.280 sec  ( 64.7%)
CPCM gradient               ....       0.266 sec  (  5.2%)
   A-Matrix (El+Nuc)        ....       0.027 sec  (  0.5%)
   Potential                ....       0.239 sec  (  4.7%)

Maximum memory used throughout the entire SCFGRAD-calculation: 54.2 MB
------------------------------------------------------------------------------
                         ORCA GEOMETRY RELAXATION STEP
------------------------------------------------------------------------------

Reading the OPT-File                    .... done
Getting information on internals        .... done
Copying old internal coords+grads       .... done
Making the new internal coordinates     .... (new redundants).... done
Validating the new internal coordinates .... (new redundants).... done
Calculating the B-matrix                .... done
Calculating the G,G- and P matrices     .... done
Transforming gradient to internals      .... done
Projecting the internal gradient        .... done
Number of atoms                         ....  11
Number of internal coordinates          ....  46
Current Energy                          ....  -193.669782342 Eh
Current gradient norm                   ....     0.077423908 Eh/bohr
Maximum allowed component of the step   ....  0.300
Current trust radius                    ....  0.300
Evaluating the initial hessian          ....  (Almloef) done
Projecting the Hessian                  .... done
Forming the augmented Hessian           .... done
Diagonalizing the augmented Hessian     .... done
Last element of RFO vector              ....  0.982583808
Lowest eigenvalues of augmented Hessian:
 -0.013521392  0.009707991  0.011567606  0.075851857  0.088640146
Length of the computed step             ....  0.189113608
The final length of the internal step   ....  0.189113608
Converting the step to cartesian space:
 Initial RMS(Int)=    0.0278832803
Transforming coordinates:
 Iter   0:  RMS(Cart)=    0.0515918860 RMS(Int)=    0.0280163512
 Iter   1:  RMS(Cart)=    0.0013266322 RMS(Int)=    0.0011839170
 Iter   2:  RMS(Cart)=    0.0001071063 RMS(Int)=    0.0000572584
 Iter   3:  RMS(Cart)=    0.0000069581 RMS(Int)=    0.0000060520
 Iter   4:  RMS(Cart)=    0.0000005386 RMS(Int)=    0.0000003183
 Iter   5:  RMS(Cart)=    0.0000000355 RMS(Int)=    0.0000000299
done
Storing new coordinates                 .... done

                                .--------------------.
          ----------------------|Geometry convergence|-------------------------
          Item                value                   Tolerance       Converged
          ---------------------------------------------------------------------
          RMS gradient        0.0112154390            0.0001000000      NO
          MAX gradient        0.0444557945            0.0003000000      NO
          RMS step            0.0278832803            0.0020000000      NO
          MAX step            0.1141844375            0.0040000000      NO
          ........................................................
          Max(Bonds)      0.0305      Max(Angles)    6.54
          Max(Dihed)        1.92      Max(Improp)    0.00
          ---------------------------------------------------------------------

The optimization has not yet converged - more geometry cycles are needed


    ---------------------------------------------------------------------------
                         Redundant Internal Coordinates
                            (Angstroem and degrees)

        Definition                    Value    dE/dq     Step     New-Value
    ----------------------------------------------------------------------------
     1. B(C   1,C   0)                1.5502 -0.006460  0.0095    1.5597   
     2. B(O   2,C   1)                1.3241 -0.040233  0.0293    1.3534   
     3. B(H   3,C   1)                1.1019 -0.020613  0.0304    1.1324   
     4. B(H   4,C   1)                1.1018 -0.020677  0.0305    1.1323   
     5. B(C   5,C   0)                1.5246 -0.011114  0.0149    1.5395   
     6. B(H   6,C   0)                1.0991 -0.002451  0.0036    1.1026   
     7. B(H   7,C   0)                1.0989 -0.002588  0.0038    1.1027   
     8. B(H   8,C   5)                1.0946 -0.004368  0.0063    1.1009   
     9. B(H   9,C   5)                1.0946 -0.004842  0.0070    1.1016   
    10. B(H  10,C   5)                1.0947 -0.004287  0.0062    1.1009   
    11. A(C   1,C   0,H   7)          110.62  0.007261   -1.62    109.00   
    12. A(C   5,C   0,H   6)          108.32  0.001169    0.44    108.76   
    13. A(H   6,C   0,H   7)          107.11 -0.002704   -0.19    106.92   
    14. A(C   5,C   0,H   7)          108.36  0.001144    0.48    108.85   
    15. A(C   1,C   0,C   5)          111.58 -0.014069    2.55    114.13   
    16. A(C   1,C   0,H   6)          110.70  0.007435   -1.70    109.00   
    17. A(H   3,C   1,H   4)          101.24 -0.000979   -0.33    100.91   
    18. A(O   2,C   1,H   3)          118.07  0.016734   -2.14    115.94   
    19. A(O   2,C   1,H   4)          118.09  0.017091   -2.26    115.83   
    20. A(C   0,C   1,O   2)          106.79 -0.044456    6.54    113.33   
    21. A(C   0,C   1,H   4)          105.77  0.006228   -1.03    104.74   
    22. A(C   0,C   1,H   3)          105.71  0.006075   -0.96    104.75   
    23. A(H   8,C   5,H   9)          108.05  0.002793   -0.39    107.66   
    24. A(C   0,C   5,H   9)          110.20 -0.006078    1.16    111.36   
    25. A(C   0,C   5,H   8)          111.00 -0.000181   -0.01    110.99   
    26. A(H   9,C   5,H  10)          108.06  0.002799   -0.38    107.68   
    27. A(H   8,C   5,H  10)          108.39  0.001212   -0.44    107.95   
    28. A(C   0,C   5,H  10)          111.03 -0.000272    0.01    111.05   
    29. D(H   4,C   1,C   0,C   5)    -52.91 -0.001858    0.80    -52.11   
    30. D(H   3,C   1,C   0,C   5)     53.94  0.001732   -0.32     53.62   
    31. D(H   4,C   1,C   0,H   7)   -173.63  0.001190   -0.43   -174.05   
    32. D(H   4,C   1,C   0,H   6)     67.80 -0.004773    1.92     69.72   
    33. D(O   2,C   1,C   0,H   7)     59.77  0.002757   -0.89     58.88   
    34. D(H   3,C   1,C   0,H   7)    -66.78  0.004780   -1.54    -68.32   
    35. D(O   2,C   1,C   0,H   6)    -58.80 -0.003207    1.45    -57.35   
    36. D(O   2,C   1,C   0,C   5)   -179.51 -0.000292    0.33   -179.18   
    37. D(H   3,C   1,C   0,H   6)    174.65 -0.001183    0.80    175.45   
    38. D(H   9,C   5,C   0,H   6)     58.44 -0.001003    0.15     58.59   
    39. D(H   9,C   5,C   0,C   1)   -179.46  0.000096   -0.05   -179.51   
    40. D(H   8,C   5,C   0,H   7)   -177.10  0.001547   -0.38   -177.48   
    41. D(H   8,C   5,C   0,H   6)    -61.22 -0.000417   -0.12    -61.33   
    42. D(H   9,C   5,C   0,H   7)    -57.44  0.000961   -0.12    -57.56   
    43. D(H   8,C   5,C   0,C   1)     60.88  0.000683   -0.31     60.56   
    44. D(H  10,C   5,C   0,H   7)     62.26  0.000318    0.17     62.43   
    45. D(H  10,C   5,C   0,H   6)    178.14 -0.001647    0.44    178.58   
    46. D(H  10,C   5,C   0,C   1)    -59.76 -0.000547    0.24    -59.52   
    ----------------------------------------------------------------------------

         *************************************************************
         *                GEOMETRY OPTIMIZATION CYCLE   2            *
         *************************************************************
---------------------------------
CARTESIAN COORDINATES (ANGSTROEM)
---------------------------------
  C     -3.394351   -4.203037   -2.969645
  C     -4.168109   -2.912599   -2.558762
  O     -3.404387   -2.023030   -1.882626
  H     -5.087301   -3.289015   -2.015057
  H     -4.628903   -2.534670   -3.521567
  C     -4.239794   -5.220122   -3.757630
  H     -2.521401   -3.918290   -3.580127
  H     -3.004180   -4.691348   -2.061248
  H     -4.610616   -4.781189   -4.696687
  H     -3.652258   -6.115300   -4.016293
  H     -5.110489   -5.549915   -3.170192

----------------------------
CARTESIAN COORDINATES (A.U.)
----------------------------
  NO LB      ZA    FRAG     MASS         X           Y           Z
   0 C     6.0000    0    12.011   -6.414394   -7.942588   -5.611816
   1 C     6.0000    0    12.011   -7.876585   -5.504014   -4.835360
   2 O     8.0000    0    15.999   -6.433359   -3.822972   -3.557647
   3 H     1.0000    0     1.008   -9.613605   -6.215337   -3.807905
   4 H     1.0000    0     1.008   -8.747358   -4.789832   -6.654798
   5 C     6.0000    0    12.011   -8.012049   -9.864602   -7.100892
   6 H     1.0000    0     1.008   -4.764757   -7.404494   -6.765460
   7 H     1.0000    0     1.008   -5.677078   -8.865363   -3.895194
   8 H     1.0000    0     1.008   -8.712801   -9.035138   -8.875453
   9 H     1.0000    0     1.008   -6.901767  -11.556242   -7.589694
  10 H     1.0000    0     1.008   -9.657425  -10.487819   -5.990794

--------------------------------
INTERNAL COORDINATES (ANGSTROEM)
--------------------------------
 C      0   0   0     0.000000000000     0.00000000     0.00000000
 C      1   0   0     1.559729739062     0.00000000     0.00000000
 O      2   1   0     1.353427564722   113.29469582     0.00000000
 H      2   1   3     1.132350491183   104.72389946   232.79092691
 H      2   1   3     1.132322193907   104.71577016   127.07074467
 C      1   2   3     1.539531469926   114.14135991   180.82156964
 H      1   2   3     1.102638471092   108.96203715   302.63042112
 H      1   2   3     1.102663499780   108.95978113    58.90329773
 H      6   1   2     1.100908748448   110.98722219    60.56206378
 H      6   1   2     1.101566054285   111.35553176   180.48683446
 H      6   1   2     1.100889534195   111.04623452   300.47652320

---------------------------
INTERNAL COORDINATES (A.U.)
---------------------------
 C      0   0   0     0.000000000000     0.00000000     0.00000000
 C      1   0   0     2.947462049759     0.00000000     0.00000000
 O      2   1   0     2.557607439425   113.29469582     0.00000000
 H      2   1   3     2.139832315947   104.72389946   232.79092691
 H      2   1   3     2.139778841845   104.71577016   127.07074467
 C      1   2   3     2.909292852713   114.14135991   180.82156964
 H      1   2   3     2.083684735089   108.96203715   302.63042112
 H      1   2   3     2.083732032455   108.95978113    58.90329773
 H      6   1   2     2.080416033004   110.98722219    60.56206378
 H      6   1   2     2.081658161024   111.35553176   180.48683446
 H      6   1   2     2.080379723329   111.04623452   300.47652320

------------------------------------------------------------------------------
                   ___                                                        
                  /   \      - P O W E R E D   B Y -                         
                 /     \                                                     
                 |  |  |   _    _      __       _____    __    __             
                 |  |  |  | |  | |    /  \     |  _  \  |  |  /  |          
                  \  \/   | |  | |   /    \    | | | |  |  | /  /          
                 / \  \   | |__| |  /  /\  \   | |_| |  |  |/  /          
                |  |  |   |  __  | /  /__\  \  |    /   |      \           
                |  |  |   | |  | | |   __   |  |    \   |  |\   \          
                \     /   | |  | | |  |  |  |  | |\  \  |  | \   \       
                 \___/    |_|  |_| |__|  |__|  |_| \__\ |__|  \__/        
                                                                              
                      - O R C A' S   B I G   F R I E N D -                    
                                      &                                       
                       - I N T E G R A L  F E E D E R -                       
                                                                              
 v1 FN, 2020, v2 2021                                                         
------------------------------------------------------------------------------


Reading SHARK input file inp.SHARKINP.tmp ... ok
----------------------
SHARK INTEGRAL PACKAGE
----------------------

Number of atoms                             ...     11
Number of basis functions                   ...    166
Number of shells                            ...     72
Maximum angular momentum                    ...      3
Integral batch strategy                     ... SHARK/LIBINT Hybrid
RI-J (if used) integral strategy            ... SPLIT-RIJ (Revised 2003 algorithm where possible)
Printlevel                                  ...      1
Contraction scheme used                     ... SEGMENTED contraction
Coulomb Range Separation                    ... NOT USED
Exchange Range Separation                   ... NOT USED
Finite Nucleus Model                        ... NOT USED
Auxiliary Coulomb fitting basis             ... AVAILABLE
   # of basis functions in Aux-J            ...    273
   # of shells in Aux-J                     ...     95
   Maximum angular momentum in Aux-J        ...      4
Auxiliary J/K fitting basis                 ... NOT available
Auxiliary Correlation fitting basis         ... NOT available
Auxiliary 'external' fitting basis          ... NOT available
Integral threshold                          ...     2.500000e-11
Primitive cut-off                           ...     2.500000e-12
Primitive pair pre-selection threshold      ...     2.500000e-12

Calculating pre-screening integrals         ... done (  0.0 sec) Dimension = 72
Organizing shell pair data                  ... done (  0.1 sec)
Shell pair information
Total number of shell pairs                 ...      2628
Shell pairs after pre-screening             ...      2546
Total number of primitive shell pairs       ...      7612
Primitive shell pairs kept                  ...      6054
          la=0 lb=0:    823 shell pairs
          la=1 lb=0:    761 shell pairs
          la=1 lb=1:    187 shell pairs
          la=2 lb=0:    318 shell pairs
          la=2 lb=1:    148 shell pairs
          la=2 lb=2:     35 shell pairs
          la=3 lb=0:    157 shell pairs
          la=3 lb=1:     75 shell pairs
          la=3 lb=2:     32 shell pairs
          la=3 lb=3:     10 shell pairs

Calculating one electron integrals          ... done (  0.0 sec)
Calculating RI/J V-Matrix + Cholesky decomp.... done (  0.3 sec)
Calculating Nuclear repulsion               ... done (  0.0 sec) ENN=    120.992786223856 Eh

SHARK setup successfully completed in   1.2 seconds

Maximum memory used throughout the entire GTOINT-calculation: 31.7 MB

Diagonalization of the overlap matrix:
Smallest eigenvalue                        ... 4.013e-04
Time for diagonalization                   ...    0.007 sec
Threshold for overlap eigenvalues          ... 1.000e-08
Number of eigenvalues below threshold      ... 0
Time for construction of square roots      ...    0.039 sec
Total time needed                          ...    0.046 sec

-------------------
DFT GRID GENERATION
-------------------

General Integration Accuracy     IntAcc      ... 4.388
Radial Grid Type                 RadialGrid  ... OptM3 with GC (2021)
Angular Grid (max. ang.)         AngularGrid ... 4 (Lebedev-302)
Angular grid pruning method      GridPruning ... 4 (adaptive)
Weight generation scheme         WeightScheme... Becke
Basis function cutoff            BFCut       ... 1.0000e-11
Integration weight cutoff        WCut        ... 1.0000e-14
Angular grids for H and He will be reduced by one unit
Partially contracted basis set               ... off
Rotationally invariant grid construction     ... off

Total number of grid points                  ...    46935
Total number of batches                      ...      740
Average number of points per batch           ...       63
Average number of grid points per atom       ...     4267
Time for grid setup =    0.717 sec


--------------------
CPCM SOLVATION MODEL
--------------------
CPCM parameters:
  Epsilon                                         ...      80.4000
  Refrac                                          ...       1.3300
  Rsolv                                           ...       1.3000
  Surface type                                    ... GAUSSIAN VDW
  Epsilon function type                           ...         CPCM
Radii:
 Radius for C  used is    3.8550 Bohr (=   2.0400 Ang.)
 Radius for O  used is    3.4469 Bohr (=   1.8240 Ang.)
 Radius for H  used is    2.4944 Bohr (=   1.3200 Ang.)
Calculating surface                               ...        done! (  0.0s)
GEPOL surface points                              ...          685
GEPOL Volume                                      ...     618.5365
GEPOL Surface-area                                ...     397.7277
Calculating surface distance matrix               ...        done! (  0.0s)
Performing Cholesky decomposition & store         ...        done! (  0.1s)
Overall time for CPCM initialization              ...                 0.1s
--------------
SCF ITERATIONS
--------------
ITER       Energy         Delta-E        Max-DP      RMS-DP      [F,P]     Damp
               ***  Starting incremental Fock matrix formation  ***
  0   -193.6672692932   0.000000000000 0.01122552  0.00026419  0.0198766 0.7000
                      *** Initiating the SOSCF procedure ***
                      *** Re-Reading the Fockian *** 
                      *** Removing any level shift *** 
ITER      Energy       Delta-E        Grad      Rot      Max-DP    RMS-DP
  1   -193.66831258  -0.0010432860  0.001867  0.001867  0.040724  0.000951
               *** Restarting incremental Fock matrix formation ***
  2   -193.67087501  -0.0025624318  0.000911  0.002709  0.023610  0.000421
  3   -193.67087889  -0.0000038782  0.001224  0.001146  0.019547  0.000170
  4   -193.67092730  -0.0000484093  0.000225  0.000776  0.013002  0.000112
  5   -193.67092749  -0.0000001884  0.000328  0.000251  0.006852  0.000063
  6   -193.67092877  -0.0000012843  0.000145  0.000168  0.002031  0.000034
  7   -193.67092910  -0.0000003254  0.000064  0.000070  0.000964  0.000011
  8   -193.67092927  -0.0000001750  0.000023  0.000033  0.000257  0.000004
  9   -193.67092927  -0.0000000017  0.000019  0.000018  0.000186  0.000003
                  ***Gradient check signals convergence***
              ***Rediagonalizing the Fockian in SOSCF/NRSCF***

               *****************************************************
               *                     SUCCESS                       *
               *           SCF CONVERGED AFTER  10 CYCLES          *
               *****************************************************

Total Energy       :         -193.67092929 Eh           -5270.05391 eV
  Last Energy change         ...   -1.6254e-08  Tolerance :   1.0000e-08
  Last MAX-Density change    ...    1.7156e-05  Tolerance :   1.0000e-07
             **** THE GBW FILE WAS UPDATED (inp.gbw) ****
             **** DENSITY inp.scfp WAS UPDATED ****
             **** ENERGY FILE WAS UPDATED (inp.en.tmp) ****
             **** THE GBW FILE WAS UPDATED (inp.gbw) ****
             **** DENSITY inp.scfp WAS UPDATED ****
Total SCF time: 0 days 0 hours 0 min 20 sec 

Maximum memory used throughout the entire SCF-calculation: 46.9 MB


-------------------------------------------------------------------------------
                          DFT DISPERSION CORRECTION                            
                                                                               
                              DFTD3 V3.1  Rev 1                                
                          USING Becke-Johnson damping                          
-------------------------------------------------------------------------------
-------------------------   ----------------
Dispersion correction           -0.006506024
-------------------------   ----------------


-------------------------   --------------------
FINAL SINGLE POINT ENERGY      -193.677435314026
-------------------------   --------------------

------------------------------------------------------------------------------
                         ORCA SCF GRADIENT CALCULATION
------------------------------------------------------------------------------

Gradient of the Kohn-Sham DFT energy:
Kohn-Sham wavefunction type      ... RKS
Hartree-Fock exchange scaling    ...    0.000
Number of operators              ...    1
Number of atoms                  ...   11
Basis set dimensions             ...  166
Integral neglect threshold       ... 2.5e-11
Integral primitive cutoff        ... 2.5e-12
SHARK Integral package           ... ON

Nuc. rep. gradient       (SHARK) ... done (  0.0 sec)
HCore & Overlap gradient (SHARK) ... done (  0.1 sec)
RI-J gradient            (SHARK) ... done (  0.7 sec)
Exchange-correlation gradient    ... done
Dispersion correction            ... done

------------------
CARTESIAN GRADIENT
------------------

   1   C   :    0.008909416    0.004968048    0.005290176
   2   C   :   -0.007390059    0.009709831    0.002477451
   3   O   :    0.001718290   -0.006148916   -0.002372274
   4   H   :    0.001095162    0.000727615   -0.004567737
   5   H   :   -0.001194638   -0.003118849    0.003368018
   6   C   :   -0.003753207   -0.002104758   -0.002255062
   7   H   :   -0.001190849   -0.002533874   -0.000732558
   8   H   :   -0.000727537   -0.001635924   -0.001977470
   9   H   :    0.000683776    0.000023771    0.000332464
  10   H   :    0.001109785   -0.000010217    0.000321085
  11   H   :    0.000739861    0.000123273    0.000115908

Difference to translation invariance:
           :   -0.0000000000    0.0000000000    0.0000000000

Difference to rotation invariance:
           :    0.0003250157   -0.0007981137    0.0006080060

Norm of the cartesian gradient     ...    0.0204973078
RMS gradient                       ...    0.0035681233
MAX gradient                       ...    0.0097098308

-------
TIMINGS
-------

Total SCF gradient time            ...        4.865 sec

One electron gradient       ....       0.120 sec  (  2.5%)
RI-J Coulomb gradient       ....       0.695 sec  ( 14.3%)
[...]
  37   0.0000       0.402301        10.9472 
  38   0.0000       0.405688        11.0393 
  39   0.0000       0.431486        11.7413 
  40   0.0000       0.436406        11.8752 
  41   0.0000       0.438176        11.9234 
  42   0.0000       0.457152        12.4397 
  43   0.0000       0.474101        12.9009 
  44   0.0000       0.515101        14.0166 
  45   0.0000       0.557522        15.1709 
  46   0.0000       0.575263        15.6537 
  47   0.0000       0.581618        15.8266 
  48   0.0000       0.596146        16.2220 
  49   0.0000       0.671322        18.2676 
  50   0.0000       0.694734        18.9047 
  51   0.0000       0.785218        21.3669 
  52   0.0000       0.800257        21.7761 
  53   0.0000       0.815242        22.1839 
  54   0.0000       0.862666        23.4743 
  55   0.0000       0.913469        24.8568 
  56   0.0000       0.944513        25.7015 
  57   0.0000       0.962168        26.1819 
  58   0.0000       0.995721        27.0949 
  59   0.0000       1.058208        28.7953 
  60   0.0000       1.059953        28.8428 
  61   0.0000       1.105080        30.0708 
  62   0.0000       1.122571        30.5467 
  63   0.0000       1.141357        31.0579 
  64   0.0000       1.210416        32.9371 
  65   0.0000       1.409325        38.3497 
  66   0.0000       1.440409        39.1955 
  67   0.0000       1.455636        39.6099 
  68   0.0000       1.471404        40.0389 
  69   0.0000       1.484719        40.4013 
  70   0.0000       1.518164        41.3113 
  71   0.0000       1.528823        41.6014 
  72   0.0000       1.541980        41.9594 
  73   0.0000       1.564107        42.5615 
  74   0.0000       1.590009        43.2663 
  75   0.0000       1.623048        44.1654 
  76   0.0000       1.654490        45.0210 
  77   0.0000       1.703465        46.3536 
  78   0.0000       1.725739        46.9597 
  79   0.0000       1.779752        48.4295 
  80   0.0000       1.798762        48.9468 
  81   0.0000       1.807189        49.1761 
  82   0.0000       1.846138        50.2360 
  83   0.0000       1.858044        50.5600 
  84   0.0000       1.910805        51.9957 
  85   0.0000       1.949564        53.0503 
  86   0.0000       2.006484        54.5992 
  87   0.0000       2.068013        56.2735 
  88   0.0000       2.085711        56.7551 
  89   0.0000       2.199598        59.8541 
  90   0.0000       2.215351        60.2828 
  91   0.0000       2.243947        61.0609 
  92   0.0000       2.266637        61.6783 
  93   0.0000       2.275144        61.9098 
  94   0.0000       2.314446        62.9793 
  95   0.0000       2.354853        64.0788 
  96   0.0000       2.377828        64.7040 
  97   0.0000       2.405674        65.4617 
  98   0.0000       2.451518        66.7092 
  99   0.0000       2.478228        67.4360 
 100   0.0000       2.484989        67.6200 
 101   0.0000       2.517764        68.5118 
 102   0.0000       2.545912        69.2778 
 103   0.0000       2.592427        70.5435 
 104   0.0000       2.605656        70.9035 
 105   0.0000       2.624063        71.4044 
 106   0.0000       2.656740        72.2936 
 107   0.0000       2.677664        72.8629 
 108   0.0000       2.723624        74.1136 
 109   0.0000       2.779265        75.6276 
 110   0.0000       2.814146        76.5768 
 111   0.0000       2.869519        78.0836 
 112   0.0000       2.950687        80.2923 
 113   0.0000       2.991920        81.4143 
 114   0.0000       3.005250        81.7770 
 115   0.0000       3.036130        82.6173 
 116   0.0000       3.078527        83.7710 
 117   0.0000       3.088334        84.0378 
 118   0.0000       3.136563        85.3502 
 119   0.0000       3.161228        86.0214 
 120   0.0000       3.164006        86.0970 
 121   0.0000       3.184757        86.6616 
 122   0.0000       3.207171        87.2715 
 123   0.0000       3.278598        89.2152 
 124   0.0000       3.297240        89.7225 
 125   0.0000       3.312373        90.1343 
 126   0.0000       3.319286        90.3224 
 127   0.0000       3.418594        93.0247 
 128   0.0000       3.456094        94.0451 
 129   0.0000       3.495070        95.1057 
 130   0.0000       3.525765        95.9410 
 131   0.0000       3.528551        96.0167 
 132   0.0000       3.560156        96.8768 
 133   0.0000       3.734434       101.6191 
 134   0.0000       3.778495       102.8181 
 135   0.0000       3.814886       103.8083 
 136   0.0000       3.840405       104.5027 
 137   0.0000       3.894188       105.9663 
 138   0.0000       3.965108       107.8961 
 139   0.0000       4.033459       109.7560 
 140   0.0000       4.134870       112.5155 
 141   0.0000       4.149457       112.9125 
 142   0.0000       4.226711       115.0146 
 143   0.0000       4.320444       117.5652 
 144   0.0000       4.437303       120.7452 
 145   0.0000       4.449708       121.0827 
 146   0.0000       4.485879       122.0670 
 147   0.0000       4.532845       123.3450 
 148   0.0000       4.729830       128.7052 
 149   0.0000       4.769191       129.7763 
 150   0.0000       5.168182       140.6334 
 151   0.0000       5.182424       141.0209 
 152   0.0000       5.394794       146.7998 
 153   0.0000       5.396976       146.8592 
 154   0.0000       5.821577       158.4132 
 155   0.0000       5.884305       160.1201 
 156   0.0000       5.952472       161.9750 
 157   0.0000       6.334700       172.3759 
 158   0.0000       6.344258       172.6360 
 159   0.0000       6.744451       183.5259 
 160   0.0000       6.806711       185.2200 
 161   0.0000       6.913095       188.1149 
 162   0.0000      22.030509       599.4806 
 163   0.0000      22.140747       602.4804 
 164   0.0000      22.251744       605.5007 
 165   0.0000      43.401351      1181.0108 

                    ********************************
                    * MULLIKEN POPULATION ANALYSIS *
                    ********************************

-----------------------
MULLIKEN ATOMIC CHARGES
-----------------------
   0 C :   -0.053001
   1 C :   -0.063020
   2 O :   -0.829284
   3 H :   -0.028000
   4 H :   -0.028487
   5 C :   -0.426667
   6 H :    0.043747
   7 H :    0.046921
   8 H :    0.109254
   9 H :    0.119649
  10 H :    0.108888
Sum of atomic charges:   -1.0000000

--------------------------------
MULLIKEN REDUCED ORBITAL CHARGES
--------------------------------
  0 C s       :     3.043027  s :     3.043027
      pz      :     0.982913  p :     2.913138
      px      :     0.985982
      py      :     0.944242
      dz2     :     0.011352  d :     0.091495
      dxz     :     0.019930
      dyz     :     0.019722
      dx2y2   :     0.022815
      dxy     :     0.017676
      f0      :     0.000290  f :     0.005342
      f+1     :     0.000549
      f-1     :     0.000829
      f+2     :     0.000693
      f-2     :     0.001181
      f+3     :     0.000702
      f-3     :     0.001098
  1 C s       :     3.223968  s :     3.223968
      pz      :     0.931798  p :     2.703361
      px      :     0.898794
      py      :     0.872769
      dz2     :     0.020040  d :     0.125849
      dxz     :     0.023258
      dyz     :     0.023724
      dx2y2   :     0.036351
      dxy     :     0.022475
      f0      :     0.000576  f :     0.009841
      f+1     :     0.000976
      f-1     :     0.001678
      f+2     :     0.001494
      f-2     :     0.001849
      f+3     :     0.001365
      f-3     :     0.001901
  2 O s       :     3.818280  s :     3.818280
      pz      :     1.704349  p :     4.987284
      px      :     1.665180
      py      :     1.617755
      dz2     :     0.003022  d :     0.022444
      dxz     :     0.003919
      dyz     :     0.005339
      dx2y2   :     0.004129
      dxy     :     0.006035
      f0      :     0.000129  f :     0.001276
      f+1     :     0.000111
      f-1     :     0.000155
      f+2     :     0.000159
      f-2     :     0.000333
      f+3     :     0.000204
      f-3     :     0.000186
  3 H s       :     1.009237  s :     1.009237
      pz      :     0.005289  p :     0.018763
      px      :     0.008759
      py      :     0.004715
  4 H s       :     1.009697  s :     1.009697
      pz      :     0.008998  p :     0.018790
      px      :     0.005317
      py      :     0.004475
  5 C s       :     3.279444  s :     3.279444
      pz      :     1.030853  p :     3.089932
      px      :     1.022237
      py      :     1.036842
      dz2     :     0.011759  d :     0.054098
      dxz     :     0.011213
      dyz     :     0.007331
      dx2y2   :     0.013556
      dxy     :     0.010240
      f0      :     0.000116  f :     0.003193
      f+1     :     0.000373
      f-1     :     0.000584
      f+2     :     0.000510
      f-2     :     0.000773
      f+3     :     0.000493
      f-3     :     0.000347
  6 H s       :     0.935330  s :     0.935330
      pz      :     0.006115  p :     0.020923
      px      :     0.009793
      py      :     0.005014
  7 H s       :     0.932177  s :     0.932177
      pz      :     0.009292  p :     0.020902
      px      :     0.005875
      py      :     0.005734
  8 H s       :     0.869957  s :     0.869957
      pz      :     0.009594  p :     0.020789
      px      :     0.005461
      py      :     0.005734
  9 H s       :     0.859433  s :     0.859433
      pz      :     0.005168  p :     0.020918
      px      :     0.006194
      py      :     0.009556
 10 H s       :     0.870324  s :     0.870324
      pz      :     0.006358  p :     0.020787
      px      :     0.009099
      py      :     0.005330


                     *******************************
                     * LOEWDIN POPULATION ANALYSIS *
                     *******************************

----------------------
LOEWDIN ATOMIC CHARGES
----------------------
   0 C :   -0.341535
   1 C :   -0.563175
   2 O :   -0.460682
   3 H :    0.067156
   4 H :    0.066944
   5 C :   -0.349336
   6 H :    0.114850
   7 H :    0.115284
   8 H :    0.116477
   9 H :    0.117393
  10 H :    0.116626

-------------------------------
LOEWDIN REDUCED ORBITAL CHARGES
-------------------------------
  0 C s       :     2.813713  s :     2.813713
      pz      :     1.027641  p :     3.097682
      px      :     1.032856
      py      :     1.037185
      dz2     :     0.052322  d :     0.393642
      dxz     :     0.088278
      dyz     :     0.085878
      dx2y2   :     0.083274
      dxy     :     0.083889
      f0      :     0.003388  f :     0.036498
      f+1     :     0.003779
      f-1     :     0.006859
      f+2     :     0.004777
      f-2     :     0.005000
      f+3     :     0.005374
      f-3     :     0.007321
  1 C s       :     2.829525  s :     2.829525
      pz      :     1.001659  p :     2.978072
      px      :     0.988768
      py      :     0.987645
      dz2     :     0.113901  d :     0.678585
      dxz     :     0.138515
      dyz     :     0.124148
      dx2y2   :     0.150642
      dxy     :     0.151380
      f0      :     0.006393  f :     0.076993
      f+1     :     0.006806
      f-1     :     0.014668
      f+2     :     0.010862
      f-2     :     0.011448
      f+3     :     0.012059
      f-3     :     0.014756
  2 O s       :     3.498883  s :     3.498883
      pz      :     1.669760  p :     4.903025
      px      :     1.642792
      py      :     1.590473
      dz2     :     0.008441  d :     0.054729
      dxz     :     0.009390
      dyz     :     0.012043
      dx2y2   :     0.011063
      dxy     :     0.013791
      f0      :     0.000355  f :     0.004045
      f+1     :     0.000417
      f-1     :     0.000546
      f+2     :     0.000528
      f-2     :     0.000956
      f+3     :     0.000600
      f-3     :     0.000643
  3 H s       :     0.879689  s :     0.879689
      pz      :     0.015111  p :     0.053155
      px      :     0.024764
      py      :     0.013280
  4 H s       :     0.879930  s :     0.879930
      pz      :     0.027364  p :     0.053126
      px      :     0.014334
      py      :     0.011428
  5 C s       :     2.843066  s :     2.843066
      pz      :     1.073709  p :     3.214327
      px      :     1.075470
      py      :     1.065148
      dz2     :     0.049622  d :     0.267560
      dxz     :     0.057289
      dyz     :     0.048702
      dx2y2   :     0.052084
      dxy     :     0.059862
      f0      :     0.002445  f :     0.024383
      f+1     :     0.002739
      f-1     :     0.004873
      f+2     :     0.003933
      f-2     :     0.002933
      f+3     :     0.004327
      f-3     :     0.003133
  6 H s       :     0.826761  s :     0.826761
      pz      :     0.018332  p :     0.058389
      px      :     0.025561
      py      :     0.014497
  7 H s       :     0.826326  s :     0.826326
      pz      :     0.026174  p :     0.058390
      px      :     0.015642
      py      :     0.016574
  8 H s       :     0.822947  s :     0.822947
      pz      :     0.027740  p :     0.060576
      px      :     0.015583
      py      :     0.017253
  9 H s       :     0.821647  s :     0.821647
      pz      :     0.014652  p :     0.060960
      px      :     0.019214
      py      :     0.027095
 10 H s       :     0.822809  s :     0.822809
      pz      :     0.019541  p :     0.060566
      px      :     0.026387
      py      :     0.014638


                      *****************************
                      * MAYER POPULATION ANALYSIS *
                      *****************************

  NA   - Mulliken gross atomic population
  ZA   - Total nuclear charge
  QA   - Mulliken gross atomic charge
  VA   - Mayer's total valence
  BVA  - Mayer's bonded valence
  FA   - Mayer's free valence

  ATOM       NA         ZA         QA         VA         BVA        FA
  0 C      6.0530     6.0000    -0.0530     3.4667     3.4667    -0.0000
  1 C      6.0630     6.0000    -0.0630     4.3131     4.3131     0.0000
  2 O      8.8293     8.0000    -0.8293     1.5672     1.5672     0.0000
  3 H      1.0280     1.0000    -0.0280     0.9163     0.9163    -0.0000
  4 H      1.0285     1.0000    -0.0285     0.9159     0.9159    -0.0000
  5 C      6.4267     6.0000    -0.4267     3.9748     3.9748     0.0000
  6 H      0.9563     1.0000     0.0437     1.0120     1.0120    -0.0000
  7 H      0.9531     1.0000     0.0469     1.0075     1.0075     0.0000
  8 H      0.8907     1.0000     0.1093     0.9754     0.9754    -0.0000
  9 H      0.8804     1.0000     0.1196     0.9652     0.9652     0.0000
 10 H      0.8911     1.0000     0.1089     0.9753     0.9753     0.0000

  Mayer bond orders larger than 0.100000
B(  0-C ,  1-C ) :   0.9033 B(  0-C ,  2-O ) :  -0.1843 B(  0-C ,  5-C ) :   0.9524 
B(  0-C ,  6-H ) :   0.9342 B(  0-C ,  7-H ) :   0.9358 B(  1-C ,  2-O ) :   1.5442 
B(  1-C ,  3-H ) :   0.9142 B(  1-C ,  4-H ) :   0.9156 B(  5-C ,  8-H ) :   0.9692 
B(  5-C ,  9-H ) :   0.9606 B(  5-C , 10-H ) :   0.9692 

-------
TIMINGS
-------

Total SCF time: 0 days 0 hours 0 min 12 sec 

Total time                  ....      13.000 sec
Sum of individual times     ....      10.941 sec  ( 84.2%)

Fock matrix formation       ....      10.051 sec  ( 77.3%)
  Split-RI-J                ....       1.033 sec  ( 10.3% of F)
  XC integration            ....       4.968 sec  ( 49.4% of F)
    Basis function eval.    ....       1.490 sec  ( 30.0% of XC)
    Density eval.           ....       0.917 sec  ( 18.5% of XC)
    XC-Functional eval.     ....       0.291 sec  (  5.9% of XC)
    XC-Potential eval.      ....       0.995 sec  ( 20.0% of XC)
Diagonalization             ....       0.005 sec  (  0.0%)
Density matrix formation    ....       0.002 sec  (  0.0%)
Population analysis         ....       0.133 sec  (  1.0%)
Initial guess               ....       0.005 sec  (  0.0%)
Orbital Transformation      ....       0.000 sec  (  0.0%)
Orbital Orthonormalization  ....       0.003 sec  (  0.0%)
DIIS solution               ....       0.001 sec  (  0.0%)
SOSCF solution              ....       0.183 sec  (  1.4%)
Grid generation             ....       0.562 sec  (  4.3%)

Maximum memory used throughout the entire SCF-calculation: 46.9 MB


-------------------------------------------------------------------------------
                          DFT DISPERSION CORRECTION                            
                                                                               
                              DFTD3 V3.1  Rev 1                                
                          USING Becke-Johnson damping                          
-------------------------------------------------------------------------------
The PBE functional is recognized
Active option DFTDOPT                   ...         4   

molecular C6(AA) [au] = 819.826150 


            DFT-D V3
 parameters
 s6 scaling factor         :     1.0000 
 a1 scaling factor         :     0.4289 
 s8 scaling factor         :     0.7875 
 a2 scaling factor         :     4.4407 
 ad hoc parameters k1-k3   :    16.0000     1.3333    -4.0000 

 Edisp/kcal,au: -4.087172165001  -0.006513322743 
 E6   /kcal   :  -2.970123002 
 E8   /kcal   :  -1.117049163 
 % E8         :  27.330611920 

-------------------------   ----------------
Dispersion correction           -0.006513323
-------------------------   ----------------


-------------------------   --------------------
FINAL SINGLE POINT ENERGY      -193.678076822439
-------------------------   --------------------

                                *** OPTIMIZATION RUN DONE ***

                            ***************************************
                            *     ORCA property calculations      *
                            ***************************************

                                    ---------------------
                                    Active property flags
                                    ---------------------
   (+) Dipole Moment


------------------------------------------------------------------------------
                       ORCA ELECTRIC PROPERTIES CALCULATION
------------------------------------------------------------------------------

Dipole Moment Calculation                       ... on
Quadrupole Moment Calculation                   ... off
Polarizability Calculation                      ... off
GBWName                                         ... inp.gbw
Electron density                                ... inp.scfp
The origin for moment calculation is the CENTER OF MASS  = (-7.205654, -6.766950 -5.283611)

-------------
DIPOLE MOMENT
-------------
                                X             Y             Z
Electronic contribution:      1.25285       2.76602       1.76106
Nuclear contribution   :     -1.78650      -5.42841      -3.23911
                        -----------------------------------------
Total Dipole Moment    :     -0.53365      -2.66239      -1.47805
                        -----------------------------------------
Magnitude (a.u.)       :      3.09156
Magnitude (Debye)      :      7.85812



--------------------
Rotational spectrum 
--------------------
 
Rotational constants in cm-1:     0.924823     0.128977     0.120930 
Rotational constants in MHz : 27725.486510  3866.620882  3625.399704 

 Dipole components along the rotational axes: 
x,y,z [a.u.] :     3.090060    -0.094476     0.018510 
x,y,z [Debye]:     7.854308    -0.240140     0.047048 

 

Timings for individual modules:

Sum of individual times         ...      172.098 sec (=   2.868 min)
GTO integral calculation        ...        8.232 sec (=   0.137 min)   4.8 %
SCF iterations                  ...      130.883 sec (=   2.181 min)  76.1 %
SCF Gradient evaluation         ...       31.531 sec (=   0.526 min)  18.3 %
Geometry relaxation             ...        1.453 sec (=   0.024 min)   0.8 %
                             ****ORCA TERMINATED NORMALLY****
TOTAL RUN TIME: 0 days 0 hours 2 minutes 57 seconds 595 msec
