
                                 *****************
                                 * O   R   C   A *
                                 *****************

                                            #,                                       
                                            ###                                      
                                            ####                                     
                                            #####                                    
                                            ######                                   
                                           ########,                                 
                                     ,,################,,,,,                         
                               ,,#################################,,                 
                          ,,##########################################,,             
                       ,#########################################, ''#####,          
                    ,#############################################,,   '####,        
                  ,##################################################,,,,####,       
                ,###########''''           ''''###############################       
              ,#####''   ,,,,##########,,,,          '''####'''          '####       
            ,##' ,,,,###########################,,,                        '##       
           ' ,,###''''                  '''############,,,                           
         ,,##''                                '''############,,,,        ,,,,,,###''
      ,#''                                            '''#######################'''  
     '                                                          ''''####''''         
             ,#######,   #######,   ,#######,      ##                                
            ,#'     '#,  ##    ##  ,#'     '#,    #''#        ######   ,####,        
            ##       ##  ##   ,#'  ##            #'  '#       #        #'  '#        
            ##       ##  #######   ##           ,######,      #####,   #    #        
            '#,     ,#'  ##    ##  '#,     ,#' ,#      #,         ##   #,  ,#        
             '#######'   ##     ##  '#######'  #'      '#     #####' # '####'        



                  #######################################################
                  #                        -***-                        #
                  #          Department of theory and spectroscopy      #
                  #    Directorship and core code : Frank Neese         #
                  #        Max Planck Institute fuer Kohlenforschung    #
                  #                Kaiser Wilhelm Platz 1               #
                  #                 D-45470 Muelheim/Ruhr               #
                  #                      Germany                        #
                  #                                                     #
                  #                  All rights reserved                #
                  #                        -***-                        #
                  #######################################################


                         Program Version 5.0.4 -  RELEASE  -


 With contributions from (in alphabetic order):
   Daniel Aravena         : Magnetic Suceptibility
   Michael Atanasov       : Ab Initio Ligand Field Theory (pilot matlab implementation)
   Alexander A. Auer      : GIAO ZORA, VPT2 properties, NMR spectrum
   Ute Becker             : Parallelization
   Giovanni Bistoni       : ED, misc. LED, open-shell LED, HFLD
   Martin Brehm           : Molecular dynamics
   Dmytro Bykov           : SCF Hessian
   Vijay G. Chilkuri      : MRCI spin determinant printing, contributions to CSF-ICE
   Dipayan Datta          : RHF DLPNO-CCSD density
   Achintya Kumar Dutta   : EOM-CC, STEOM-CC
   Dmitry Ganyushin       : Spin-Orbit,Spin-Spin,Magnetic field MRCI
   Miquel Garcia          : C-PCM and meta-GGA Hessian, CC/C-PCM, Gaussian charge scheme
   Yang Guo               : DLPNO-NEVPT2, F12-NEVPT2, CIM, IAO-localization
   Andreas Hansen         : Spin unrestricted coupled pair/coupled cluster methods
   Benjamin Helmich-Paris : MC-RPA, TRAH-SCF, COSX integrals
   Lee Huntington         : MR-EOM, pCC
   Robert Izsak           : Overlap fitted RIJCOSX, COSX-SCS-MP3, EOM
   Marcus Kettner         : VPT2
   Christian Kollmar      : KDIIS, OOCD, Brueckner-CCSD(T), CCSD density, CASPT2, CASPT2-K
   Simone Kossmann        : Meta GGA functionals, TD-DFT gradient, OOMP2, MP2 Hessian
   Martin Krupicka        : Initial AUTO-CI
   Lucas Lang             : DCDCAS
   Marvin Lechner         : AUTO-CI (C++ implementation), FIC-MRCC
   Dagmar Lenk            : GEPOL surface, SMD
   Dimitrios Liakos       : Extrapolation schemes; Compound Job, initial MDCI parallelization
   Dimitrios Manganas     : Further ROCIS development; embedding schemes
   Dimitrios Pantazis     : SARC Basis sets
   Anastasios Papadopoulos: AUTO-CI, single reference methods and gradients
   Taras Petrenko         : DFT Hessian,TD-DFT gradient, ASA, ECA, R-Raman, ABS, FL, XAS/XES, NRVS
   Peter Pinski           : DLPNO-MP2, DLPNO-MP2 Gradient
   Christoph Reimann      : Effective Core Potentials
   Marius Retegan         : Local ZFS, SOC
   Christoph Riplinger    : Optimizer, TS searches, QM/MM, DLPNO-CCSD(T), (RO)-DLPNO pert. Triples
   Tobias Risthaus        : Range-separated hybrids, TD-DFT gradient, RPA, STAB
   Michael Roemelt        : Original ROCIS implementation
   Masaaki Saitow         : Open-shell DLPNO-CCSD energy and density
   Barbara Sandhoefer     : DKH picture change effects
   Avijit Sen             : IP-ROCIS
   Kantharuban Sivalingam : CASSCF convergence, NEVPT2, FIC-MRCI
   Bernardo de Souza      : ESD, SOC TD-DFT
   Georgi Stoychev        : AutoAux, RI-MP2 NMR, DLPNO-MP2 response
   Willem Van den Heuvel  : Paramagnetic NMR
   Boris Wezisla          : Elementary symmetry handling
   Frank Wennmohs         : Technical directorship


 We gratefully acknowledge several colleagues who have allowed us to
 interface, adapt or use parts of their codes:
   Stefan Grimme, W. Hujo, H. Kruse, P. Pracht,  : VdW corrections, initial TS optimization,
                  C. Bannwarth, S. Ehlert          DFT functionals, gCP, sTDA/sTD-DF
   Ed Valeev, F. Pavosevic, A. Kumar             : LibInt (2-el integral package), F12 methods
   Garnet Chan, S. Sharma, J. Yang, R. Olivares  : DMRG
   Ulf Ekstrom                                   : XCFun DFT Library
   Mihaly Kallay                                 : mrcc  (arbitrary order and MRCC methods)
   Jiri Pittner, Ondrej Demel                    : Mk-CCSD
   Frank Weinhold                                : gennbo (NPA and NBO analysis)
   Christopher J. Cramer and Donald G. Truhlar   : smd solvation model
   Lars Goerigk                                  : TD-DFT with DH, B97 family of functionals
   V. Asgeirsson, H. Jonsson                     : NEB implementation
   FAccTs GmbH                                   : IRC, NEB, NEB-TS, DLPNO-Multilevel, CI-OPT
                                                   MM, QMMM, 2- and 3-layer-ONIOM, Crystal-QMMM,
                                                   LR-CPCM, SF, NACMEs, symmetry and pop. for TD-DFT,
                                                   nearIR, NL-DFT gradient (VV10), updates on ESD,
                                                   ML-optimized integration grids
   S Lehtola, MJT Oliveira, MAL Marques          : LibXC Library
   Liviu Ungur et al                             : ANISO software


 Your calculation uses the libint2 library for the computation of 2-el integrals
 For citations please refer to: http://libint.valeyev.net

 Your ORCA version has been built with support for libXC version: 5.1.0
 For citations please refer to: https://tddft.org/programs/libxc/

 This ORCA versions uses:
   CBLAS   interface :  Fast vector & matrix operations
   LAPACKE interface :  Fast linear algebra routines
   SCALAPACK package :  Parallel linear algebra routines
   Shared memory     :  Shared parallel matrices
   BLAS/LAPACK       :  OpenBLAS 0.3.15  USE64BITINT DYNAMIC_ARCH NO_AFFINITY Haswell SINGLE_THREADED
        Core in use  :  Haswell
   Copyright (c) 2011-2014, The OpenBLAS Project


================================================================================

----- Orbital basis set information -----
Your calculation utilizes the basis: def2-SVP
   F. Weigend and R. Ahlrichs, Phys. Chem. Chem. Phys. 7, 3297 (2005).

================================================================================
                                        WARNINGS
                       Please study these warnings very carefully!
================================================================================


INFO   : the flag for use of the SHARK integral package has been found!

================================================================================
                                       INPUT FILE
================================================================================
NAME = inp.inp
|  1> !SP HF def2-SVP CPCM(water)
|  2> 
|  3> *xyz -1 1
|  4> C           -1.13767655260094       -0.72916024477389        0.64537205426005
|  5> C           -3.02419669808064        2.11232125050496       -0.21961084024827
|  6> F           -2.00886058928119       -1.61535443546618        0.19853059363140
|  7> F            0.00406683706142       -0.77484079908023       -0.01471584703152
|  8> F           -0.96338760568294       -0.81471721888917        1.95063305239769
|  9> O           -3.53388193737802        2.07748970007225        0.80361493316362
| 10> O           -2.50714845403771        2.13730774763228       -1.23940394617297
| 11> *
| 12> 
| 13>                          ****END OF INPUT****
================================================================================

                       ****************************
                       * Single Point Calculation *
                       ****************************

---------------------------------
CARTESIAN COORDINATES (ANGSTROEM)
---------------------------------
  C     -1.137677   -0.729160    0.645372
  C     -3.024197    2.112321   -0.219611
  F     -2.008861   -1.615354    0.198531
  F      0.004067   -0.774841   -0.014716
  F     -0.963388   -0.814717    1.950633
  O     -3.533882    2.077490    0.803615
  O     -2.507148    2.137308   -1.239404

----------------------------
CARTESIAN COORDINATES (A.U.)
----------------------------
  NO LB      ZA    FRAG     MASS         X           Y           Z
   0 C     6.0000    0    12.011   -2.149897   -1.377913    1.219576
   1 C     6.0000    0    12.011   -5.714904    3.991709   -0.415004
   2 F     9.0000    0    18.998   -3.796196   -3.052577    0.375168
   3 F     9.0000    0    18.998    0.007685   -1.464237   -0.027809
   4 F     9.0000    0    18.998   -1.820539   -1.539592    3.686162
   5 O     8.0000    0    15.999   -6.678069    3.925887    1.518612
   6 O     8.0000    0    15.999   -4.737824    4.038926   -2.342134

--------------------------------
INTERNAL COORDINATES (ANGSTROEM)
--------------------------------
 C      0   0   0     0.000000000000     0.00000000     0.00000000
 C      1   0   0     3.518688783497     0.00000000     0.00000000
 F      1   2   0     1.320594207287    96.02937524     0.00000000
 F      1   2   3     1.319613851970   111.64567440   116.81861574
 F      1   2   3     1.319622258867   111.48868495   243.23025984
 O      2   1   3     1.143670959427    89.67944265    89.35949104
 O      2   1   3     1.143652565510    89.68221192   269.32166562

---------------------------
INTERNAL COORDINATES (A.U.)
---------------------------
 C      0   0   0     0.000000000000     0.00000000     0.00000000
 C      1   0   0     6.649358151309     0.00000000     0.00000000
 F      1   2   0     2.495561385815    96.02937524     0.00000000
 F      1   2   3     2.493708782752   111.64567440   116.81861574
 F      1   2   3     2.493724669485   111.48868495   243.23025984
 O      2   1   3     2.161224900637    89.67944265    89.35949104
 O      2   1   3     2.161190141171    89.68221192   269.32166562

---------------------
BASIS SET INFORMATION
---------------------
There are 3 groups of distinct atoms

 Group   1 Type C   : 7s4p1d contracted to 3s2p1d pattern {511/31/1}
 Group   2 Type F   : 7s4p1d contracted to 3s2p1d pattern {511/31/1}
 Group   3 Type O   : 7s4p1d contracted to 3s2p1d pattern {511/31/1}

Atom   0C    basis set group =>   1
Atom   1C    basis set group =>   1
Atom   2F    basis set group =>   2
Atom   3F    basis set group =>   2
Atom   4F    basis set group =>   2
Atom   5O    basis set group =>   3
Atom   6O    basis set group =>   3
------------------------------------------------------------------------------
                           ORCA GTO INTEGRAL CALCULATION
------------------------------------------------------------------------------
------------------------------------------------------------------------------
                   ___                                                        
                  /   \      - P O W E R E D   B Y -                         
                 /     \                                                     
                 |  |  |   _    _      __       _____    __    __             
                 |  |  |  | |  | |    /  \     |  _  \  |  |  /  |          
                  \  \/   | |  | |   /    \    | | | |  |  | /  /          
                 / \  \   | |__| |  /  /\  \   | |_| |  |  |/  /          
                |  |  |   |  __  | /  /__\  \  |    /   |      \           
                |  |  |   | |  | | |   __   |  |    \   |  |\   \          
                \     /   | |  | | |  |  |  |  | |\  \  |  | \   \       
                 \___/    |_|  |_| |__|  |__|  |_| \__\ |__|  \__/        
                                                                              
                      - O R C A' S   B I G   F R I E N D -                    
                                      &                                       
                       - I N T E G R A L  F E E D E R -                       
                                                                              
 v1 FN, 2020, v2 2021                                                         
------------------------------------------------------------------------------


Reading SHARK input file inp.SHARKINP.tmp ... ok
----------------------
SHARK INTEGRAL PACKAGE
----------------------

Number of atoms                             ...      7
Number of basis functions                   ...     98
Number of shells                            ...     42
Maximum angular momentum                    ...      2
Integral batch strategy                     ... SHARK/LIBINT Hybrid
RI-J (if used) integral strategy            ... SPLIT-RIJ (Revised 2003 algorithm where possible)
Printlevel                                  ...      1
Contraction scheme used                     ... SEGMENTED contraction
Coulomb Range Separation                    ... NOT USED
Exchange Range Separation                   ... NOT USED
Finite Nucleus Model                        ... NOT USED
Auxiliary Coulomb fitting basis             ... NOT available
Auxiliary J/K fitting basis                 ... NOT available
Auxiliary Correlation fitting basis         ... NOT available
Auxiliary 'external' fitting basis          ... NOT available
Integral threshold                          ...     1.000000e-10
Primitive cut-off                           ...     1.000000e-11
Primitive pair pre-selection threshold      ...     1.000000e-11

Calculating pre-screening integrals         ... done (  0.0 sec) Dimension = 42
Organizing shell pair data                  ... done (  0.0 sec)
Shell pair information
Total number of shell pairs                 ...       903
Shell pairs after pre-screening             ...       764
Total number of primitive shell pairs       ...      3661
Primitive shell pairs kept                  ...      2228
          la=0 lb=0:    188 shell pairs
          la=1 lb=0:    262 shell pairs
          la=1 lb=1:     99 shell pairs
          la=2 lb=0:    110 shell pairs
          la=2 lb=1:     84 shell pairs
          la=2 lb=2:     21 shell pairs

Calculating one electron integrals          ... done (  0.0 sec)
Calculating Nuclear repulsion               ... done (  0.0 sec) ENN=    277.249558915049 Eh

SHARK setup successfully completed in   0.7 seconds

Maximum memory used throughout the entire GTOINT-calculation: 8.5 MB
-------------------------------------------------------------------------------
                                 ORCA SCF
-------------------------------------------------------------------------------

------------
SCF SETTINGS
------------
Hamiltonian:
 Ab initio Hamiltonian  Method          .... Hartree-Fock(GTOs)


General Settings:
 Integral files         IntName         .... inp
 Hartree-Fock type      HFTyp           .... RHF
 Total Charge           Charge          ....   -1
 Multiplicity           Mult            ....    1
 Number of Electrons    NEL             ....   56
 Basis Dimension        Dim             ....   98
 Nuclear Repulsion      ENuc            ....    277.2495589150 Eh

Convergence Acceleration:
 DIIS                   CNVDIIS         .... on
   Start iteration      DIISMaxIt       ....    12
   Startup error        DIISStart       ....  0.200000
   # of expansion vecs  DIISMaxEq       ....     5
   Bias factor          DIISBfac        ....   1.050
   Max. coefficient     DIISMaxC        ....  10.000
 Trust-Rad. Augm. Hess. CNVTRAH         .... auto
   Auto Start mean grad. ratio tolernc. ....  1.125000
   Auto Start start iteration           ....    20
   Auto Start num. interpolation iter.  ....    10
   Max. Number of Micro iterations      ....    16
   Max. Number of Macro iterations      .... Maxiter - #DIIS iter
   Number of Davidson start vectors     ....     2
   Converg. threshold I  (grad. norm)   ....   5.000e-05
   Converg. threshold II (energy diff.) ....   1.000e-06
   Grad. Scal. Fac. for Micro threshold ....   0.100
   Minimum threshold for Micro iter.    ....   0.010
   NR start threshold (gradient norm)   ....   0.001
   Initial trust radius                 ....   0.400
   Minimum AH scaling param. (alpha)    ....   1.000
   Maximum AH scaling param. (alpha)    .... 1000.000
   Orbital update algorithm             .... Taylor
   White noise on init. David. guess    .... on
   Maximum white noise                  ....   0.010
   Quad. conv. algorithm                .... NR
 SOSCF                  CNVSOSCF        .... on
   Start iteration      SOSCFMaxIt      ....   150
   Startup grad/error   SOSCFStart      ....  0.003300
 Level Shifting         CNVShift        .... on
   Level shift para.    LevelShift      ....    0.2500
   Turn off err/grad.   ShiftErr        ....    0.0010
 Zerner damping         CNVZerner       .... off
 Static damping         CNVDamp         .... on
   Fraction old density DampFac         ....    0.7000
   Max. Damping (<1)    DampMax         ....    0.9800
   Min. Damping (>=0)   DampMin         ....    0.0000
   Turn off err/grad.   DampErr         ....    0.1000
 Fernandez-Rico         CNVRico         .... off

SCF Procedure:
 Maximum # iterations   MaxIter         ....   125
 SCF integral mode      SCFMode         .... Direct
   Integral package                     .... SHARK and LIBINT hybrid scheme
 Reset frequency        DirectResetFreq ....    20
 Integral Threshold     Thresh          ....  1.000e-10 Eh
 Primitive CutOff       TCut            ....  1.000e-11 Eh

Convergence Tolerance:
 Convergence Check Mode ConvCheckMode   .... Total+1el-Energy
 Convergence forced     ConvForced      .... 0
 Energy Change          TolE            ....  1.000e-06 Eh
 1-El. energy change                    ....  1.000e-03 Eh
 Orbital Gradient       TolG            ....  5.000e-05
 Orbital Rotation angle TolX            ....  5.000e-05
 DIIS Error             TolErr          ....  1.000e-06


Diagonalization of the overlap matrix:
Smallest eigenvalue                        ... 8.651e-03
Time for diagonalization                   ...    0.003 sec
Threshold for overlap eigenvalues          ... 1.000e-08
Number of eigenvalues below threshold      ... 0
Time for construction of square roots      ...    0.118 sec
Total time needed                          ...    0.121 sec

Time for model grid setup =    0.273 sec

------------------------------
INITIAL GUESS: MODEL POTENTIAL
------------------------------
Loading Hartree-Fock densities                     ... done
Calculating cut-offs                               ... done
Initializing the effective Hamiltonian             ... done
Setting up the integral package (SHARK)            ... done
Starting the Coulomb interaction                   ... done (   0.2 sec)
Reading the grid                                   ... done
Mapping shells                                     ... done
Starting the XC term evaluation                    ... done (   0.0 sec)
Transforming the Hamiltonian                       ... done (   0.0 sec)
Diagonalizing the Hamiltonian                      ... done (   0.0 sec)
Back transforming the eigenvectors                 ... done (   0.0 sec)
Now organizing SCF variables                       ... done
                      ------------------
                      INITIAL GUESS DONE (   0.5 sec)
                      ------------------

--------------------
CPCM SOLVATION MODEL
--------------------
CPCM parameters:
  Epsilon                                         ...      80.4000
  Refrac                                          ...       1.3300
  Rsolv                                           ...       1.3000
  Surface type                                    ... GAUSSIAN VDW
  Epsilon function type                           ...         CPCM
Radii:
 Radius for C  used is    3.8550 Bohr (=   2.0400 Ang.)
 Radius for F  used is    3.3335 Bohr (=   1.7640 Ang.)
 Radius for O  used is    3.4469 Bohr (=   1.8240 Ang.)
Calculating surface                               ...        done! (  0.0s)
GEPOL surface points                              ...          568
GEPOL Volume                                      ...     761.4046
GEPOL Surface-area                                ...     514.5926
Calculating surface distance matrix               ...        done! (  0.0s)
Performing Cholesky decomposition & store         ...        done! (  2.7s)
Overall time for CPCM initialization              ...                 2.7s
--------------
SCF ITERATIONS
--------------
ITER       Energy         Delta-E        Max-DP      RMS-DP      [F,P]     Damp
               ***  Starting incremental Fock matrix formation  ***
  0   -523.2401336764   0.000000000000 0.06004025  0.00230643  0.2009571 0.7000
  1   -523.2971897630  -0.057056086603 0.05243179  0.00168805  0.1226160 0.7000
                               ***Turning on DIIS***
  2   -523.3309896555  -0.033799892525 0.12476738  0.00361585  0.0689799 0.0000
  3   -523.1232650842   0.207724571297 0.02514348  0.00100960  0.0351070 0.0000
  4   -523.4710217597  -0.347756675464 0.01235530  0.00030069  0.0066310 0.0000
                      *** Initiating the SOSCF procedure ***
                           *** Shutting down DIIS ***
                      *** Re-Reading the Fockian *** 
                      *** Removing any level shift *** 
ITER      Energy       Delta-E        Grad      Rot      Max-DP    RMS-DP
  5   -523.40381346   0.0672082950  0.001389  0.001389  0.002710  0.000118
               *** Restarting incremental Fock matrix formation ***
  6   -523.40389033  -0.0000768614  0.000534  0.001122  0.002362  0.000074
  7   -523.40389838  -0.0000080510  0.000235  0.000689  0.001490  0.000050
  8   -523.40389996  -0.0000015809  0.000060  0.000063  0.000318  0.000006
                 **** Energy Check signals convergence ****
              ***Rediagonalizing the Fockian in SOSCF/NRSCF***

               *****************************************************
               *                     SUCCESS                       *
               *           SCF CONVERGED AFTER   9 CYCLES          *
               *****************************************************


----------------
TOTAL SCF ENERGY
----------------

Total Energy       :         -523.40390000 Eh          -14242.54420 eV

Components:
Nuclear Repulsion  :          277.24955892 Eh            7544.34405 eV
Electronic Energy  :         -800.65345891 Eh          -21786.88824 eV
One Electron Energy:        -1289.62820237 Eh          -35092.56746 eV
Two Electron Energy:          488.97474346 Eh           13305.67922 eV
CPCM Dielectric    :           -0.10568768 Eh              -2.87591 eV

Virial components:
Potential Energy   :        -1046.25797729 Eh          -28470.12696 eV
Kinetic Energy     :          522.85407729 Eh           14227.58276 eV
Virial Ratio       :            2.00105158

CPCM Solvation Model Properties:
Surface-charge          :            0.99639464
Charge-correction       :           -0.00053480 Eh              -0.01455 eV
Free-energy (cav+disp)  :  This term is not implemented in the current solvation scheme

---------------
SCF CONVERGENCE
---------------

  Last Energy change         ...   -3.8198e-08  Tolerance :   1.0000e-06
  Last MAX-Density change    ...    1.1775e-04  Tolerance :   1.0000e-05
  Last RMS-Density change    ...    2.1338e-06  Tolerance :   1.0000e-06
  Last Orbital Gradient      ...    1.9818e-05  Tolerance :   5.0000e-05
  Last Orbital Rotation      ...    2.5984e-05  Tolerance :   5.0000e-05

             **** THE GBW FILE WAS UPDATED (inp.gbw) ****
             **** DENSITY inp.scfp WAS UPDATED ****
             **** ENERGY FILE WAS UPDATED (inp.en.tmp) ****
             **** THE GBW FILE WAS UPDATED (inp.gbw) ****
             **** DENSITY inp.scfp WAS UPDATED ****
----------------
ORBITAL ENERGIES
----------------

  NO   OCC          E(Eh)            E(eV) 
   0   2.0000     -26.248303      -714.2526 
   1   2.0000     -26.248242      -714.2510 
   2   2.0000     -26.247338      -714.2264 
   3   2.0000     -20.627070      -561.2911 
   4   2.0000     -20.626994      -561.2890 
   5   2.0000     -11.451070      -311.5995 
   6   2.0000     -11.310167      -307.7653 
   7   2.0000      -1.622442       -44.1489 
   8   2.0000      -1.536424       -41.8082 
   9   2.0000      -1.535756       -41.7900 
  10   2.0000      -1.508228       -41.0410 
  11   2.0000      -1.457965       -39.6732 
  12   2.0000      -0.862646       -23.4738 
  13   2.0000      -0.775507       -21.1026 
  14   2.0000      -0.746808       -20.3217 
  15   2.0000      -0.746664       -20.3178 
  16   2.0000      -0.733371       -19.9560 
  17   2.0000      -0.713328       -19.4106 
  18   2.0000      -0.708200       -19.2711 
  19   2.0000      -0.704296       -19.1649 
  20   2.0000      -0.637437       -17.3455 
  21   2.0000      -0.637304       -17.3419 
  22   2.0000      -0.601754       -16.3746 
  23   2.0000      -0.601539       -16.3687 
  24   2.0000      -0.580263       -15.7898 
  25   2.0000      -0.531514       -14.4632 
  26   2.0000      -0.531174       -14.4540 
  27   2.0000      -0.220312        -5.9950 
  28   0.0000       0.232716         6.3325 
  29   0.0000       0.239823         6.5259 
  30   0.0000       0.255749         6.9593 
  31   0.0000       0.423881        11.5344 
  32   0.0000       0.432898        11.7798 
  33   0.0000       0.467560        12.7230 
  34   0.0000       0.536686        14.6040 
  35   0.0000       0.588710        16.0196 
  36   0.0000       0.624779        17.0011 
  37   0.0000       0.678196        18.4546 
  38   0.0000       0.728023        19.8105 
  39   0.0000       0.817160        22.2361 
  40   0.0000       0.820678        22.3318 
  41   0.0000       0.909663        24.7532 
  42   0.0000       1.014001        27.5924 
  43   0.0000       1.040120        28.3031 
  44   0.0000       1.185613        32.2622 
  45   0.0000       1.194184        32.4954 
  46   0.0000       1.388825        37.7919 
  47   0.0000       1.395931        37.9852 
  48   0.0000       1.416133        38.5349 
  49   0.0000       1.418217        38.5916 
  50   0.0000       1.437519        39.1169 
  51   0.0000       1.458038        39.6752 
  52   0.0000       1.459705        39.7206 
  53   0.0000       1.503882        40.9227 
  54   0.0000       1.525077        41.4994 
  55   0.0000       1.682280        45.7772 
  56   0.0000       1.690043        45.9884 
  57   0.0000       1.714867        46.6639 
  58   0.0000       1.715745        46.6878 
  59   0.0000       1.794746        48.8375 
  60   0.0000       1.810055        49.2541 
  61   0.0000       1.855767        50.4980 
  62   0.0000       1.890046        51.4308 
  63   0.0000       1.891849        51.4798 
  64   0.0000       1.971375        53.6438 
  65   0.0000       1.981006        53.9059 
  66   0.0000       2.103360        57.2353 
  67   0.0000       2.112377        57.4807 
  68   0.0000       2.145005        58.3685 
  69   0.0000       2.252794        61.3016 
  70   0.0000       2.466620        67.1201 
  71   0.0000       2.469242        67.1915 
  72   0.0000       2.910733        79.2051 
  73   0.0000       2.911213        79.2181 
  74   0.0000       3.053987        83.1032 
  75   0.0000       3.054121        83.1069 
  76   0.0000       3.175080        86.3983 
  77   0.0000       3.177299        86.4587 
  78   0.0000       3.312331        90.1331 
  79   0.0000       3.451726        93.9263 
  80   0.0000       3.473093        94.5077 
  81   0.0000       3.473220        94.5111 
  82   0.0000       3.480373        94.7058 
  83   0.0000       3.486300        94.8670 
  84   0.0000       3.486695        94.8778 
  85   0.0000       3.486843        94.8818 
  86   0.0000       3.665461        99.7423 
  87   0.0000       3.666396        99.7677 
  88   0.0000       3.796267       103.3017 
  89   0.0000       4.001172       108.8774 
  90   0.0000       4.001409       108.8839 
  91   0.0000       4.009296       109.0985 
  92   0.0000       4.030141       109.6657 
  93   0.0000       4.035291       109.8059 
  94   0.0000       4.232067       115.1604 
  95   0.0000       4.331029       117.8533 
  96   0.0000       4.378761       119.1521 
  97   0.0000       4.379854       119.1819 

                    ********************************
                    * MULLIKEN POPULATION ANALYSIS *
                    ********************************

-----------------------
MULLIKEN ATOMIC CHARGES
-----------------------
   0 C :    0.132198
   1 C :    0.580476
   2 F :   -0.364186
   3 F :   -0.359736
   4 F :   -0.359804
   5 O :   -0.314411
   6 O :   -0.314538
Sum of atomic charges:   -1.0000000

--------------------------------
MULLIKEN REDUCED ORBITAL CHARGES
--------------------------------
  0 C s       :     3.357821  s :     3.357821
      pz      :     0.524082  p :     2.349435
      px      :     0.628213
      py      :     1.197140
      dz2     :     0.044896  d :     0.160547
      dxz     :     0.040933
      dyz     :     0.022177
      dx2y2   :     0.024449
      dxy     :     0.028091
  1 C s       :     2.942053  s :     2.942053
      pz      :     0.881420  p :     2.289870
      px      :     0.730255
      py      :     0.678195
      dz2     :     0.054745  d :     0.187601
      dxz     :     0.044992
      dyz     :     0.059457
      dx2y2   :     0.013270
      dxy     :     0.015137
  2 F s       :     3.900657  s :     3.900657
      pz      :     1.895052  p :     5.455152
      px      :     1.769306
      py      :     1.790793
      dz2     :     0.000900  d :     0.008378
      dxz     :     0.001545
      dyz     :     0.001076
      dx2y2   :     0.001966
      dxy     :     0.002891
  3 F s       :     3.898600  s :     3.898600
      pz      :     1.841553  p :     5.452735
      px      :     1.659047
      py      :     1.952135
      dz2     :     0.000874  d :     0.008401
      dxz     :     0.003207
      dyz     :     0.000531
      dx2y2   :     0.002171
      dxy     :     0.001619
  4 F s       :     3.898605  s :     3.898605
      pz      :     1.565035  p :     5.452799
      px      :     1.936280
      py      :     1.951483
      dz2     :     0.004838  d :     0.008401
      dxz     :     0.001431
      dyz     :     0.002025
      dx2y2   :     0.000035
      dxy     :     0.000072
  5 O s       :     3.742591  s :     3.742591
      pz      :     1.364590  p :     4.544977
      px      :     1.560085
      py      :     1.620302
      dz2     :     0.009295  d :     0.026842
      dxz     :     0.008220
      dyz     :     0.006255
      dx2y2   :     0.001557
      dxy     :     0.001516
  6 O s       :     3.742515  s :     3.742515
      pz      :     1.372193  p :     4.545180
      px      :     1.551919
      py      :     1.621067
      dz2     :     0.009214  d :     0.026843
      dxz     :     0.008219
      dyz     :     0.006130
      dx2y2   :     0.001646
      dxy     :     0.001633


                     *******************************
                     * LOEWDIN POPULATION ANALYSIS *
                     *******************************

----------------------
LOEWDIN ATOMIC CHARGES
----------------------
   0 C :   -0.334756
   1 C :    0.268253
   2 F :   -0.205165
   3 F :   -0.203449
   4 F :   -0.203527
   5 O :   -0.160594
   6 O :   -0.160762

-------------------------------
LOEWDIN REDUCED ORBITAL CHARGES
-------------------------------
  0 C s       :     3.160347  s :     3.160347
      pz      :     0.704330  p :     2.810775
      px      :     0.799276
      py      :     1.307169
      dz2     :     0.101873  d :     0.363634
      dxz     :     0.090556
      dyz     :     0.047242
      dx2y2   :     0.057703
      dxy     :     0.066260
  1 C s       :     2.814298  s :     2.814298
      pz      :     1.036881  p :     2.548469
      px      :     0.795736
      py      :     0.715852
      dz2     :     0.111947  d :     0.368980
      dxz     :     0.093862
      dyz     :     0.109992
      dx2y2   :     0.025203
      dxy     :     0.027975
  2 F s       :     3.732336  s :     3.732336
      pz      :     1.875319  p :     5.459747
      px      :     1.766286
      py      :     1.818142
      dz2     :     0.001370  d :     0.013081
      dxz     :     0.002013
      dyz     :     0.001518
      dx2y2   :     0.003792
      dxy     :     0.004389
  3 F s       :     3.731862  s :     3.731862
      pz      :     1.829233  p :     5.458442
      px      :     1.685669
      py      :     1.943541
      dz2     :     0.001253  d :     0.013145
      dxz     :     0.004408
      dyz     :     0.000978
      dx2y2   :     0.003300
      dxy     :     0.003206
  4 F s       :     3.731879  s :     3.731879
      pz      :     1.599286  p :     5.458503
      px      :     1.915609
      py      :     1.943608
      dz2     :     0.006859  d :     0.013145
      dxz     :     0.002071
      dyz     :     0.004031
      dx2y2   :     0.000041
      dxy     :     0.000144
  5 O s       :     3.514663  s :     3.514663
      pz      :     1.482469  p :     4.606725
      px      :     1.552030
      py      :     1.572226
      dz2     :     0.015188  d :     0.039206
      dxz     :     0.013805
      dyz     :     0.006632
      dx2y2   :     0.001961
      dxy     :     0.001620
  6 O s       :     3.514655  s :     3.514655
      pz      :     1.487395  p :     4.606901
      px      :     1.546780
      py      :     1.572726
      dz2     :     0.014891  d :     0.039206
      dxz     :     0.014017
      dyz     :     0.006496
      dx2y2   :     0.002081
      dxy     :     0.001721


                      *****************************
                      * MAYER POPULATION ANALYSIS *
                      *****************************

  NA   - Mulliken gross atomic population
  ZA   - Total nuclear charge
  QA   - Mulliken gross atomic charge
  VA   - Mayer's total valence
  BVA  - Mayer's bonded valence
  FA   - Mayer's free valence

  ATOM       NA         ZA         QA         VA         BVA        FA
  0 C      5.8678     6.0000     0.1322     2.6472     2.6472     0.0000
  1 C      5.4195     6.0000     0.5805     4.2627     4.2627     0.0000
  2 F      9.3642     9.0000    -0.3642     0.8443     0.8443    -0.0000
  3 F      9.3597     9.0000    -0.3597     0.8432     0.8432    -0.0000
  4 F      9.3598     9.0000    -0.3598     0.8432     0.8432     0.0000
  5 O      8.3144     8.0000    -0.3144     2.2292     2.2292    -0.0000
  6 O      8.3145     8.0000    -0.3145     2.2289     2.2289     0.0000

  Mayer bond orders larger than 0.100000
B(  0-C ,  1-C ) :   0.1060 B(  0-C ,  2-F ) :   0.8519 B(  0-C ,  3-F ) :   0.8492 
B(  0-C ,  4-F ) :   0.8491 B(  1-C ,  5-O ) :   2.0765 B(  1-C ,  6-O ) :   2.0763 
B(  5-O ,  6-O ) :   0.1571 

-------
TIMINGS
-------

Total SCF time: 0 days 0 hours 0 min 14 sec 

Total time                  ....      14.463 sec
Sum of individual times     ....       9.005 sec  ( 62.3%)

Fock matrix formation       ....       7.803 sec  ( 53.9%)
Diagonalization             ....       0.011 sec  (  0.1%)
Density matrix formation    ....       0.001 sec  (  0.0%)
Population analysis         ....       0.200 sec  (  1.4%)
Initial guess               ....       0.194 sec  (  1.3%)
Orbital Transformation      ....       0.000 sec  (  0.0%)
Orbital Orthonormalization  ....       0.000 sec  (  0.0%)
DIIS solution               ....       0.382 sec  (  2.6%)
SOSCF solution              ....       0.143 sec  (  1.0%)

Maximum memory used throughout the entire SCF-calculation: 231.6 MB

-------------------------   --------------------
FINAL SINGLE POINT ENERGY      -523.403899996268
-------------------------   --------------------


                            ***************************************
                            *     ORCA property calculations      *
                            ***************************************

                                    ---------------------
                                    Active property flags
                                    ---------------------
   (+) Dipole Moment


------------------------------------------------------------------------------
                       ORCA ELECTRIC PROPERTIES CALCULATION
------------------------------------------------------------------------------

Dipole Moment Calculation                       ... on
Quadrupole Moment Calculation                   ... off
Polarizability Calculation                      ... off
GBWName                                         ... inp.gbw
Electron density                                ... inp.scfp
The origin for moment calculation is the CENTER OF MASS  = (-3.394869,  0.387242  0.646973)

-------------
DIPOLE MOMENT
-------------
                                X             Y             Z
Electronic contribution:      1.34516      -2.45431       0.60988
Nuclear contribution   :     -2.27960       3.59533      -1.04258
                        -----------------------------------------
Total Dipole Moment    :     -0.93445       1.14102      -0.43269
                        -----------------------------------------
Magnitude (a.u.)       :      1.53699
Magnitude (Debye)      :      3.90672



--------------------
Rotational spectrum 
--------------------
 
Rotational constants in cm-1:     0.128006     0.038390     0.034951 
Rotational constants in MHz :  3837.512689  1150.896351  1047.814635 

 Dipole components along the rotational axes: 
x,y,z [a.u.] :    -1.529691     0.002874    -0.149605 
x,y,z [Debye]:    -3.888166     0.007306    -0.380265 

 

Timings for individual modules:

Sum of individual times         ...       15.517 sec (=   0.259 min)
GTO integral calculation        ...        0.901 sec (=   0.015 min)   5.8 %
SCF iterations                  ...       14.616 sec (=   0.244 min)  94.2 %
                             ****ORCA TERMINATED NORMALLY****
TOTAL RUN TIME: 0 days 0 hours 0 minutes 16 seconds 397 msec
