7
 energy: -26.501382171300 gnorm: 0.182445097033 xtb: 6.7.1 (edcfbbe)
C           -1.56198100000000       -0.16881800000000        0.44944300000000
C           -2.35996600000000        1.12691500000000        0.08533100000000
F           -2.25719300000000       -1.28173200000000        0.08158500000000
F           -0.35361500000000       -0.21756800000000       -0.17791700000000
F           -1.32296200000000       -0.26160000000000        1.78750400000000
O           -3.16643300000000        1.57042500000000        0.96689900000000
O           -2.14893500000000        1.62542400000000       -1.06842500000000
7
 energy: -26.520376310313 gnorm: 0.110149283812 xtb: 6.7.1 (edcfbbe)
C           -1.55937074410824       -0.16715277615073        0.45076130530078
C           -2.36727018476379        1.14590606465039        0.08215255612206
F           -2.26473969829161       -1.24308649359584        0.07873884587868
F           -0.37716244540180       -0.20122534736601       -0.17345845771172
F           -1.33411772089723       -0.24456496856380        1.76673838177941
O           -3.13577211068772        1.52437904378460        0.96315201694913
O           -2.13265209584959        1.57879047724139       -1.04366464831834
7
 energy: -26.531999545088 gnorm: 0.046941567971 xtb: 6.7.1 (edcfbbe)
C           -1.54932359442947       -0.17910617868792        0.45541002876886
C           -2.40897933432070        1.18551779055815        0.06231136696903
F           -2.26603245325965       -1.20769744316943        0.07889943202850
F           -0.40078988787503       -0.18780048594394       -0.16473426250616
F           -1.34199625157605       -0.23009787433491        1.74319514736715
O           -3.10411816975615        1.47871983512786        0.97944821065546
O           -2.09984530878295        1.53351035645020       -1.03010992328284
7
 energy: -26.535357405295 gnorm: 0.031837739710 xtb: 6.7.1 (edcfbbe)
C           -1.53021526035943       -0.18857987497984        0.46466331020354
C           -2.40770261106968        1.23946853828729        0.06438421765166
F           -2.28272488035125       -1.18322664740885        0.07126537260546
F           -0.39117135018372       -0.19782029553649       -0.16243605338386
F           -1.33409528452438       -0.24013129521778        1.74909560772529
O           -3.12230822888943        1.45369360819210        0.98877994407729
O           -2.10286738462211        1.50964196666357       -1.05133239887938
7
 energy: -26.538918332511 gnorm: 0.031843000265 xtb: 6.7.1 (edcfbbe)
C           -1.51077795696441       -0.22291161111426        0.47342083498998
C           -2.47768181267352        1.28024796012065        0.03053226188698
F           -2.28028341306263       -1.20011014059796        0.07208088503069
F           -0.37579867730877       -0.20209478895208       -0.16537335291708
F           -1.32723508969466       -0.24438583850490        1.76286114121436
O           -3.11703203800252        1.46262170863835        1.01104727963608
O           -2.08227601229349        1.51967871041020       -1.06014904984100
7
 energy: -26.543788153470 gnorm: 0.021927611568 xtb: 6.7.1 (edcfbbe)
C           -1.47415399872267       -0.26593482079407        0.49055440733036
C           -2.52654850075331        1.36695096010559        0.00855955105875
F           -2.28072496191926       -1.21539229837340        0.07151919435506
F           -0.34076862877253       -0.23554922951667       -0.16280234813667
F           -1.30320315895060       -0.27831662920528        1.78783295869498
O           -3.13881168657022        1.48215373748589        0.99711535746039
O           -2.10687406431142        1.53913428029794       -1.06835912076288
7
 energy: -26.552277841255 gnorm: 0.019470726564 xtb: 6.7.1 (edcfbbe)
C           -1.38268368252789       -0.39145642921063        0.53269430851110
C           -2.68275862172785        1.59952797897736       -0.06318378212314
F           -2.25191684213147       -1.28512673906014        0.08421870430671
F           -0.25665011650844       -0.32974452846632       -0.15121507005503
F           -1.24145775561632       -0.37293997335792        1.84384927368550
O           -3.19025214300932        1.55785054721677        0.96497304130048
O           -2.16536583847871        1.61493514390089       -1.08691647562562
7
 energy: -26.554275984561 gnorm: 0.028896746763 xtb: 6.7.1 (edcfbbe)
C           -1.36799987346601       -0.41388274371699        0.53955333740567
C           -2.71831427054918        1.65356083219814       -0.07912617854738
F           -2.22102922643225       -1.31918567938935        0.09855336329029
F           -0.23540437965583       -0.37423742814018       -0.13628315430223
F           -1.21539751854935       -0.41787826965363        1.85002822487394
O           -3.21505837241831        1.60444445857253        0.94346166685463
O           -2.19788135892909        1.66022483012949       -1.09176725957491
7
 energy: -26.556314100288 gnorm: 0.017159917060 xtb: 6.7.1 (edcfbbe)
C           -1.35208589206333       -0.43271175868794        0.54614505142884
C           -2.76060285182383        1.72532378901324       -0.09978881323462
F           -2.17769777036285       -1.36320936295176        0.11952420021318
F           -0.20599811071865       -0.44231265928576       -0.10908673153226
F           -1.17708660921565       -0.48235451458833        1.85401327767522
O           -3.25807911478328        1.66429278609931        0.92853482346422
O           -2.23953465103241        1.72401772040124       -1.11492180801459
7
 energy: -26.556814423775 gnorm: 0.034125773789 xtb: 6.7.1 (edcfbbe)
C           -1.34228381580033       -0.44655664381789        0.55374139616938
C           -2.78502405286792        1.75324740027339       -0.10501975406424
F           -2.15410368854295       -1.39413925074605        0.12786574868354
F           -0.19089858639358       -0.47248654366462       -0.09756530810308
F           -1.14864489634638       -0.52491302648184        1.85923176937076
O           -3.28901282553748        1.71692063415286        0.91305130716602
O           -2.26111713451135        1.76097343028414       -1.12688515922238
7
 energy: -26.557212934268 gnorm: 0.034664577575 xtb: 6.7.1 (edcfbbe)
C           -1.31777252593357       -0.47566712489459        0.56007238967608
C           -2.81467459703522        1.79553134396337       -0.12858811380285
F           -2.13392523667881       -1.43147648083667        0.14071401269140
F           -0.15850938193803       -0.52439409551437       -0.07811087109631
F           -1.12850401280468       -0.55680125140115        1.86897338775190
O           -3.31552859400556        1.75883948954014        0.90461669886622
O           -2.30217065160414        1.82701411914327       -1.14325750408644
7
 energy: -26.557714695166 gnorm: 0.016277523071 xtb: 6.7.1 (edcfbbe)
C           -1.29587347299367       -0.50590055056711        0.57198406293275
C           -2.84130326702417        1.83289731647799       -0.13732785938290
F           -2.13005105366343       -1.44425479047124        0.14137167383703
F           -0.14490620614414       -0.53764484109331       -0.07883172207285
F           -1.11425517092837       -0.57689153450633        1.88047294121632
O           -3.33299030795486        1.78219915573523        0.89759184371367
O           -2.31170552129134        1.84264124442477       -1.15084094024402
7
 energy: -26.558080225424 gnorm: 0.009963635678 xtb: 6.7.1 (edcfbbe)
C           -1.28096882518168       -0.52806222662086        0.58015851748425
C           -2.84775572717574        1.84528934113969       -0.13757047347812
F           -2.12248143370548       -1.45537649968177        0.14424483232099
F           -0.13807044868493       -0.54881108345787       -0.07852098313214
F           -1.10467693392175       -0.59298712928741        1.88580036107873
O           -3.35134396752278        1.80920434129903        0.88739729706289
O           -2.32578766380764        1.86378925660920       -1.15708955133661
7
 energy: -26.558276512038 gnorm: 0.005864110240 xtb: 6.7.1 (edcfbbe)
C           -1.25739262803245       -0.56245569923984        0.59069292121524
C           -2.87112669587681        1.88296973583272       -0.14877278390852
F           -2.10498563101802       -1.48045089303313        0.15281023174544
F           -0.11777420940042       -0.58151870570925       -0.07068088989880
F           -1.08596476787447       -0.62432709481012        1.89573921808257
O           -3.37958351500254        1.85120270669985        0.87455548145112
O           -2.35425755279529        1.90762595025976       -1.16992417868705
7
 energy: -26.558395331703 gnorm: 0.002333310512 xtb: 6.7.1 (edcfbbe)
C           -1.23184663468805       -0.60014681449018        0.60207325946316
C           -2.90313050244017        1.93264498665302       -0.16405501123657
F           -2.08307209022911       -1.51116762627028        0.16346554750518
F           -0.09178623799380       -0.62311274889699       -0.05921302284803
F           -1.06092067571352       -0.66434698862019        1.90758638034567
O           -3.41261145505882        1.90038380713271        0.85945575500645
O           -2.38771740387652        1.95879138449191       -1.18489290823586
7
 energy: -26.558466310779 gnorm: 0.000988720187 xtb: 6.7.1 (edcfbbe)
C           -1.20418409393458       -0.64019673863715        0.61467447217517
C           -2.94033481330436        1.98913620496868       -0.18126558028524
F           -2.05950870245267       -1.54466471444824        0.17467246303195
F           -0.06224581474975       -0.66970012533092       -0.04535647074881
F           -1.03101203101657       -0.71022745275347        1.92070215618845
O           -3.44948797605517        1.95473231688210        0.84246907086090
O           -2.42431156848689        2.01396650931900       -1.20147611122242
7
 energy: -26.558503089411 gnorm: 0.001282150598 xtb: 6.7.1 (edcfbbe)
C           -1.16576251969625       -0.69401584136596        0.63239676990508
C           -2.99096725372237        2.06462348493344       -0.20434147246541
F           -2.02865030814212       -1.58898498190405        0.18917283827839
F           -0.02214181087369       -0.73270407373860       -0.02624526060547
F           -0.98958317010614       -0.77295471975114        1.93845932896128
O           -3.50007818499274        2.02881435197838        0.81914136633420
O           -2.47390175246670        2.08826777984794       -1.22416357040808
7
 energy: -26.558509208684 gnorm: 0.000523931002 xtb: 6.7.1 (edcfbbe)
C           -1.15079723158545       -0.71332809087554        0.63930973164420
C           -3.00859878321095        2.09010655181150       -0.21242581541079
F           -2.01799972285172       -1.60373955947072        0.19419829280545
F           -0.00820602271475       -0.75500999312315       -0.02003274244546
F           -0.97554233816360       -0.79508777223890        1.94489407239939
O           -3.51823421781148        2.05523893884093        0.81081084965887
O           -2.49170668366205        2.11486592505589       -1.23233438865167
7
 energy: -26.558511562653 gnorm: 0.000283405635 xtb: 6.7.1 (edcfbbe)
C           -1.13767655260094       -0.72916024477389        0.64537205426005
C           -3.02419669808064        2.11232125050496       -0.21961084024827
F           -2.00886058928119       -1.61535443546618        0.19853059363140
F            0.00406683706142       -0.77484079908023       -0.01471584703152
F           -0.96338760568294       -0.81471721888917        1.95063305239769
O           -3.53388193737802        2.07748970007225        0.80361493316362
O           -2.50714845403771        2.13730774763228       -1.23940394617297
