7
 energy: -26.558511562669 gnorm: 0.000283129548 xtb: 6.7.1 (edcfbbe)
C           -1.13767655260094       -0.72916024477389        0.64537205426005
C           -3.02419669808064        2.11232125050496       -0.21961084024827
F           -2.00886058928119       -1.61535443546618        0.19853059363140
F            0.00406683706142       -0.77484079908023       -0.01471584703152
F           -0.96338760568294       -0.81471721888917        1.95063305239769
O           -3.53388193737802        2.07748970007225        0.80361493316362
O           -2.50714845403771        2.13730774763228       -1.23940394617297
