 Entering Gaussian System
 *********************************************
 Gaussian 98:
 frequency output generated by the xtb code
 *********************************************
                         Standard orientation:
 --------------------------------------------------------------------
  Center     Atomic     Atomic              Coordinates (Angstroms)
  Number     Number      Type              X           Y           Z
 --------------------------------------------------------------------
    1          6             0       -5.341168   -3.656850    0.544371
    2          6             0       -6.346978   -4.222760    1.186989
    3          8             0       -8.290984   -5.554160    1.226942
    4          1             0       -5.236931   -3.819871   -0.516580
    5          8             0       -7.248123   -5.307777   -0.727873
    6          6             0       -7.375034   -5.098775    0.499845
    7          1             0       -4.611410   -3.033518    1.033743
    8          1             0       -6.511857   -4.099546    2.249383
 --------------------------------------------------------------------
     1 basis functions        1 primitive gaussians
     1 alpha electrons        1 beta electrons
 
 Harmonic frequencies (cm**-1), IR intensities (km*mol⁻¹),
 Raman scattering activities (A**4/amu), Raman depolarization ratios,
 reduced masses (AMU), force constants (mDyne/A) and normal coordinates:
                      1                      2                      3
                        a                      a                      a 
 Frequencies --    67.6657               249.8931               437.3738
 Red. masses --     9.2923                11.1211                 5.6525
 Frc consts  --     0.0000                 0.0000                 0.0000
 IR Inten    --     1.1412                 2.8981                 7.0196
 Raman Activ --     0.0000                 0.0000                 0.0000
 Depolar     --     0.0000                 0.0000                 0.0000
 Atom AN      X      Y      Z        X      Y      Z        X      Y      Z
   1   6     0.23  -0.32   0.07    -0.25  -0.26  -0.38    -0.08   0.07  -0.02
   2   6    -0.30   0.43  -0.10    -0.02   0.03   0.24     0.17  -0.26   0.07
   3   8     0.23  -0.34   0.08    -0.16  -0.14  -0.16    -0.08   0.17  -0.03
   4   1     0.22  -0.31   0.07    -0.26  -0.20  -0.11     0.23  -0.35   0.08
   5   8    -0.12   0.18  -0.04     0.41   0.34   0.20    -0.14   0.19  -0.06
   6   6    -0.06   0.09  -0.02     0.02   0.05   0.19     0.25  -0.34   0.07
   7   1     0.04  -0.05   0.01     0.03  -0.05  -0.30    -0.31   0.44  -0.10
   8   1    -0.23   0.33  -0.08     0.08   0.07   0.07    -0.22   0.29  -0.06
                      4                      5                      6
                        a                      a                      a 
 Frequencies --   517.0320               621.1109               779.7519
 Red. masses --    12.7109                12.2893                10.8677
 Frc consts  --     0.0000                 0.0000                 0.0000
 IR Inten    --    15.1125                34.0980                54.4032
 Raman Activ --     0.0000                 0.0000                 0.0000
 Depolar     --     0.0000                 0.0000                 0.0000
 Atom AN      X      Y      Z        X      Y      Z        X      Y      Z
   1   6    -0.35  -0.23   0.10    -0.02  -0.03  -0.08     0.05  -0.07   0.02
   2   6    -0.28  -0.13   0.16    -0.16  -0.22  -0.45    -0.24   0.34  -0.08
   3   8     0.45   0.36   0.27    -0.12   0.02   0.42    -0.11   0.17  -0.04
   4   1    -0.21  -0.13   0.02     0.22   0.14  -0.02    -0.14   0.21  -0.05
   5   8     0.10  -0.02  -0.29     0.45   0.31   0.00    -0.11   0.16  -0.04
   6   6     0.12   0.06  -0.24    -0.22  -0.16   0.02     0.43  -0.62   0.15
   7   1    -0.04  -0.07  -0.06    -0.14  -0.04   0.22     0.13  -0.19   0.04
   8   1    -0.17  -0.12   0.04    -0.01  -0.03  -0.12     0.07  -0.10   0.02
                      7                      8                      9
                        a                      a                      a 
 Frequencies --   852.2765               889.5287              1026.3862
 Red. masses --    11.0491                 3.8359                 1.8972
 Frc consts  --     0.0000                 0.0000                 0.0000
 IR Inten    --    76.8377                17.0624                19.4799
 Raman Activ --     0.0000                 0.0000                 0.0000
 Depolar     --     0.0000                 0.0000                 0.0000
 Atom AN      X      Y      Z        X      Y      Z        X      Y      Z
   1   6    -0.21  -0.17  -0.11     0.26  -0.37   0.08     0.08  -0.16   0.01
   2   6    -0.19  -0.18  -0.22    -0.12   0.16  -0.04     0.13  -0.15   0.09
   3   8     0.21   0.06  -0.34     0.01  -0.01   0.00     0.01  -0.01   0.01
   4   1     0.19   0.13  -0.02    -0.17   0.25  -0.05    -0.33   0.55  -0.12
   5   8    -0.15  -0.01   0.38     0.01  -0.02   0.01     0.00  -0.01  -0.03
   6   6     0.35   0.30   0.23    -0.05   0.07  -0.02    -0.02   0.01  -0.02
   7   1    -0.23  -0.10   0.29    -0.42   0.59  -0.13    -0.01  -0.03   0.04
   8   1    -0.02  -0.03  -0.06     0.18  -0.26   0.06    -0.34   0.60  -0.11
                     10                     11                     12
                        a                      a                      a 
 Frequencies --  1029.9756              1236.5261              1322.1869
 Red. masses --     5.3217                 4.9529                12.1352
 Frc consts  --     0.0000                 0.0000                 0.0000
 IR Inten    --    12.4821                40.7355               407.5341
 Raman Activ --     0.0000                 0.0000                 0.0000
 Depolar     --     0.0000                 0.0000                 0.0000
 Atom AN      X      Y      Z        X      Y      Z        X      Y      Z
   1   6    -0.17  -0.14  -0.21    -0.06   0.03   0.33    -0.01  -0.02  -0.08
   2   6     0.06   0.16   0.39    -0.14  -0.16  -0.28     0.01   0.04   0.15
   3   8     0.00   0.02   0.06     0.17   0.09  -0.12     0.35   0.18  -0.24
   4   1     0.36   0.15  -0.03    -0.21  -0.13   0.08     0.24   0.17  -0.03
   5   8    -0.00  -0.06  -0.25    -0.02   0.02   0.13    -0.02   0.09   0.45
   6   6    -0.06  -0.06  -0.09    -0.12  -0.09  -0.04    -0.44  -0.37  -0.28
   7   1    -0.24  -0.09   0.32     0.10   0.04  -0.14     0.07   0.02  -0.13
   8   1     0.47   0.26   0.15     0.62   0.43  -0.02    -0.15  -0.09   0.03
                     13                     14                     15
                        a                      a                      a 
 Frequencies --  1380.6479              1627.4195              1690.3903
 Red. masses --     3.1806                13.1210                11.3459
 Frc consts  --     0.0000                 0.0000                 0.0000
 IR Inten    --    48.6073               815.1832                44.0549
 Raman Activ --     0.0000                 0.0000                 0.0000
 Depolar     --     0.0000                 0.0000                 0.0000
 Atom AN      X      Y      Z        X      Y      Z        X      Y      Z
   1   6     0.08   0.04  -0.08     0.10   0.06  -0.06    -0.49  -0.28   0.31
   2   6     0.24   0.16  -0.06    -0.09  -0.06   0.03     0.55   0.33  -0.28
   3   8     0.09   0.05  -0.07     0.28   0.14  -0.22     0.01  -0.00  -0.03
   4   1    -0.50  -0.35   0.00    -0.00  -0.01  -0.02     0.09   0.08   0.09
   5   8    -0.00   0.03   0.12     0.05  -0.06  -0.38     0.01  -0.01  -0.07
   6   6    -0.17  -0.14  -0.09    -0.37  -0.08   0.73    -0.08  -0.03   0.13
   7   1    -0.31  -0.09   0.57     0.01   0.01   0.01    -0.03  -0.05  -0.13
   8   1    -0.05  -0.04  -0.02    -0.06  -0.03   0.02    -0.06  -0.07  -0.11
                     16                     17                     18
                        a                      a                      a 
 Frequencies --  3046.3625              3082.1438              3109.9831
 Red. masses --     1.8026                 1.5164                 2.1046
 Frc consts  --     0.0000                 0.0000                 0.0000
 IR Inten    --   107.5980                38.4290                78.2973
 Raman Activ --     0.0000                 0.0000                 0.0000
 Depolar     --     0.0000                 0.0000                 0.0000
 Atom AN      X      Y      Z        X      Y      Z        X      Y      Z
   1   6     0.02   0.02   0.02     0.17   0.10  -0.07    -0.09  -0.12  -0.27
   2   6     0.05  -0.02  -0.26    -0.01   0.00   0.05     0.00  -0.01  -0.04
   3   8    -0.00  -0.00   0.00     0.00   0.00  -0.00    -0.00  -0.00   0.00
   4   1     0.01   0.01   0.01    -0.04   0.10   0.59    -0.09   0.10   0.74
   5   8    -0.00  -0.00  -0.00    -0.00   0.00   0.00    -0.00  -0.00   0.00
   6   6     0.01   0.00  -0.01    -0.00  -0.00  -0.00     0.00   0.00  -0.00
   7   1    -0.11  -0.10  -0.08    -0.50  -0.43  -0.36     0.40   0.33   0.24
   8   1    -0.15   0.11   0.93     0.02  -0.02  -0.13    -0.01   0.01   0.09
