8
 energy: -16.375160773552 gnorm: 0.043097940598 xtb: 6.7.1 (edcfbbe)
C           -5.33524000000000       -3.65373200000000        0.53690200000000
C           -6.35913700000000       -4.23331300000000        1.17783900000000
O           -8.30152400000000       -5.54816600000000        1.26739100000000
H           -5.20735200000000       -3.79996400000000       -0.53233100000000
O           -7.24431200000000       -5.31528400000000       -0.74988000000000
C           -7.40341300000000       -5.12117600000000        0.48665900000000
H           -4.62218700000000       -3.03440300000000        1.06458600000000
H           -6.48915200000000       -4.08749200000000        2.24541500000000
8
 energy: -16.377022434750 gnorm: 0.014948219578 xtb: 6.7.1 (edcfbbe)
C           -5.34062050177596       -3.65672601541822        0.54020816378186
C           -6.35058247012456       -4.22874424189844        1.17660858446843
O           -8.29413347796177       -5.54779894830151        1.24594128967752
H           -5.21980065658887       -3.80802848161266       -0.52127354445600
O           -7.24793210014337       -5.31150759502508       -0.73258081431136
C           -7.38968793183800       -5.11124962879390        0.49372904433584
H           -4.62381453629103       -3.03623010341650        1.05318002326713
H           -6.49574532527643       -4.09324498553369        2.24076825323657
8
 energy: -16.377371648461 gnorm: 0.007788640474 xtb: 6.7.1 (edcfbbe)
C           -5.34067342447931       -3.65715428493630        0.54294393114799
C           -6.34652595162624       -4.22444294598287        1.18118109654327
O           -8.29104476021373       -5.55244925372500        1.23163116485237
H           -5.22863225816923       -3.81301933472114       -0.51687819915005
O           -7.25091421593659       -5.31319145764730       -0.72585056694894
C           -7.38252613902506       -5.10013782655116        0.49751767622583
H           -4.61640726028967       -3.03459183069688        1.04138543434254
H           -6.50559299026016       -4.09854306573934        2.24465046298698
8
 energy: -16.377340738686 gnorm: 0.007302678120 xtb: 6.7.1 (edcfbbe)
C           -5.34246142252637       -3.65434470030882        0.54365104904710
C           -6.34529173474402       -4.22326698469187        1.18590155809831
O           -8.29518650391669       -5.54857916620925        1.22421726200086
H           -5.23366066116430       -3.81850392192901       -0.51589079238495
O           -7.25355483448627       -5.30695541222242       -0.72678067773195
C           -7.36880921219410       -5.10893823663938        0.50260291522892
H           -4.61228868759378       -3.03197206341153        1.03408060608637
H           -6.51106394337446       -4.10096951458772        2.24879907965534
8
 energy: -16.377428749818 gnorm: 0.001209061092 xtb: 6.7.1 (edcfbbe)
C           -5.34078444554368       -3.65659372840394        0.54443306134012
C           -6.34622887929404       -4.22244574014758        1.18747424528504
O           -8.29163127428051       -5.55462122571993        1.22526882869207
H           -5.23572938856872       -3.82011534229094       -0.51635163431853
O           -7.24964376084064       -5.30914466488600       -0.72715964174857
C           -7.37506057819022       -5.09750113031038        0.50020404157188
H           -4.61087850073130       -3.03177048613396        1.03242009175503
H           -6.51236017255089       -4.10133768210727        2.25029200742297
8
 energy: -16.377430674615 gnorm: 0.000598271599 xtb: 6.7.1 (edcfbbe)
C           -5.34115028086597       -3.65687822573439        0.54434579850072
C           -6.34695956655358       -4.22279480754276        1.18695899230199
O           -8.29095806521772       -5.55420486268725        1.22690316652441
H           -5.23690891932815       -3.81989703964200       -0.51660463730225
O           -7.24809153071657       -5.30781315145212       -0.72790720948321
C           -7.37500880901174       -5.09881435252221        0.49981014584722
H           -4.61139691882561       -3.03354363202710        1.03372159535839
H           -6.51184290948064       -4.09958392839216        2.24935314825272
