 Entering Gaussian System
 *********************************************
 Gaussian 98:
 frequency output generated by the xtb code
 *********************************************
                         Standard orientation:
 --------------------------------------------------------------------
  Center     Atomic     Atomic              Coordinates (Angstroms)
  Number     Number      Type              X           Y           Z
 --------------------------------------------------------------------
    1          6             0       -1.559274   -0.149281    0.445035
    2          6             0       -2.405172    1.170597    0.072777
    3          9             0       -2.204113   -1.286033    0.089632
    4          9             0       -0.356041   -0.209625   -0.162944
    5          9             0       -1.308763   -0.272106    1.765747
    6          8             0       -3.191821    1.511872    0.947906
    7          8             0       -2.145882    1.627694   -1.033690
 --------------------------------------------------------------------
     1 basis functions        1 primitive gaussians
     1 alpha electrons        1 beta electrons
 
 Harmonic frequencies (cm**-1), IR intensities (km*mol⁻¹),
 Raman scattering activities (A**4/amu), Raman depolarization ratios,
 reduced masses (AMU), force constants (mDyne/A) and normal coordinates:
                      1                      2                      3
                        a                      a                      a 
 Frequencies --   -13.6768               170.6593               191.4277
 Red. masses --    16.9407                17.6006                17.8976
 Frc consts  --     0.0000                 0.0000                 0.0000
 IR Inten    --     0.0534                 5.3563                16.2756
 Raman Activ --     0.0000                 0.0000                 0.0000
 Depolar     --     0.0000                 0.0000                 0.0000
 Atom AN      X      Y      Z        X      Y      Z        X      Y      Z
   1   6    -0.01  -0.00   0.01     0.09   0.01  -0.16    -0.19  -0.16  -0.11
   2   6    -0.00  -0.00   0.01     0.04   0.00  -0.07    -0.03  -0.01  -0.02
   3   9     0.14   0.01  -0.29     0.00   0.02  -0.04     0.32  -0.62   0.13
   4   9     0.12   0.18   0.24     0.27  -0.45   0.15    -0.23   0.18  -0.14
   5   9    -0.26  -0.19   0.04    -0.28   0.44  -0.10    -0.28   0.22  -0.10
   6   8     0.40   0.36   0.23     0.19  -0.33   0.20     0.20   0.19   0.11
   7   8    -0.40  -0.36  -0.23    -0.29   0.32  -0.02     0.19   0.20   0.12
                      4                      5                      6
                        a                      a                      a 
 Frequencies --   334.1721               400.5199               452.1733
 Red. masses --    16.7726                17.7388                18.2408
 Frc consts  --     0.0000                 0.0000                 0.0000
 IR Inten    --    10.9052                 8.2151                21.8858
 Raman Activ --     0.0000                 0.0000                 0.0000
 Depolar     --     0.0000                 0.0000                 0.0000
 Atom AN      X      Y      Z        X      Y      Z        X      Y      Z
   1   6     0.04  -0.04   0.02    -0.04  -0.00   0.07     0.20   0.16   0.12
   2   6    -0.19   0.28  -0.08    -0.12  -0.01   0.22     0.11   0.10   0.06
   3   9     0.23  -0.22   0.11     0.24   0.02  -0.52     0.38   0.23   0.17
   4   9     0.15  -0.34   0.15    -0.13  -0.38  -0.05    -0.07  -0.18  -0.55
   5   9     0.21  -0.33   0.01     0.14   0.39   0.09    -0.46  -0.19   0.29
   6   8    -0.23   0.38  -0.17    -0.25   0.26   0.06    -0.05  -0.03  -0.03
   7   8    -0.29   0.38  -0.06     0.11  -0.27   0.21    -0.05  -0.03  -0.03
                      7                      8                      9
                        a                      a                      a 
 Frequencies --   543.0415               635.0344               698.8887
 Red. masses --    17.2430                17.1895                14.5676
 Frc consts  --     0.0000                 0.0000                 0.0000
 IR Inten    --     0.0062                47.6993               241.6100
 Raman Activ --     0.0000                 0.0000                 0.0000
 Depolar     --     0.0000                 0.0000                 0.0000
 Atom AN      X      Y      Z        X      Y      Z        X      Y      Z
   1   6     0.12   0.01  -0.23    -0.22   0.35  -0.10    -0.03   0.03  -0.01
   2   6    -0.12  -0.01   0.23    -0.07   0.12  -0.03     0.48  -0.43   0.23
   3   9    -0.12   0.01   0.27     0.37   0.22   0.19     0.12   0.11   0.06
   4   9     0.50   0.01  -0.10    -0.33  -0.18   0.29    -0.20  -0.02   0.13
   5   9    -0.24  -0.01  -0.44     0.03  -0.15  -0.45    -0.02  -0.00  -0.24
   6   8    -0.25   0.26   0.07     0.00  -0.15   0.21     0.04   0.15  -0.41
   7   8     0.10  -0.27   0.22     0.18  -0.13  -0.13    -0.32   0.11   0.28
                     10                     11                     12
                        a                      a                      a 
 Frequencies --   713.1550              1001.6169              1037.8741
 Red. masses --    13.2646                13.8238                13.5516
 Frc consts  --     0.0000                 0.0000                 0.0000
 IR Inten    --    81.4809               326.8715               334.5731
 Raman Activ --     0.0000                 0.0000                 0.0000
 Depolar     --     0.0000                 0.0000                 0.0000
 Atom AN      X      Y      Z        X      Y      Z        X      Y      Z
   1   6    -0.01  -0.02  -0.01     0.59   0.50   0.34    -0.41  -0.05   0.78
   2   6     0.54   0.61   0.32    -0.09  -0.08  -0.05     0.03   0.00  -0.06
   3   9    -0.09  -0.28  -0.05    -0.19  -0.36  -0.11     0.03   0.01  -0.04
   4   9    -0.05   0.05   0.04    -0.18  -0.01   0.05     0.28  -0.02  -0.17
   5   9    -0.00   0.06  -0.07    -0.07  -0.00  -0.20    -0.03   0.03  -0.32
   6   8    -0.19  -0.17  -0.02     0.02   0.02   0.01     0.04  -0.04  -0.01
   7   8    -0.12  -0.16  -0.16     0.02   0.02   0.02    -0.02   0.05  -0.04
                     13                     14                     15
                        a                      a                      a 
 Frequencies --  1137.1496              1297.6139              1821.3870
 Red. masses --    13.8840                14.8818                13.2296
 Frc consts  --     0.0000                 0.0000                 0.0000
 IR Inten    --    85.2394               298.8454              1006.4904
 Raman Activ --     0.0000                 0.0000                 0.0000
 Depolar     --     0.0000                 0.0000                 0.0000
 Atom AN      X      Y      Z        X      Y      Z        X      Y      Z
   1   6    -0.46   0.68  -0.20     0.03  -0.05   0.01     0.01   0.00  -0.01
   2   6     0.06  -0.09   0.02    -0.28   0.43  -0.12     0.39   0.04  -0.74
   3   9    -0.08  -0.26  -0.05     0.02   0.05   0.01    -0.00  -0.00   0.00
   4   9     0.27  -0.06  -0.11    -0.05   0.01   0.02    -0.01   0.00   0.00
   5   9     0.08  -0.07   0.27    -0.01   0.01  -0.06     0.00  -0.00   0.01
   6   8     0.08  -0.04  -0.09     0.39  -0.18  -0.41    -0.25   0.11   0.28
   7   8    -0.02  -0.05   0.12    -0.11  -0.23   0.53    -0.08  -0.15   0.35
