      -----------------------------------------------------------      
     |                   =====================                   |     
     |                           x T B                           |     
     |                   =====================                   |     
     |                         S. Grimme                         |     
     |          Mulliken Center for Theoretical Chemistry        |     
     |                    University of Bonn                     |     
      -----------------------------------------------------------      

   * xtb version 6.7.1 (edcfbbe) compiled by 'albert@albert-system' on 2024-07-22

   xtb is free software: you can redistribute it and/or modify it under
   the terms of the GNU Lesser General Public License as published by
   the Free Software Foundation, either version 3 of the License, or
   (at your option) any later version.
   
   xtb is distributed in the hope that it will be useful,
   but WITHOUT ANY WARRANTY; without even the implied warranty of
   MERCHANTABILITY or FITNESS FOR A PARTICULAR PURPOSE.  See the
   GNU Lesser General Public License for more details.
   
   Cite this work as:
   * C. Bannwarth, E. Caldeweyher, S. Ehlert, A. Hansen, P. Pracht,
     J. Seibert, S. Spicher, S. Grimme, WIREs Comput. Mol. Sci., 2020, 11,
     e01493. DOI: 10.1002/wcms.1493
   
   for GFN2-xTB:
   * C. Bannwarth, S. Ehlert and S. Grimme., J. Chem. Theory Comput., 2019,
     15, 1652-1671. DOI: 10.1021/acs.jctc.8b01176
   for GFN1-xTB:
   * S. Grimme, C. Bannwarth, P. Shushkov, J. Chem. Theory Comput., 2017,
     13, 1989-2009. DOI: 10.1021/acs.jctc.7b00118
   for GFN0-xTB:
   * P. Pracht, E. Caldeweyher, S. Ehlert, S. Grimme, ChemRxiv, 2019, preprint.
     DOI: 10.26434/chemrxiv.8326202.v1
   for GFN-FF:
   * S. Spicher and S. Grimme, Angew. Chem. Int. Ed., 2020, 59, 15665-15673.
     DOI: 10.1002/anie.202004239
   
   for ALPB and GBSA implicit solvation:
   * S. Ehlert, M. Stahn, S. Spicher, S. Grimme, J. Chem. Theory Comput.,
     2021, 17, 4250-4261. DOI: 10.1021/acs.jctc.1c00471
   
   for ddCOSMO and CPCM-X implicit solvation:
   * M. Stahn, S. Ehlert, S. Grimme, J. Phys. Chem. A,
     2023, XX, XXXX-XXXX. DOI: 10.1021/acs.jpca.3c04382
   
   for DFT-D4:
   * E. Caldeweyher, C. Bannwarth and S. Grimme, J. Chem. Phys., 2017,
     147, 034112. DOI: 10.1063/1.4993215
   * E. Caldeweyher, S. Ehlert, A. Hansen, H. Neugebauer, S. Spicher,
     C. Bannwarth and S. Grimme, J. Chem. Phys., 2019, 150, 154122.
     DOI: 10.1063/1.5090222
   * E. Caldeweyher, J.-M. Mewes, S. Ehlert and S. Grimme, Phys. Chem. Chem. Phys.
     2020, 22, 8499-8512. DOI: 10.1039/D0CP00502A
   
   for sTDA-xTB:
   * S. Grimme and C. Bannwarth, J. Chem. Phys., 2016, 145, 054103.
     DOI: 10.1063/1.4959605
   
   in the mass-spec context:
   * V. Asgeirsson, C. Bauer and S. Grimme, Chem. Sci., 2017, 8, 4879.
     DOI: 10.1039/c7sc00601b
   * J. Koopman and S. Grimme, ACS Omega 2019, 4, 12, 15120-15133.
     DOI: 10.1021/acsomega.9b02011
   
   for metadynamics refer to:
   * S. Grimme, J. Chem. Theory Comput., 2019, 155, 2847-2862
     DOI: 10.1021/acs.jctc.9b00143
   
   for SPH calculations refer to:
   * S. Spicher and S. Grimme, J. Chem. Theory Comput., 2021, 17, 1701-1714
     DOI: 10.1021/acs.jctc.0c01306
   
   for ONIOM refer to:
   * C. Plett, A. Katbashev, S. Ehlert, S. Grimme, M. Bursch,
     Phys. Chem. Chem. Phys., 2023, 25, 17860-17868. DOI: 10.1039/D3CP02178E
   
   for DIPRO refer to:
   * J. Kohn, N. Gildemeister, S. Grimme, D. Fazzi, A. Hansen,
     J. Chem. Phys., 2023, just accepted.
   
   for PTB refer to:
   * S. Grimme, M. Mueller, A. Hansen, J. Chem. Phys., 2023, 158, 124111.
     DOI: 10.1063/5.0137838
   
   with help from (in alphabetical order)
   P. Atkinson, C. Bannwarth, F. Bohle, G. Brandenburg, E. Caldeweyher
   M. Checinski, S. Dohm, S. Ehlert, S. Ehrlich, I. Gerasimov, C. Hölzer
   A. Katbashev, J. Kohn, J. Koopman, C. Lavigne, S. Lehtola, F. März, M. Müller,
   F. Musil, H. Neugebauer, J. Pisarek, C. Plett, P. Pracht, F. Pultar,
   J. Seibert, P. Shushkov, S. Spicher, M. Stahn, M. Steiner, T. Strunk,
   J. Stückrath, T. Rose, and J. Unsleber
   
 * started run on 2025/10/18 at 19:01:48.306     
   ID    Z sym.   atoms
    1    6 C      1, 2
    2    9 F      3-5
    3    8 O      6, 7

           -------------------------------------------------
          |                Calculation Setup                |
           -------------------------------------------------

          program call               : xtb xyz.xyz --alpb water --charge -1 --ohess
          hostname                   : m003
          coordinate file            : xyz.xyz
          omp threads                :                     2


molecular fragmentation (1/2 indicates fragments):
1211122
# atoms in fragment 1/2:     4     3
 fragment masses (1/2) :       69.01       44.01
CMA distance (Bohr)    :   7.218
constraining FC (au)   :  0.0500

           -------------------------------------------------
          |                 G F N 2 - x T B                 |
           -------------------------------------------------

        Reference                      10.1021/acs.jctc.8b01176
      * Hamiltonian:
        H0-scaling (s, p, d)           1.850000    2.230000    2.230000
        zeta-weighting                 0.500000
      * Dispersion:
        s8                             2.700000
        a1                             0.520000
        a2                             5.000000
        s9                             5.000000
      * Repulsion:
        kExp                           1.500000    1.000000
        rExp                           1.000000
      * Coulomb:
        alpha                          2.000000
        third order                    shell-resolved
        anisotropic                    true
        a3                             3.000000
        a5                             4.000000
        cn-shift                       1.200000
        cn-exp                         4.000000
        max-rad                        5.000000

      * Solvation model:               ALPB
        Solvent                        water
        Parameter file                 internal GFN2-xTB/ALPB
        Dielectric constant                8.0200E+01
        Reference state                gsolv [1 M gas/solution]
        Free energy shift                  1.0808E-03 Eh       6.7819E-01 kcal/mol
        Temperature                        2.9815E+02 K
        Density                            1.0000E+00 kg/L
        Solvent mass                       1.8000E+01 g/mol
        Interaction kernel             P16
        Born radius scaling (c1)           1.4744E+00
        Born radii integrator          GBOBC
        Born offset                        0.0000E+00 a0       0.0000E+00 AA
        H-bond correction              true
        Ion screening                  false
        Surface tension                    1.0000E-05 Eh       1.5569E+01 dyn/cm
        Grid points                               230 per atom

          ...................................................
          :                      SETUP                      :
          :.................................................:
          :  # basis functions                  28          :
          :  # atomic orbitals                  28          :
          :  # shells                           14          :
          :  # electrons                        42          :
          :  max. iterations                   250          :
          :  Hamiltonian                  GFN2-xTB          :
          :  restarted?                      false          :
          :  GBSA solvation                   true          :
          :  PC potential                    false          :
          :  electronic temp.          300.0000000     K    :
          :  accuracy                    1.0000000          :
          :  -> integral cutoff          0.2500000E+02      :
          :  -> integral neglect         0.1000000E-07      :
          :  -> SCF convergence          0.1000000E-05 Eh   :
          :  -> wf. convergence          0.1000000E-03 e    :
          :  Broyden damping             0.4000000          :
          :  net charge                         -1          :
          :  unpaired electrons                  0          :
          ...................................................

 iter      E             dE          RMSdq      gap      omega  full diag
   1    -26.9977605 -0.269978E+02  0.765E+00    4.39       0.0  T
   2    -27.0471535 -0.493930E-01  0.418E+00    2.19       1.0  T
   3    -27.0481847 -0.103117E-02  0.194E+00    1.82       1.0  T
   4    -27.0498896 -0.170488E-02  0.159E-01    1.19       1.0  T
   5    -27.0499185 -0.289551E-04  0.929E-02    1.37       1.0  T
   6    -27.0499524 -0.339038E-04  0.310E-02    1.31       1.2  T
   7    -27.0499532 -0.774000E-06  0.237E-03    1.32      16.0  T
   8    -27.0499532 -0.176450E-07  0.431E-04    1.32      87.7  T
   9    -27.0499532 -0.326096E-09  0.763E-05    1.32     495.3  T

   *** convergence criteria satisfied after 9 iterations ***

         #    Occupation            Energy/Eh            Energy/eV
      -------------------------------------------------------------
         1        2.0000           -0.7973077             -21.6958
       ...           ...                  ...                  ...
        15        2.0000           -0.5195144             -14.1367
        16        2.0000           -0.4822564             -13.1229
        17        2.0000           -0.4821092             -13.1189
        18        2.0000           -0.4717927             -12.8381
        19        2.0000           -0.4716113             -12.8332
        20        2.0000           -0.4714248             -12.8281
        21        2.0000           -0.2589763              -7.0471 (HOMO)
        22                         -0.2104431              -5.7264 (LUMO)
        23                         -0.2086830              -5.6786
        24                          0.2068964               5.6299
        25                          0.2732100               7.4344
        26                          0.2743806               7.4663
       ...                                ...                  ...
        28                          1.3781280              37.5008
      -------------------------------------------------------------
                  HL-Gap            0.0485332 Eh            1.3207 eV
             Fermi-level           -0.2347787 Eh           -6.3887 eV

 SCC (total)                   0 d,  0 h,  0 min,  0.030 sec
 SCC setup                      ...        0 min,  0.000 sec (  1.336%)
 Dispersion                     ...        0 min,  0.000 sec (  0.264%)
 classical contributions        ...        0 min,  0.000 sec (  0.128%)
 integral evaluation            ...        0 min,  0.001 sec (  2.845%)
 iterations                     ...        0 min,  0.027 sec ( 90.283%)
 molecular gradient             ...        0 min,  0.001 sec (  4.716%)
 printout                       ...        0 min,  0.000 sec (  0.285%)

         :::::::::::::::::::::::::::::::::::::::::::::::::::::
         ::                     SUMMARY                     ::
         :::::::::::::::::::::::::::::::::::::::::::::::::::::
         :: total energy             -26.889842951931 Eh    ::
         :: total w/o Gsasa/hb       -26.894283759415 Eh    ::
         :: gradient norm              0.241086730598 Eh/a0 ::
         :: HOMO-LUMO gap              1.320654977671 eV    ::
         ::.................................................::
         :: SCC energy               -27.049949111481 Eh    ::
         :: -> isotropic ES            0.215070546924 Eh    ::
         :: -> anisotropic ES         -0.011039758440 Eh    ::
         :: -> anisotropic XC         -0.014628649481 Eh    ::
         :: -> dispersion             -0.003082605476 Eh    ::
         :: -> Gsolv                  -0.106266390432 Eh    ::
         ::    -> Gelec               -0.110707197915 Eh    ::
         ::    -> Gsasa                0.008585657959 Eh    ::
         ::    -> Ghb                 -0.005225610173 Eh    ::
         ::    -> Gshift               0.001080759698 Eh    ::
         :: repulsion energy           0.160106159550 Eh    ::
         :: add. restraining           0.000000000000 Eh    ::
         :: total charge              -1.000000000003 e     ::
         :::::::::::::::::::::::::::::::::::::::::::::::::::::

      ----------------------------------------------------------- 
     |                   =====================                   |
     |                        A N C O P T                        |
     |                   =====================                   |
     |               Approximate Normal Coordinate               |
     |                Rational Function Optimizer                |
      ----------------------------------------------------------- 
      ----------------------------------------------------------- 
     |                   =====================                   |
     |                        A N C O P T                        |
     |                   =====================                   |
     |               Approximate Normal Coordinate               |
     |                Rational Function Optimizer                |
      ----------------------------------------------------------- 

          ...................................................
          :                      SETUP                      :
          :.................................................:
          :   optimization level            normal          :
          :   max. optcycles                   200          :
          :   ANC micro-cycles                  20          :
          :   degrees of freedom                15          :
          :.................................................:
          :   RF solver                   davidson          :
          :   write xtbopt.log                true          :
          :   linear?                        false          :
          :   energy convergence         0.5000000E-05 Eh   :
          :   grad. convergence          0.1000000E-02 Eh/α :
          :   maxmium RF displ.          1.0000000          :
          :   Hlow (freq-cutoff)         0.1000000E-01      :
          :   Hmax (freq-cutoff)         5.0000000          :
          :   S6 in model hess.         20.0000000          :
          ...................................................

generating ANC from exact Hessian ...
Using Lindh-Hessian (1995)
 Shifting diagonal of input Hessian by   9.591922057077202E-003
 Lowest  eigenvalues of input Hessian
    0.000000    0.000000    0.000000    0.000000    0.000000    0.000000
    0.010000    0.010242    0.010304    0.010561    0.010649    0.010703
    0.202201    0.292550    0.293254    0.987718    1.138792    1.252928
 Highest eigenvalues
    0.987718    1.138792    1.252928    1.828342    1.830694    3.266562
 

........................................................................
.............................. CYCLE    1 ..............................
........................................................................

 iter      E             dE          RMSdq      gap      omega  full diag
   1    -27.0499532 -0.270500E+02  0.158E-05    1.32       0.0  T
   2    -27.0499532 -0.312639E-12  0.762E-06    1.32    4959.3  T
   3    -27.0499532 -0.355271E-14  0.331E-06    1.32   11415.8  T
     SCC iter.                  ...        0 min,  0.001 sec
     gradient                   ...        0 min,  0.001 sec
 * total energy  :   -26.8898430 Eh     change       -0.3232969E-11 Eh
   gradient norm :     0.2410865 Eh/α   predicted     0.0000000E+00 (-100.00%)
   displ. norm   :     0.4125109 α      lambda       -0.8105084E-01
   maximum displ.:     0.3579064 α      in ANC's #7, #10, #2, ...

........................................................................
.............................. CYCLE    2 ..............................
........................................................................

 iter      E             dE          RMSdq      gap      omega  full diag
   1    -27.0756198 -0.270756E+02  0.188E+00    3.37       0.0  T
   2    -27.0776101 -0.199031E-02  0.102E+00    3.64       1.0  T
   3    -27.0776547 -0.445259E-04  0.293E-01    3.66       1.0  T
   4    -27.0776679 -0.132221E-04  0.272E-02    3.64       1.4  T
   5    -27.0776680 -0.102479E-06  0.935E-03    3.64       4.0  T
   6    -27.0776680 -0.640319E-07  0.211E-03    3.64      17.9  T
   7    -27.0776680 -0.151763E-08  0.645E-04    3.64      58.6  T
   8    -27.0776680 -0.129464E-09  0.598E-05    3.64     631.9  T
     SCC iter.                  ...        0 min,  0.001 sec
     gradient                   ...        0 min,  0.001 sec
 * total energy  :   -26.9381551 Eh     change       -0.4831213E-01 Eh
   gradient norm :     0.0336194 Eh/α   predicted    -0.4742143E-01 (  -1.84%)
   displ. norm   :     0.1000735 α      lambda       -0.1881347E-02
   maximum displ.:     0.0727738 α      in ANC's #2, #7, #10, ...

........................................................................
.............................. CYCLE    3 ..............................
........................................................................

 iter      E             dE          RMSdq      gap      omega  full diag
   1    -27.0766271 -0.270766E+02  0.268E-01    3.96       0.0  T
   2    -27.0766899 -0.627864E-04  0.149E-01    4.01       1.0  T
   3    -27.0766925 -0.260919E-05  0.626E-02    4.00       1.0  T
   4    -27.0766934 -0.914844E-06  0.659E-03    4.00       5.7  T
   5    -27.0766934 -0.749430E-08  0.151E-03    4.00      25.1  T
   6    -27.0766934 -0.519846E-08  0.403E-04    4.00      93.8  T
   7    -27.0766934 -0.802665E-10  0.137E-04    4.00     276.4  T
     SCC iter.                  ...        0 min,  0.001 sec
     gradient                   ...        0 min,  0.001 sec
 * total energy  :   -26.9390790 Eh     change       -0.9239353E-03 Eh
   gradient norm :     0.0091674 Eh/α   predicted    -0.9500934E-03 (   2.83%)
   displ. norm   :     0.0962613 α      lambda       -0.2314096E-03
   maximum displ.:     0.0933537 α      in ANC's #2, #6, #7, ...

........................................................................
.............................. CYCLE    4 ..............................
........................................................................

 iter      E             dE          RMSdq      gap      omega  full diag
   1    -27.0765126 -0.270765E+02  0.299E-02    4.01       0.0  T
   2    -27.0765128 -0.167604E-06  0.184E-02    4.01       2.1  T
   3    -27.0765128 -0.303330E-07  0.238E-03    4.02      15.9  T
   4    -27.0765128 -0.621083E-08  0.101E-03    4.02      37.5  T
   5    -27.0765128 -0.292616E-09  0.356E-04    4.02     106.3  T
   6    -27.0765128 -0.122409E-09  0.141E-04    4.02     268.0  T
     SCC iter.                  ...        0 min,  0.001 sec
     gradient                   ...        0 min,  0.001 sec
 * total energy  :   -26.9392781 Eh     change       -0.1990886E-03 Eh
   gradient norm :     0.0063998 Eh/α   predicted    -0.1167755E-03 ( -41.34%)
   displ. norm   :     0.1983102 α      lambda       -0.3318458E-03
   maximum displ.:     0.1936232 α      in ANC's #2, #6, #7, ...

........................................................................
.............................. CYCLE    5 ..............................
........................................................................

 iter      E             dE          RMSdq      gap      omega  full diag
   1    -27.0761268 -0.270761E+02  0.530E-02    4.03       0.0  T
   2    -27.0761272 -0.383203E-06  0.325E-02    4.03       1.2  T
   3    -27.0761273 -0.745860E-07  0.368E-03    4.04      10.3  T
   4    -27.0761273 -0.197739E-07  0.159E-03    4.04      23.8  T
   5    -27.0761273 -0.662705E-09  0.611E-04    4.04      61.9  T
   6    -27.0761273 -0.321410E-09  0.198E-04    4.04     190.5  T
     SCC iter.                  ...        0 min,  0.001 sec
     gradient                   ...        0 min,  0.001 sec
 * total energy  :   -26.9395326 Eh     change       -0.2544459E-03 Eh
   gradient norm :     0.0051284 Eh/α   predicted    -0.1724474E-03 ( -32.23%)
   displ. norm   :     0.1964162 α      lambda       -0.2095599E-03
   maximum displ.:     0.1936395 α      in ANC's #2, #6, #12, ...

........................................................................
.............................. CYCLE    6 ..............................
........................................................................

 iter      E             dE          RMSdq      gap      omega  full diag
   1    -27.0759097 -0.270759E+02  0.405E-02    4.05       0.0  T
   2    -27.0759098 -0.108496E-06  0.247E-02    4.06       1.5  T
   3    -27.0759098 -0.229137E-07  0.228E-03    4.07      16.6  T
   4    -27.0759099 -0.144340E-07  0.968E-04    4.07      39.0  T
   5    -27.0759099 -0.204921E-09  0.332E-04    4.07     113.9  T
     SCC iter.                  ...        0 min,  0.001 sec
     gradient                   ...        0 min,  0.001 sec
 * total energy  :   -26.9397165 Eh     change       -0.1839903E-03 Eh
   gradient norm :     0.0063302 Eh/α   predicted    -0.1088174E-03 ( -40.86%)
   displ. norm   :     0.1756350 α      lambda       -0.1954755E-03
   maximum displ.:     0.1736228 α      in ANC's #2, #6, #12, ...

........................................................................
.............................. CYCLE    7 ..............................
........................................................................

 iter      E             dE          RMSdq      gap      omega  full diag
   1    -27.0759220 -0.270759E+02  0.360E-02    4.07       0.0  T
   2    -27.0759221 -0.763143E-07  0.219E-02    4.08       1.7  T
   3    -27.0759221 -0.106832E-07  0.213E-03    4.08      17.8  T
   4    -27.0759221 -0.148496E-07  0.844E-04    4.08      44.8  T
   5    -27.0759221 -0.203578E-09  0.165E-04    4.08     229.5  T
     SCC iter.                  ...        0 min,  0.001 sec
     gradient                   ...        0 min,  0.001 sec
 * total energy  :   -26.9399024 Eh     change       -0.1858399E-03 Eh
   gradient norm :     0.0060292 Eh/α   predicted    -0.1007543E-03 ( -45.78%)
   displ. norm   :     0.2026685 α      lambda       -0.2510026E-03
   maximum displ.:     0.2000119 α      in ANC's #2, #6, #12, ...

........................................................................
.............................. CYCLE    8 ..............................
........................................................................

 iter      E             dE          RMSdq      gap      omega  full diag
   1    -27.0760739 -0.270761E+02  0.502E-02    4.08       0.0  T
   2    -27.0760741 -0.254302E-06  0.307E-02    4.09       1.2  T
   3    -27.0760741 -0.210375E-07  0.309E-03    4.10      12.2  T
   4    -27.0760742 -0.337248E-07  0.111E-03    4.10      34.1  T
   5    -27.0760742 -0.334627E-09  0.424E-04    4.10      89.2  T
   6    -27.0760742 -0.868212E-10  0.112E-04    4.10     336.2  T
     SCC iter.                  ...        0 min,  0.001 sec
     gradient                   ...        0 min,  0.001 sec
 * total energy  :   -26.9401324 Eh     change       -0.2300407E-03 Eh
   gradient norm :     0.0039837 Eh/α   predicted    -0.1306553E-03 ( -43.20%)
   displ. norm   :     0.2415017 α      lambda       -0.2564459E-03
   maximum displ.:     0.2371486 α      in ANC's #2, #6, #12, ...

........................................................................
.............................. CYCLE    9 ..............................
........................................................................

 iter      E             dE          RMSdq      gap      omega  full diag
   1    -27.0761005 -0.270761E+02  0.748E-02    4.08       0.0  T
   2    -27.0761018 -0.126602E-05  0.461E-02    4.10       1.0  T
   3    -27.0761018 -0.688476E-07  0.595E-03    4.12       6.4  T
   4    -27.0761019 -0.875022E-07  0.166E-03    4.12      22.8  T
   5    -27.0761019 -0.975664E-09  0.870E-04    4.12      43.4  T
   6    -27.0761019 -0.273491E-09  0.949E-05    4.12     398.2  T
     SCC iter.                  ...        0 min,  0.001 sec
     gradient                   ...        0 min,  0.001 sec
 * total energy  :   -26.9403534 Eh     change       -0.2209625E-03 Eh
   gradient norm :     0.0015672 Eh/α   predicted    -0.1356975E-03 ( -38.59%)
   displ. norm   :     0.3282153 α      lambda       -0.1664389E-03
   maximum displ.:     0.3215850 α      in ANC's #2, #6, #12, ...

........................................................................
.............................. CYCLE   10 ..............................
........................................................................

 iter      E             dE          RMSdq      gap      omega  full diag
   1    -27.0756009 -0.270756E+02  0.134E-01    4.08       0.0  T
   2    -27.0756099 -0.902534E-05  0.814E-02    4.13       1.0  T
   3    -27.0756104 -0.483120E-06  0.177E-02    4.15       2.1  T
   4    -27.0756107 -0.330247E-06  0.355E-03    4.16      10.7  T
   5    -27.0756107 -0.485313E-08  0.186E-03    4.16      20.3  T
   6    -27.0756107 -0.149381E-08  0.205E-04    4.16     184.1  T
   7    -27.0756107 -0.785150E-11  0.701E-05    4.16     538.9  T
     SCC iter.                  ...        0 min,  0.001 sec
     gradient                   ...        0 min,  0.001 sec
 * total energy  :   -26.9405408 Eh     change       -0.1874141E-03 Eh
   gradient norm :     0.0027601 Eh/α   predicted    -0.8720061E-04 ( -53.47%)
   displ. norm   :     0.1554831 α      lambda       -0.7172974E-04
   maximum displ.:     0.1530524 α      in ANC's #2, #6, #12, ...

........................................................................
.............................. CYCLE   11 ..............................
........................................................................

 iter      E             dE          RMSdq      gap      omega  full diag
   1    -27.0748535 -0.270749E+02  0.838E-02    4.12       0.0  T
   2    -27.0748587 -0.520172E-05  0.502E-02    4.15       1.0  T
   3    -27.0748590 -0.317015E-06  0.139E-02    4.16       2.7  T
   4    -27.0748591 -0.147993E-06  0.269E-03    4.17      14.0  T
   5    -27.0748591 -0.318485E-08  0.136E-03    4.17      27.7  T
   6    -27.0748591 -0.894406E-09  0.236E-04    4.17     160.2  T
   7    -27.0748591 -0.156497E-10  0.908E-05    4.17     416.2  T
     SCC iter.                  ...        0 min,  0.001 sec
     gradient                   ...        0 min,  0.001 sec
 * total energy  :   -26.9405997 Eh     change       -0.5886650E-04 Eh
   gradient norm :     0.0036357 Eh/α   predicted    -0.3673175E-04 ( -37.60%)
   displ. norm   :     0.3138277 α      lambda       -0.1171316E-03
   maximum displ.:     0.3091398 α      in ANC's #2, #12, #6, ...

........................................................................
.............................. CYCLE   12 ..............................
........................................................................

 iter      E             dE          RMSdq      gap      omega  full diag
   1    -27.0727582 -0.270728E+02  0.242E-01    4.08       0.0  T
   2    -27.0728252 -0.669600E-04  0.136E-01    4.19       1.0  T
   3    -27.0728292 -0.402104E-05  0.472E-02    4.21       1.0  T
   4    -27.0728307 -0.148528E-05  0.758E-03    4.24       5.0  T
   5    -27.0728307 -0.286766E-07  0.384E-03    4.24       9.8  T
   6    -27.0728307 -0.670356E-08  0.624E-04    4.24      60.6  T
   7    -27.0728307 -0.118927E-09  0.288E-04    4.24     131.2  T
     SCC iter.                  ...        0 min,  0.001 sec
     gradient                   ...        0 min,  0.001 sec
 * total energy  :   -26.9406780 Eh     change       -0.7831788E-04 Eh
   gradient norm :     0.0090860 Eh/α   predicted    -0.6433270E-04 ( -17.86%)
   displ. norm   :     0.4185548 α      lambda       -0.1757753E-03
   maximum displ.:     0.4131003 α      in ANC's #2, #12, #3, ...

........................................................................
.............................. CYCLE   13 ..............................
........................................................................

 iter      E             dE          RMSdq      gap      omega  full diag
   1    -27.0686413 -0.270686E+02  0.565E-01    4.07       0.0  T
   2    -27.0691438 -0.502539E-03  0.284E-01    4.33       1.0  T
   3    -27.0691795 -0.357283E-04  0.117E-01    4.34       1.0  T
   4    -27.0691908 -0.112553E-04  0.169E-02    4.40       2.2  T
   5    -27.0691909 -0.167176E-06  0.864E-03    4.40       4.4  T
   6    -27.0691910 -0.311897E-07  0.120E-03    4.40      31.4  T
   7    -27.0691910 -0.107214E-08  0.526E-04    4.40      71.9  T
   8    -27.0691910 -0.859046E-10  0.996E-05    4.40     379.4  T
     SCC iter.                  ...        0 min,  0.001 sec
     gradient                   ...        0 min,  0.001 sec
 * total energy  :   -26.9408567 Eh     change       -0.1787082E-03 Eh
   gradient norm :     0.0226937 Eh/α   predicted    -0.1032894E-03 ( -42.20%)
   displ. norm   :     0.8339994 α      lambda       -0.5057877E-03
   maximum displ.:     0.8180712 α      in ANC's #2, #12, #3, ...

........................................................................
.............................. CYCLE   14 ..............................
........................................................................

 iter      E             dE          RMSdq      gap      omega  full diag
   1    -27.0475589 -0.270476E+02  0.203E+00    4.00       0.0  T
   2    -27.0570859 -0.952697E-02  0.914E-01    4.81       1.0  T
   3    -27.0584073 -0.132143E-02  0.436E-01    4.68       1.0  T
   4    -27.0586112 -0.203921E-03  0.671E-02    4.85       1.0  T
   5    -27.0586130 -0.175614E-05  0.333E-02    4.86       1.1  T
   6    -27.0586134 -0.408972E-06  0.485E-03    4.86       7.8  T
   7    -27.0586134 -0.720497E-07  0.132E-03    4.85      28.6  T
   8    -27.0586134 -0.132678E-08  0.366E-04    4.85     103.2  T
   9    -27.0586134 -0.161741E-09  0.181E-04    4.85     208.7  T
     SCC iter.                  ...        0 min,  0.001 sec
     gradient                   ...        0 min,  0.001 sec
 * total energy  :   -26.9401919 Eh     change        0.6647652E-03 Eh
   gradient norm :     0.0897244 Eh/α   predicted    -0.4288227E-03 (-164.51%)
   displ. norm   :     0.5201540 α      lambda       -0.2888370E-02
   maximum displ.:     0.4897960 α      in ANC's #2, #3, #6, ...

........................................................................
.............................. CYCLE   15 ..............................
........................................................................

 iter      E             dE          RMSdq      gap      omega  full diag
   1    -27.0556515 -0.270557E+02  0.105E+00    5.05       0.0  T
   2    -27.0585362 -0.288470E-02  0.527E-01    4.57       1.0  T
   3    -27.0587133 -0.177104E-03  0.259E-01    4.58       1.0  T
   4    -27.0587388 -0.255445E-04  0.416E-02    4.47       1.0  T
   5    -27.0587411 -0.224060E-05  0.206E-02    4.48       1.8  T
   6    -27.0587413 -0.205566E-06  0.365E-03    4.48      10.3  T
   7    -27.0587413 -0.125608E-07  0.109E-03    4.48      34.7  T
   8    -27.0587413 -0.298641E-09  0.120E-04    4.48     313.7  T
   9    -27.0587413 -0.147047E-10  0.444E-05    4.48     852.1  T
     SCC iter.                  ...        0 min,  0.001 sec
     gradient                   ...        0 min,  0.001 sec
 * total energy  :   -26.9395501 Eh     change        0.6417992E-03 Eh
   gradient norm :     0.0994132 Eh/α   predicted    -0.1834916E-02 (-385.90%)
   displ. norm   :     0.6603878 α      lambda       -0.1167853E-01
   maximum displ.:     0.5872334 α      in ANC's #3, #2, #5, ...

........................................................................
.............................. CYCLE   16 ..............................
........................................................................

 iter      E             dE          RMSdq      gap      omega  full diag
   1    -27.0560566 -0.270561E+02  0.130E+00    4.49       0.0  T
   2    -27.0573791 -0.132243E-02  0.710E-01    4.18       1.0  T
   3    -27.0574142 -0.351219E-04  0.262E-01    4.17       1.0  T
   4    -27.0574420 -0.278430E-04  0.352E-02    4.09       1.1  T
   5    -27.0574443 -0.230017E-05  0.168E-02    4.10       2.2  T
   6    -27.0574445 -0.169349E-06  0.373E-03    4.11      10.1  T
   7    -27.0574445 -0.202071E-07  0.190E-03    4.11      19.9  T
   8    -27.0574445 -0.206705E-08  0.243E-04    4.11     155.3  T
   9    -27.0574445 -0.382698E-10  0.803E-05    4.11     471.0  T
     SCC iter.                  ...        0 min,  0.002 sec
     gradient                   ...        0 min,  0.001 sec
 * total energy  :   -26.9368891 Eh     change        0.2661054E-02 Eh
   gradient norm :     0.0439376 Eh/α   predicted    -0.8385824E-02 (-415.13%)
   displ. norm   :     0.3168223 α      lambda       -0.7670906E-02
   maximum displ.:     0.2764319 α      in ANC's #3, #5, #2, ...

........................................................................
.............................. CYCLE   17 ..............................
........................................................................

 iter      E             dE          RMSdq      gap      omega  full diag
   1    -27.0691279 -0.270691E+02  0.539E-01    4.45       0.0  T
   2    -27.0691541 -0.261380E-04  0.318E-01    4.45       1.0  T
   3    -27.0691550 -0.963840E-06  0.331E-02    4.45       1.1  T
   4    -27.0691572 -0.216797E-05  0.994E-03    4.45       3.8  T
   5    -27.0691573 -0.683143E-07  0.460E-03    4.45       8.2  T
   6    -27.0691573 -0.132636E-07  0.141E-03    4.45      26.8  T
   7    -27.0691573 -0.962721E-09  0.661E-04    4.45      57.1  T
   8    -27.0691573 -0.305995E-09  0.944E-05    4.45     400.4  T
     SCC iter.                  ...        0 min,  0.001 sec
     gradient                   ...        0 min,  0.001 sec
 * total energy  :   -26.9414251 Eh     change       -0.4536006E-02 Eh
   gradient norm :     0.0264006 Eh/α   predicted    -0.4220446E-02 (  -6.96%)
   displ. norm   :     0.6252288 α      lambda       -0.2793587E-02
   maximum displ.:     0.5680335 α      in ANC's #2, #3, #5, ...

........................................................................
.............................. CYCLE   18 ..............................
........................................................................

 iter      E             dE          RMSdq      gap      omega  full diag
   1    -27.0528652 -0.270529E+02  0.160E+00    4.16       0.0  T
   2    -27.0586006 -0.573538E-02  0.732E-01    4.81       1.0  T
   3    -27.0593639 -0.763358E-03  0.359E-01    4.71       1.0  T
   4    -27.0594883 -0.124368E-03  0.562E-02    4.85       1.0  T
   5    -27.0594898 -0.150009E-05  0.272E-02    4.85       1.4  T
   6    -27.0594902 -0.361364E-06  0.412E-03    4.85       9.2  T
   7    -27.0594902 -0.391509E-07  0.137E-03    4.85      27.5  T
   8    -27.0594902 -0.114231E-08  0.312E-04    4.85     121.2  T
   9    -27.0594902 -0.846576E-10  0.147E-04    4.85     257.6  T
     SCC iter.                  ...        0 min,  0.001 sec
     gradient                   ...        0 min,  0.001 sec
 * total energy  :   -26.9428871 Eh     change       -0.1462019E-02 Eh
   gradient norm :     0.0788287 Eh/α   predicted    -0.1942813E-02 (  32.89%)
   displ. norm   :     0.1583812 α      lambda       -0.1921425E-02
   maximum displ.:     0.1368901 α      in ANC's #2, #3, #5, ...

........................................................................
.............................. CYCLE   19 ..............................
........................................................................

 iter      E             dE          RMSdq      gap      omega  full diag
   1    -27.0598753 -0.270599E+02  0.427E-01    4.74       0.0  T
   2    -27.0603130 -0.437668E-03  0.202E-01    4.91       1.0  T
   3    -27.0603666 -0.535660E-04  0.951E-02    4.89       1.0  T
   4    -27.0603751 -0.855725E-05  0.181E-02    4.93       2.1  T
   5    -27.0603753 -0.203313E-06  0.909E-03    4.93       4.2  T
   6    -27.0603754 -0.371501E-07  0.740E-04    4.93      51.1  T
   7    -27.0603754 -0.306887E-09  0.295E-04    4.93     128.3  T
     SCC iter.                  ...        0 min,  0.001 sec
     gradient                   ...        0 min,  0.001 sec
 * total energy  :   -26.9447766 Eh     change       -0.1889537E-02 Eh
   gradient norm :     0.0814442 Eh/α   predicted    -0.9848105E-03 ( -47.88%)
   displ. norm   :     0.7333654 α      lambda       -0.1475757E-01
   maximum displ.:     0.5446504 α      in ANC's #2, #3, #12, ...

........................................................................
.............................. CYCLE   20 ..............................
........................................................................

 iter      E             dE          RMSdq      gap      omega  full diag
   1    -27.0340178 -0.270340E+02  0.206E+00    4.17       0.0  T
   2    -27.0471506 -0.131327E-01  0.106E+00    4.83       1.0  T
   3    -27.0489677 -0.181713E-02  0.514E-01    4.72       1.0  T
   4    -27.0491738 -0.206114E-03  0.113E-01    4.85       1.0  T
   5    -27.0491801 -0.626781E-05  0.550E-02    4.84       1.0  T
   6    -27.0491813 -0.118540E-05  0.682E-03    4.84       5.5  T
   7    -27.0491813 -0.657936E-07  0.289E-03    4.84      13.1  T
   8    -27.0491813 -0.363383E-08  0.525E-04    4.84      72.0  T
   9    -27.0491813 -0.634977E-09  0.188E-04    4.84     201.5  T
     SCC iter.                  ...        0 min,  0.001 sec
     gradient                   ...        0 min,  0.001 sec
 * total energy  :   -26.9507709 Eh     change       -0.5994231E-02 Eh
   gradient norm :     0.0887456 Eh/α   predicted    -0.1134727E-01 (  89.30%)
   displ. norm   :     0.3355644 α      lambda       -0.6935984E-02
   maximum displ.:     0.2522887 α      in ANC's #2, #1, #6, ...
 * RMSD in coord.:     1.3184321 α      energy gain  -0.6092792E-01 Eh

generating ANC from exact Hessian ...
Using Lindh-Hessian (1995)
 Shifting diagonal of input Hessian by   0.000000000000000E+000
 Lowest  eigenvalues of input Hessian
    0.000000    0.000000    0.000000    0.000000    0.000000    0.000000
    0.013588    0.019170    0.026823    0.046017    0.065983    0.073208
    0.186927    0.202964    0.304923    0.748872    1.013092    1.415389
 Highest eigenvalues
    0.748872    1.013092    1.415389    1.468530    1.577567    2.753559
 

........................................................................
.............................. CYCLE   21 ..............................
........................................................................

 iter      E             dE          RMSdq      gap      omega  full diag
   1    -27.0591363 -0.270591E+02  0.705E-01    5.30       0.0  T
   2    -27.0608352 -0.169892E-02  0.374E-01    5.04       1.0  T
   3    -27.0610255 -0.190309E-03  0.193E-01    5.08       1.0  T
   4    -27.0610389 -0.133914E-04  0.372E-02    5.03       1.0  T
   5    -27.0610409 -0.200888E-05  0.189E-02    5.04       2.0  T
   6    -27.0610411 -0.174732E-06  0.231E-03    5.04      16.4  T
   7    -27.0610411 -0.225478E-08  0.127E-03    5.04      29.7  T
   8    -27.0610411 -0.769706E-09  0.121E-04    5.04     312.3  T
   9    -27.0610411 -0.882849E-11  0.512E-05    5.04     738.1  T
     SCC iter.                  ...        0 min,  0.001 sec
     gradient                   ...        0 min,  0.001 sec
 * total energy  :   -26.9544517 Eh     change       -0.3680868E-02 Eh
   gradient norm :     0.0734503 Eh/α   predicted     0.0000000E+00 (-100.00%)
   displ. norm   :     0.5067330 α      lambda       -0.2112862E-01
   maximum displ.:     0.3632935 α      in ANC's #4, #5, #2, ...

........................................................................
.............................. CYCLE   22 ..............................
........................................................................

 iter      E             dE          RMSdq      gap      omega  full diag
   1    -27.0324341 -0.270324E+02  0.125E+00    4.12       0.0  T
   2    -27.0342393 -0.180518E-02  0.739E-01    4.39       1.0  T
   3    -27.0344571 -0.217829E-03  0.385E-01    4.29       1.0  T
   4    -27.0346280 -0.170907E-03  0.479E-02    4.37       1.0  T
   5    -27.0346303 -0.224847E-05  0.226E-02    4.36       1.7  T
   6    -27.0346308 -0.488191E-06  0.427E-03    4.36       8.8  T
   7    -27.0346308 -0.531356E-08  0.216E-03    4.36      17.5  T
   8    -27.0346308 -0.174513E-08  0.281E-04    4.36     134.5  T
   9    -27.0346308 -0.447322E-10  0.723E-05    4.36     522.7  T
     SCC iter.                  ...        0 min,  0.001 sec
     gradient                   ...        0 min,  0.001 sec
 * total energy  :   -26.9481990 Eh     change        0.6252783E-02 Eh
   gradient norm :     0.0996649 Eh/α   predicted    -0.1327701E-01 (-312.34%)
   displ. norm   :     0.3410051 α      lambda       -0.2875149E-01
   maximum displ.:     0.2437916 α      in ANC's #4, #2, #6, ...

........................................................................
.............................. CYCLE   23 ..............................
........................................................................

 iter      E             dE          RMSdq      gap      omega  full diag
   1    -27.0675747 -0.270676E+02  0.775E-01    5.32       0.0  T
   2    -27.0678668 -0.292120E-03  0.471E-01    5.21       1.0  T
   3    -27.0678513  0.154839E-04  0.179E-01    5.26       1.0  T
   4    -27.0679080 -0.566489E-04  0.156E-02    5.23       2.4  T
   5    -27.0679081 -0.122514E-06  0.826E-03    5.23       4.6  T
   6    -27.0679081 -0.365228E-07  0.154E-03    5.23      24.6  T
   7    -27.0679081 -0.628802E-09  0.549E-04    5.23      68.8  T
   8    -27.0679081 -0.114849E-09  0.752E-05    5.23     502.4  T
     SCC iter.                  ...        0 min,  0.001 sec
     gradient                   ...        0 min,  0.001 sec
 * total energy  :   -26.9618976 Eh     change       -0.1369867E-01 Eh
   gradient norm :     0.0495993 Eh/α   predicted    -0.1604742E-01 (  17.15%)
   displ. norm   :     0.2442981 α      lambda       -0.5608553E-02
   maximum displ.:     0.1812761 α      in ANC's #5, #6, #3, ...

........................................................................
.............................. CYCLE   24 ..............................
........................................................................

 iter      E             dE          RMSdq      gap      omega  full diag
   1    -27.0694874 -0.270695E+02  0.522E-01    5.16       0.0  T
   2    -27.0696632 -0.175758E-03  0.302E-01    5.23       1.0  T
   3    -27.0696675 -0.432301E-05  0.107E-01    5.22       1.0  T
   4    -27.0696872 -0.197466E-04  0.199E-02    5.24       1.9  T
   5    -27.0696875 -0.258001E-06  0.921E-03    5.24       4.1  T
   6    -27.0696876 -0.744362E-07  0.257E-03    5.24      14.7  T
   7    -27.0696876 -0.393378E-08  0.949E-04    5.24      39.8  T
   8    -27.0696876 -0.568384E-09  0.136E-04    5.24     277.5  T
     SCC iter.                  ...        0 min,  0.001 sec
     gradient                   ...        0 min,  0.001 sec
 * total energy  :   -26.9638342 Eh     change       -0.1936570E-02 Eh
   gradient norm :     0.0427003 Eh/α   predicted    -0.2971637E-02 (  53.45%)
   displ. norm   :     0.1433255 α      lambda       -0.3356190E-02
   maximum displ.:     0.0906020 α      in ANC's #5, #2, #6, ...

........................................................................
.............................. CYCLE   25 ..............................
........................................................................

 iter      E             dE          RMSdq      gap      omega  full diag
   1    -27.0694710 -0.270695E+02  0.375E-01    5.08       0.0  T
   2    -27.0698954 -0.424375E-03  0.198E-01    5.18       1.0  T
   3    -27.0699369 -0.414593E-04  0.104E-01    5.17       1.0  T
   4    -27.0699418 -0.493691E-05  0.199E-02    5.19       1.9  T
   5    -27.0699420 -0.247048E-06  0.995E-03    5.19       3.8  T
   6    -27.0699421 -0.567743E-07  0.972E-04    5.19      38.9  T
   7    -27.0699421 -0.395623E-09  0.494E-04    5.19      76.6  T
     SCC iter.                  ...        0 min,  0.001 sec
     gradient                   ...        0 min,  0.001 sec
 * total energy  :   -26.9664323 Eh     change       -0.2598147E-02 Eh
   gradient norm :     0.0249874 Eh/α   predicted    -0.1712567E-02 ( -34.09%)
   displ. norm   :     0.1702858 α      lambda       -0.2515471E-02
   maximum displ.:     0.0907955 α      in ANC's #6, #5, #2, ...

........................................................................
.............................. CYCLE   26 ..............................
........................................................................

 iter      E             dE          RMSdq      gap      omega  full diag
   1    -27.0680779 -0.270681E+02  0.452E-01    4.97       0.0  T
   2    -27.0688094 -0.731568E-03  0.242E-01    5.08       1.0  T
   3    -27.0688715 -0.620290E-04  0.129E-01    5.06       1.0  T
   4    -27.0688782 -0.677202E-05  0.261E-02    5.08       1.4  T
   5    -27.0688786 -0.377081E-06  0.135E-02    5.08       2.8  T
   6    -27.0688787 -0.995790E-07  0.107E-03    5.08      35.3  T
   7    -27.0688787 -0.484853E-09  0.374E-04    5.08     101.0  T
   8    -27.0688787 -0.542428E-10  0.119E-04    5.08     316.5  T
     SCC iter.                  ...        0 min,  0.001 sec
     gradient                   ...        0 min,  0.001 sec
 * total energy  :   -26.9673190 Eh     change       -0.8866744E-03 Eh
   gradient norm :     0.0111743 Eh/α   predicted    -0.1294206E-02 (  45.96%)
   displ. norm   :     0.0752601 α      lambda       -0.4494483E-03
   maximum displ.:     0.0493833 α      in ANC's #6, #2, #3, ...

........................................................................
.............................. CYCLE   27 ..............................
........................................................................

 iter      E             dE          RMSdq      gap      omega  full diag
   1    -27.0687820 -0.270688E+02  0.141E-01    5.17       0.0  T
   2    -27.0688576 -0.755715E-04  0.782E-02    5.13       1.0  T
   3    -27.0688639 -0.632889E-05  0.427E-02    5.14       1.0  T
   4    -27.0688645 -0.544251E-06  0.790E-03    5.13       4.8  T
   5    -27.0688645 -0.545529E-07  0.411E-03    5.13       9.2  T
   6    -27.0688645 -0.990182E-08  0.369E-04    5.13     102.4  T
   7    -27.0688645 -0.655334E-10  0.159E-04    5.13     237.4  T
     SCC iter.                  ...        0 min,  0.001 sec
     gradient                   ...        0 min,  0.001 sec
 * total energy  :   -26.9675258 Eh     change       -0.2068305E-03 Eh
   gradient norm :     0.0045143 Eh/α   predicted    -0.2259969E-03 (   9.27%)
   displ. norm   :     0.0099573 α      lambda       -0.3390017E-04
   maximum displ.:     0.0063087 α      in ANC's #10, #5, #6, ...

........................................................................
.............................. CYCLE   28 ..............................
........................................................................

 iter      E             dE          RMSdq      gap      omega  full diag
   1    -27.0689372 -0.270689E+02  0.250E-02    5.14       0.0  T
   2    -27.0689379 -0.648124E-06  0.137E-02    5.14       2.8  T
   3    -27.0689379 -0.480110E-07  0.562E-03    5.14       6.7  T
   4    -27.0689380 -0.275152E-07  0.154E-03    5.14      24.6  T
   5    -27.0689380 -0.762832E-09  0.589E-04    5.14      64.2  T
   6    -27.0689380 -0.320558E-09  0.141E-04    5.14     268.1  T
     SCC iter.                  ...        0 min,  0.001 sec
     gradient                   ...        0 min,  0.001 sec
 * total energy  :   -26.9675499 Eh     change       -0.2409392E-04 Eh
   gradient norm :     0.0024166 Eh/α   predicted    -0.1695032E-04 ( -29.65%)
   displ. norm   :     0.0080272 α      lambda       -0.1414423E-04
   maximum displ.:     0.0054196 α      in ANC's #10, #2, #12, ...

........................................................................
.............................. CYCLE   29 ..............................
........................................................................

 iter      E             dE          RMSdq      gap      omega  full diag
   1    -27.0689835 -0.270690E+02  0.195E-02    5.15       0.0  T
   2    -27.0689839 -0.425535E-06  0.108E-02    5.15       3.5  T
   3    -27.0689840 -0.416600E-07  0.450E-03    5.15       8.4  T
   4    -27.0689840 -0.163493E-07  0.154E-03    5.15      24.5  T
   5    -27.0689840 -0.585068E-09  0.413E-04    5.15      91.4  T
   6    -27.0689840 -0.273364E-09  0.124E-04    5.15     305.0  T
     SCC iter.                  ...        0 min,  0.001 sec
     gradient                   ...        0 min,  0.001 sec
 * total energy  :   -26.9675573 Eh     change       -0.7371287E-05 Eh
   gradient norm :     0.0007635 Eh/α   predicted    -0.7071774E-05 (  -4.06%)
   displ. norm   :     0.0030958 α      lambda       -0.6885146E-06
   maximum displ.:     0.0021080 α      in ANC's #3, #1, #2, ...

........................................................................
.............................. CYCLE   30 ..............................
........................................................................

 iter      E             dE          RMSdq      gap      omega  full diag
   1    -27.0690156 -0.270690E+02  0.401E-03    5.15       0.0  T
   2    -27.0690156 -0.266404E-07  0.228E-03    5.15      16.6  T
   3    -27.0690156 -0.498415E-08  0.108E-03    5.15      35.1  T
   4    -27.0690156 -0.731703E-09  0.550E-04    5.15      68.8  T
   5    -27.0690156 -0.925802E-10  0.450E-05    5.15     840.7  T
     SCC iter.                  ...        0 min,  0.001 sec
     gradient                   ...        0 min,  0.001 sec
 * total energy  :   -26.9675578 Eh     change       -0.4981261E-06 Eh
   gradient norm :     0.0003646 Eh/α   predicted    -0.3449423E-06 ( -30.75%)
   displ. norm   :     0.0028040 α      lambda       -0.2340270E-06
   maximum displ.:     0.0021283 α      in ANC's #2, #4, #3, ...

   *** GEOMETRY OPTIMIZATION CONVERGED AFTER 30 ITERATIONS ***

------------------------------------------------------------------------
 total energy gain   :        -0.0777149 Eh      -48.7668 kcal/mol
 total RMSD          :         1.4052467 a0        0.7436 Å
 total power (kW/mol):        -6.8013446 (step)-2384.0367 (real)
------------------------------------------------------------------------

 ANCopt (total)                0 d,  0 h,  0 min,  0.086 sec
 optimizer setup                ...        0 min,  0.000 sec (  0.350%)
 model hessian                  ...        0 min,  0.001 sec (  1.065%)
 ANC generation                 ...        0 min,  0.000 sec (  0.187%)
 coordinate transformation      ...        0 min,  0.000 sec (  0.197%)
 single point calculation       ...        0 min,  0.081 sec ( 94.470%)
 optimization log               ...        0 min,  0.001 sec (  1.229%)
 hessian update                 ...        0 min,  0.000 sec (  0.264%)
 rational function              ...        0 min,  0.001 sec (  1.092%)

================
 final structure:
================
7
 xtb: 6.7.1 (edcfbbe)
C           -1.55927493471667       -0.14928977182691        0.44502907569713
C           -2.40517832964548        1.17058412243013        0.07277072979875
F           -2.20410647858182       -1.28604413262502        0.08962177729778
F           -0.35603901071308       -0.20962673975223       -0.16294604425243
F           -1.30876801830798       -0.27211542928892        1.76574138319373
O           -3.19183147116936        1.51185331204147        0.94789761936895
O           -2.14588675686663        1.62768463902290       -1.03369454110445
 
 Bond Distances (Angstroems)
 ---------------------------
C1-C2=1.6113         C1-F3=1.3544         C1-F4=1.3495         C1-F5=1.3499         C2-C1=1.6113         C2-O6=1.2252         
C2-O7=1.2249         F3-C1=1.3544         F4-C1=1.3495         F5-C1=1.3499         O6-C2=1.2252         O7-C2=1.2249         
 C  C  Rav=1.6113 sigma=0.0000  Rmin=1.6113  Rmax=1.6113     1
 O  C  Rav=1.2251 sigma=0.0001  Rmin=1.2249  Rmax=1.2252     2
 F  C  Rav=1.3512 sigma=0.0022  Rmin=1.3495  Rmax=1.3544     3
 
 selected bond angles (degree)
 --------------------
F3-C1-C2=112.14                F4-C1-C2=113.62                F4-C1-F3=105.59                F5-C1-C2=113.45                
F5-C1-F3=105.59                F5-C1-F4=105.74                O6-C2-C1=113.59                O7-C2-C1=113.78                
O7-C2-O6=132.62                
 
 selected dihedral angles (degree)
 ---------------------------------
O6-C2-C1-F3= 87.61            O6-C2-C1-F4=207.26            O6-C2-C1-F5=328.09            O7-C2-C1-F3=268.31            
O7-C2-C1-F4= 27.96            O7-C2-C1-F5=148.79            
 
 CMA Distance (Angstroems)
 ---------------------------
R(CMA):  2.4064
           -------------------------------------------------
          |                Final Singlepoint                |
           -------------------------------------------------

          ...................................................
          :                      SETUP                      :
          :.................................................:
          :  # basis functions                  28          :
          :  # atomic orbitals                  28          :
          :  # shells                           14          :
          :  # electrons                        42          :
          :  max. iterations                   250          :
          :  Hamiltonian                  GFN2-xTB          :
          :  restarted?                      false          :
          :  GBSA solvation                   true          :
          :  PC potential                    false          :
          :  electronic temp.          300.0000000     K    :
          :  accuracy                    1.0000000          :
          :  -> integral cutoff          0.2500000E+02      :
          :  -> integral neglect         0.1000000E-07      :
          :  -> SCF convergence          0.1000000E-05 Eh   :
          :  -> wf. convergence          0.1000000E-03 e    :
          :  Broyden damping             0.4000000          :
          :  net charge                         -1          :
          :  unpaired electrons                  0          :
          ...................................................

 iter      E             dE          RMSdq      gap      omega  full diag
   1    -27.0690156 -0.270690E+02  0.216E-05    5.15       0.0  T
   2    -27.0690156 -0.113687E-12  0.132E-05    5.15    2871.7  T
   3    -27.0690156 -0.284217E-13  0.268E-06    5.15   14094.3  T

   *** convergence criteria satisfied after 3 iterations ***

         #    Occupation            Energy/Eh            Energy/eV
      -------------------------------------------------------------
         1        2.0000           -0.8849136             -24.0797
       ...           ...                  ...                  ...
        15        2.0000           -0.5417790             -14.7426
        16        2.0000           -0.5408227             -14.7165
        17        2.0000           -0.5384531             -14.6521
        18        2.0000           -0.5325786             -14.4922
        19        2.0000           -0.4428665             -12.0510
        20        2.0000           -0.4303284             -11.7098
        21        2.0000           -0.4077008             -11.0941 (HOMO)
        22                         -0.2185079              -5.9459 (LUMO)
        23                          0.0001523               0.0041
        24                          0.0426163               1.1596
        25                          0.0618003               1.6817
        26                          0.1248953               3.3986
       ...                                ...                  ...
        28                          0.7034179              19.1410
      -------------------------------------------------------------
                  HL-Gap            0.1891929 Eh            5.1482 eV
             Fermi-level           -0.3131044 Eh           -8.5200 eV

 SCC (total)                   0 d,  0 h,  0 min,  0.002 sec
 SCC setup                      ...        0 min,  0.000 sec (  5.239%)
 Dispersion                     ...        0 min,  0.000 sec (  1.105%)
 classical contributions        ...        0 min,  0.000 sec (  0.321%)
 integral evaluation            ...        0 min,  0.000 sec ( 21.974%)
 iterations                     ...        0 min,  0.001 sec ( 25.644%)
 molecular gradient             ...        0 min,  0.001 sec ( 41.771%)
 printout                       ...        0 min,  0.000 sec (  2.741%)

         :::::::::::::::::::::::::::::::::::::::::::::::::::::
         ::                     SUMMARY                     ::
         :::::::::::::::::::::::::::::::::::::::::::::::::::::
         :: total energy             -26.967557812511 Eh    ::
         :: total w/o Gsasa/hb       -26.973293407037 Eh    ::
         :: gradient norm              0.000365062395 Eh/a0 ::
         :: HOMO-LUMO gap              5.148200427430 eV    ::
         ::.................................................::
         :: SCC energy               -27.069014905837 Eh    ::
         :: -> isotropic ES            0.213975481668 Eh    ::
         :: -> anisotropic ES         -0.003899441086 Eh    ::
         :: -> anisotropic XC         -0.021789868328 Eh    ::
         :: -> dispersion             -0.004112566789 Eh    ::
         :: -> Gsolv                  -0.088726473687 Eh    ::
         ::    -> Gelec               -0.094462068213 Eh    ::
         ::    -> Gsasa                0.008504077082 Eh    ::
         ::    -> Ghb                 -0.003849242254 Eh    ::
         ::    -> Gshift               0.001080759698 Eh    ::
         :: repulsion energy           0.101457093326 Eh    ::
         :: add. restraining           0.000000000000 Eh    ::
         :: total charge              -1.000000000000 e     ::
         :::::::::::::::::::::::::::::::::::::::::::::::::::::

           ------------------------------------------------- 
          |                Numerical Hessian                |
           ------------------------------------------------- 
step length          :   0.00500
SCC accuracy         :   0.30000
Hessian scale factor :   1.00000
frozen atoms in %    :   0.00000    0
RMS gradient         :   0.00037
estimated CPU  time      0.00 min
estimated wall time      0.00 min

writing file <hessian>.

 projected vibrational frequencies (cm⁻¹)
eigval :       -0.00    -0.00    -0.00     0.00     0.00     0.00
eigval :      -13.68   170.66   191.43   334.17   400.52   452.17
eigval :      543.04   635.03   698.89   713.15  1001.62  1037.87
eigval :     1137.15  1297.61  1821.39
           -------------------------------------------------
          |                Property Printout                |
           -------------------------------------------------

    * Orbital Energies and Occupations

         #    Occupation            Energy/Eh            Energy/eV
      -------------------------------------------------------------
         1        2.0000           -0.8849136             -24.0797
       ...           ...                  ...                  ...
         9        2.0000           -0.6240525             -16.9813
        10        2.0000           -0.5868313             -15.9685
        11        2.0000           -0.5610875             -15.2680
        12        2.0000           -0.5551539             -15.1065
        13        2.0000           -0.5513472             -15.0029
        14        2.0000           -0.5428717             -14.7723
        15        2.0000           -0.5417790             -14.7426
        16        2.0000           -0.5408227             -14.7165
        17        2.0000           -0.5384531             -14.6521
        18        2.0000           -0.5325786             -14.4922
        19        2.0000           -0.4428665             -12.0510
        20        2.0000           -0.4303284             -11.7098
        21        2.0000           -0.4077008             -11.0941 (HOMO)
        22                         -0.2185079              -5.9459 (LUMO)
        23                          0.0001523               0.0041
        24                          0.0426163               1.1596
        25                          0.0618004               1.6817
        26                          0.1248953               3.3986
        27                          0.3843933              10.4599
        28                          0.7034179              19.1410
      -------------------------------------------------------------
                  HL-Gap            0.1891929 Eh            5.1482 eV
             Fermi-level           -0.3131044 Eh           -8.5200 eV

     #   Z          covCN         q      C6AA      α(0)
     1   6 C        3.314     0.430    18.351     6.832
     2   6 C        2.673     0.373    20.678     7.441
     3   9 F        0.789    -0.234    11.591     4.022
     4   9 F        0.789    -0.229    11.537     4.012
     5   9 F        0.789    -0.229    11.541     4.013
     6   8 O        0.856    -0.556    25.064     6.712
     7   8 O        0.856    -0.556    25.052     6.711

 Mol. C6AA /au·bohr⁶  :        833.633067
 Mol. C8AA /au·bohr⁸  :      17914.054816
 Mol. α(0) /au        :         39.742721


Wiberg/Mayer (AO) data.
largest (>0.10) Wiberg bond orders for each atom

 ---------------------------------------------------------------------------
     #   Z sym  total        # sym  WBO       # sym  WBO       # sym  WBO
 ---------------------------------------------------------------------------
     1   6 C    3.724 --     4 F    0.941     5 F    0.940     3 F    0.933
                             2 C    0.778
     2   6 C    3.951 --     7 O    1.560     6 O    1.560     1 C    0.778
     3   9 F    1.047 --     1 C    0.933
     4   9 F    1.054 --     1 C    0.941
     5   9 F    1.053 --     1 C    0.940
     6   8 O    1.897 --     2 C    1.560     7 O    0.254
     7   8 O    1.897 --     2 C    1.560     6 O    0.254
 ---------------------------------------------------------------------------

Topologies differ in total number of bonds
Writing topology from bond orders to xtbtopo.mol

molecular dipole:
                 x           y           z       tot (Debye)
 q only:        4.338      -1.817      -0.232
   full:        4.419      -1.946      -0.196      12.283
molecular quadrupole (traceless):
                xx          xy          yy          xz          yz          zz
 q only:      -15.691      15.598       5.416       3.475       1.448      10.276
  q+dip:      -15.946      16.351       6.351       4.355       1.501       9.596
   full:      -15.750      17.039       6.092       4.521       1.855       9.657

           -------------------------------------------------
          |                Geometry Summary                 |
           -------------------------------------------------

      molecular mass/u    :      113.0154911
   center of mass at/Å    :       -1.8273533       0.2558346       0.3273919
  moments of inertia/u·Å² :        0.1283404E+03   0.2045937E+03   0.2447849E+03
rotational constants/cm⁻¹ :        0.1313510E+00   0.8239565E-01   0.6886712E-01

 * 5 selected distances

     #   Z          #   Z                                           value/Å
     1   6 C        3   9 F                                       1.3543755 (max)
     1   6 C        4   9 F                                       1.3494633
     1   6 C        5   9 F                                       1.3498597
     2   6 C        6   8 O                                       1.2252082
     2   6 C        7   8 O                                       1.2249239 (min)

 * 2 distinct bonds (by element types)

   Z      Z             #   av. dist./Å        max./Å        min./Å
   6 C    8 O           2     1.2250661     1.2252082     1.2249239
   6 C    9 F           3     1.3512328     1.3543755     1.3494633

           -------------------------------------------------
          |               Frequency Printout                |
           -------------------------------------------------
 projected vibrational frequencies (cm⁻¹)
eigval :       -0.00    -0.00    -0.00     0.00     0.00     0.00
eigval :      -13.68   170.66   191.43   334.17   400.52   452.17
eigval :      543.04   635.03   698.89   713.15  1001.62  1037.87
eigval :     1137.15  1297.61  1821.39
 reduced masses (amu)
   1: 16.60   2: 16.59   3: 17.17   4: 17.37   5: 17.81   6: 16.69   7: 16.94   8: 17.60
   9: 17.90  10: 16.77  11: 17.74  12: 18.24  13: 17.24  14: 17.19  15: 14.57  16: 13.26
  17: 13.82  18: 13.55  19: 13.88  20: 14.88  21: 13.23
 IR intensities (km·mol⁻¹)
   1:  8.35   2:  8.13   3:  5.41   4:  4.03   5:  1.30   6:  6.59   7:  0.05   8:  5.36
   9: 16.28  10: 10.91  11:  8.22  12: 21.89  13:  0.01  14: 47.70  15:241.61  16: 81.48
  17:326.87  18:334.57  19: 85.24  20:298.85  21:******
 Raman intensities (Ä⁴*amu⁻¹)
   1:  0.00   2:  0.00   3:  0.00   4:  0.00   5:  0.00   6:  0.00   7:  0.00   8:  0.00
   9:  0.00  10:  0.00  11:  0.00  12:  0.00  13:  0.00  14:  0.00  15:  0.00  16:  0.00
  17:  0.00  18:  0.00  19:  0.00  20:  0.00  21:  0.00
 output can be read by thermo (or use thermo option).
 writing <g98.out> molden fake output.
 recommended (thermochemical) frequency scaling factor: 1.0
           -------------------------------------------------
          |             Thermodynamic Functions             |
           -------------------------------------------------

Refinement of some symmetry elements was terminated before convergence was reached.
Some symmetry elements may remain unidentified.
Molecule has the following symmetry elements: (sigma) 
It seems to be the Cs point group
cs  symmetry found (for desy threshold:  0.10E+00) used in thermo
 inverting freq            1   13.6767732108586     

          ...................................................
          :                      SETUP                      :
          :.................................................:
          :  # frequencies                          15      :
          :  # imaginary freq.                       0      :
          :  linear?                             false      :
          :  only rotor calc.                    false      :
          :  symmetry                               cs      :
          :  rotational number                       1      :
          :  scaling factor                  1.0000000      :
          :  rotor cutoff                   50.0000000 cm⁻¹ :
          :  imag. cutoff                  -20.0000000 cm⁻¹ :
          :.................................................:

    mode    ω/cm⁻¹     T·S(HO)/kcal·mol⁻¹    T·S(FR)/kcal·mol⁻¹   T·S(vib)
   ------------------------------------------------------------------------
       1     13.68    -2.20303 (  0.56%)    -1.43869 ( 99.44%)    -1.44294
       2    170.66    -0.72397 ( 99.27%)    -0.69272 (  0.73%)    -0.72374
       3    191.43    -0.66009 ( 99.54%)    -0.65871 (  0.46%)    -0.66008
   ------------------------------------------------------------------------

   temp. (K)  partition function   enthalpy   heat capacity  entropy
                                   cal/mol     cal/K/mol   cal/K/mol   J/K/mol
 298.15  VIB   94.1                 2324.813     14.036     14.279
         ROT  0.194E+06              888.752      2.981     27.174
         INT  0.182E+08             3213.566     17.016     41.453
         TR   0.116E+28             1481.254      4.968     40.065
         TOT                        4694.8196    21.9846    81.5174   341.0689

       T/K    H(0)-H(T)+PV         H(T)/Eh          T*S/Eh         G(T)/Eh
   ------------------------------------------------------------------------
    298.15    0.748167E-02    0.312849E-01    0.387316E-01   -0.744671E-02
   ------------------------------------------------------------------------

         :::::::::::::::::::::::::::::::::::::::::::::::::::::
         ::                  THERMODYNAMIC                  ::
         :::::::::::::::::::::::::::::::::::::::::::::::::::::
         :: total free energy         -26.975004517932 Eh   ::
         ::.................................................::
         :: total energy              -26.967557812180 Eh   ::
         :: zero point energy           0.023803184090 Eh   ::
         :: G(RRHO) w/o ZPVE           -0.031249889843 Eh   ::
         :: G(RRHO) contrib.           -0.007446705753 Eh   ::
         :::::::::::::::::::::::::::::::::::::::::::::::::::::
imag cut-off (cm-1) :    5.00
 found            1  significant imaginary frequency
 writing imag mode distorted coords to xtbhess.xyz
 for further optimization.

optimized geometry written to: xtbopt.xyz


           -------------------------------------------------
          | TOTAL ENERGY              -26.967557812180 Eh   |
          | TOTAL ENTHALPY            -26.936272956897 Eh   |
          | TOTAL FREE ENERGY         -26.975004517932 Eh   |
          | GRADIENT NORM               0.000365060009 Eh/α |
          | HOMO-LUMO GAP               5.148200342575 eV   |
           -------------------------------------------------

------------------------------------------------------------------------
 * finished run on 2025/10/18 at 19:01:54.394     
------------------------------------------------------------------------
 total:
 * wall-time:     0 d,  0 h,  0 min,  6.087 sec
 *  cpu-time:     0 d,  0 h,  0 min,  1.168 sec
 * ratio c/w:     0.192 speedup
 SCF:
 * wall-time:     0 d,  0 h,  0 min,  0.030 sec
 *  cpu-time:     0 d,  0 h,  0 min,  0.040 sec
 * ratio c/w:     1.329 speedup
 ANC optimizer:
 * wall-time:     0 d,  0 h,  0 min,  0.761 sec
 *  cpu-time:     0 d,  0 h,  0 min,  0.562 sec
 * ratio c/w:     0.739 speedup
 analytical hessian:
 * wall-time:     0 d,  0 h,  0 min,  0.511 sec
 *  cpu-time:     0 d,  0 h,  0 min,  0.347 sec
 * ratio c/w:     0.680 speedup

