7
 energy: -26.889842951935 gnorm: 0.241086785990 xtb: 6.7.1 (edcfbbe)
C           -1.13767655260094       -0.72916024477389        0.64537205426005
C           -3.02419669808064        2.11232125050496       -0.21961084024827
F           -2.00886058928119       -1.61535443546618        0.19853059363140
F            0.00406683706142       -0.77484079908023       -0.01471584703152
F           -0.96338760568294       -0.81471721888917        1.95063305239769
O           -3.53388193737802        2.07748970007225        0.80361493316362
O           -2.50714845403771        2.13730774763228       -1.23940394617297
7
 energy: -26.938155083844 gnorm: 0.033619883698 xtb: 6.7.1 (edcfbbe)
C           -1.21346125995078       -0.55683912594003        0.61157139081044
C           -3.02076879098705        2.10695564844469       -0.21803838243274
F           -1.98072227728272       -1.66676231740239        0.21133454239649
F            0.02290766323488       -0.83106620277543       -0.00083863537183
F           -0.93998907433042       -0.87077896757445        1.95528302829920
O           -3.53322422743377        2.07579977404373        0.80454577475280
O           -2.50582703325016        2.13573719120391       -1.23943771845437
7
 energy: -26.939079019115 gnorm: 0.009171328515 xtb: 6.7.1 (edcfbbe)
C           -1.23089905318468       -0.51858398300918        0.60372836274385
C           -3.01109300155744        2.08991187665769       -0.21366885634592
F           -1.98494243773440       -1.66007337098117        0.20967775861824
F            0.02007399625729       -0.83258169178791       -0.00112072167538
F           -0.94169913529637       -0.87181758033533        1.95311180769039
O           -3.52496442232233        2.06290979904615        0.80759034133869
O           -2.49756094616213        2.12328095040982       -1.23489869236988
7
 energy: -26.939278107741 gnorm: 0.006450488048 xtb: 6.7.1 (edcfbbe)
C           -1.23721062374998       -0.50758250852142        0.60084013902585
C           -2.99940503546781        2.06922414061271       -0.20840019566751
F           -1.99933107232602       -1.64463848041441        0.20331816290484
F            0.01527540242947       -0.81899681201877       -0.00785917757790
F           -0.94971608373326       -0.85799194723635        1.95383126762525
O           -3.51442903277684        2.04592352935269        0.81247205798406
O           -2.48626855437564        2.10710807822565       -1.22978225429462
7
 energy: -26.939532553629 gnorm: 0.005482964805 xtb: 6.7.1 (edcfbbe)
C           -1.25077962598890       -0.48298193670956        0.59470121442831
C           -2.97457314019478        2.02553480136488       -0.19719837901685
F           -2.02672196948188       -1.61216156964080        0.19151303496516
F            0.00310444797021       -0.79184846195555       -0.02048876270870
F           -0.96609525445842       -0.83054366073680        1.95272366458986
O           -3.49313032741330        2.01103527921337        0.82229391569463
O           -2.46288913043308        2.07401154846466       -1.21912468795249
7
 energy: -26.939716543974 gnorm: 0.007031674838 xtb: 6.7.1 (edcfbbe)
C           -1.26546179129474       -0.45635979205869        0.58803177480344
C           -2.94971440970897        1.98192450868164       -0.18596982588254
F           -2.04988283268238       -1.58065955668598        0.18151636616419
F           -0.01183015558971       -0.76539227367403       -0.03088194377221
F           -0.98278828340946       -0.80369735145257        1.94805651600776
O           -3.47178544134569        1.97653409501821        0.83206177370553
O           -2.43962208596924        2.04069637017170       -1.20839466102628
7
 energy: -26.939902383884 gnorm: 0.007272941603 xtb: 6.7.1 (edcfbbe)
C           -1.27914209315929       -0.43126739528069        0.58187954582983
C           -2.92727724750378        1.94266600270887       -0.17583531880853
F           -2.06779956008430       -1.55221491771612        0.17371473695365
F           -0.02745292686900       -0.74224581739226       -0.03837855409776
F           -0.99785173110787       -0.78055311232234        1.94105679981664
O           -3.45260266737645        1.94584892562619        0.84080158087666
O           -2.41895877389956        2.01081231437668       -1.19881879057063
7
 energy: -26.940132424631 gnorm: 0.006580562827 xtb: 6.7.1 (edcfbbe)
C           -1.29515290856548       -0.40117075470322        0.57465729223574
C           -2.90142271399788        1.89740409454340       -0.16416661982156
F           -2.08647115158223       -1.51829189143135        0.16559430615412
F           -0.04719446214953       -0.71693012451922       -0.04518754391768
F           -1.01520433059993       -0.75481216536201        1.93045823143698
O           -3.43042315528059        1.91030275532646        0.85088290917567
O           -2.39521627782467        1.97654408614637       -1.18781857526346
7
 energy: -26.940353387124 gnorm: 0.006848322164 xtb: 6.7.1 (edcfbbe)
C           -1.31352630306940       -0.36498614906467        0.56627787659068
C           -2.87097256061744        1.84385217313513       -0.15049462228969
F           -2.10951513714178       -1.47500783577461        0.15541381905842
F           -0.07041423992018       -0.68896847865665       -0.05224487801021
F           -1.03578103657604       -0.72537089812573        1.91735381590090
O           -3.40399628376768        1.86699083336436        0.86290332765221
O           -2.36687943890786        1.93653635512270       -1.17478933890255
7
 energy: -26.940540801248 gnorm: 0.009186085754 xtb: 6.7.1 (edcfbbe)
C           -1.33730388047529       -0.31695735867507        0.55541640457871
C           -2.82967855366977        1.77124945328685       -0.13219041438311
F           -2.14261995476592       -1.41471985594019        0.14064398026087
F           -0.10090086184343       -0.65129075728871       -0.06219417878015
F           -1.06417828268317       -0.68551564435403        1.90077687525165
O           -3.36784422641587        1.80606112283500        0.87945115482620
O           -2.32855924014702        1.88421904013683       -1.15748382175447
7
 energy: -26.940599667752 gnorm: 0.010474394915 xtb: 6.7.1 (edcfbbe)
C           -1.34791017806052       -0.29601714223889        0.54998899838436
C           -2.80948964564832        1.73608956388505       -0.12315063697942
F           -2.15863803985997       -1.38829822023779        0.13349507914418
F           -0.11445867883435       -0.63238404141992       -0.06811185181055
F           -1.07874855031624       -0.66367180062500        1.89388141694158
O           -3.35288850872616        1.77972018358313        0.88698461032907
O           -2.30895139855497        1.85760745705417       -1.14866761600956
7
 energy: -26.940677985634 gnorm: 0.015233484435 xtb: 6.7.1 (edcfbbe)
C           -1.37053577470263       -0.25517624800469        0.53957305855213
C           -2.76724513945856        1.66369446178539       -0.10465043320893
F           -2.18954832475010       -1.33989922557194        0.12014773245220
F           -0.14305553508005       -0.58947878355398       -0.08076864082838
F           -1.10829186309416       -0.61855242606161        1.88122738905988
O           -3.31805156930451        1.71775689291035        0.90309311904629
O           -2.27435679361062        1.81470132849736       -1.13420222507359
7
 energy: -26.940856693843 gnorm: 0.027509742505 xtb: 6.7.1 (edcfbbe)
C           -1.40155990055348       -0.20456081301361        0.52258910292144
C           -2.70904608984244        1.56486725016699       -0.07798037948086
F           -2.22507331671835       -1.28747408484140        0.10414070512122
F           -0.18094884190294       -0.52816489953407       -0.09906537535439
F           -1.15051217419600       -0.54797234485844        1.86253904270825
O           -3.28496183322503        1.65610049427069        0.92113224850273
O           -2.21898284356251        1.74025039781090       -1.10893534441887
7
 energy: -26.940191928683 gnorm: 0.093028377286 xtb: 6.7.1 (edcfbbe)
C           -1.46337397238531       -0.10894222633498        0.48696223682000
C           -2.59152112430130        1.36659563867732       -0.02349895222200
F           -2.29112600130625       -1.19504989140817        0.07392974584620
F           -0.25570116449261       -0.40157084793410       -0.13714740262041
F           -1.23675152949428       -0.39914307578711        1.82531429974613
O           -3.22822548931434        1.54732738968838        0.95474459901487
O           -2.10438571870694        1.58382901310010       -1.05588452658549
7
 energy: -26.939550129511 gnorm: 0.100945500979 xtb: 6.7.1 (edcfbbe)
C           -1.42581497100741       -0.18855091017256        0.50417279518595
C           -2.65130619914092        1.47403788723730       -0.05059985925681
F           -2.23771627175108       -1.29509472720228        0.09513350397376
F           -0.21242190936349       -0.44445870144798       -0.12889536653438
F           -1.19060424895112       -0.46109400482795        1.85077993362469
O           -3.30302167923517        1.67889440384190        0.92614683196902
O           -2.15019972055172        1.62931205257283       -1.07231783896289
7
 energy: -26.936889075959 gnorm: 0.047839787749 xtb: 6.7.1 (edcfbbe)
C           -1.41802274541875       -0.21755225322794        0.55010997452948
C           -2.68401302432655        1.53975505336474       -0.08613323697152
F           -2.22628857171539       -1.31115036049301        0.10206526047432
F           -0.22866645271799       -0.41065145465811       -0.13326197213316
F           -1.13760066296546       -0.57362793593101        1.88198197918285
O           -3.19995468627380        1.53497555985321        0.95446427558790
O           -2.27653885658279        1.83129739109312       -1.14480628067017
7
 energy: -26.941425081939 gnorm: 0.030411096270 xtb: 6.7.1 (edcfbbe)
C           -1.41325684411607       -0.21385604798544        0.52800385349229
C           -2.68991945177543        1.54249745038868       -0.07551813484202
F           -2.22002485569983       -1.31734675371540        0.10899720647238
F           -0.19985678558014       -0.47360460133108       -0.11665637211510
F           -1.14949566592832       -0.53512857556683        1.86753232308551
O           -3.26766077834579        1.62294336682356        0.92463906257674
O           -2.23087061855518        1.76754116138756       -1.11257793867025
7
 energy: -26.942887100587 gnorm: 0.081245893130 xtb: 6.7.1 (edcfbbe)
C           -1.45853358522445       -0.14096988676133        0.48840993320436
C           -2.60636081799689        1.39889885818674       -0.03007027465990
F           -2.25956083807783       -1.26067991062174        0.09233279456776
F           -0.23850298212783       -0.41556092920453       -0.13310486840009
F           -1.22078646759621       -0.40195939697434        1.83141881847792
O           -3.26863679402614        1.58582422289813        0.93418192637485
O           -2.11870351495158        1.62749304247842       -1.05874832956557
7
 energy: -26.944776637455 gnorm: 0.083899963084 xtb: 6.7.1 (edcfbbe)
C           -1.47059249342318       -0.13292469638490        0.48842863719011
C           -2.58316802489572        1.36368205120213       -0.02291844223235
F           -2.26844306850017       -1.25289521358150        0.08925812025604
F           -0.25929579007280       -0.37494694488972       -0.14525927910530
F           -1.23005160177977       -0.38220855614939        1.82838574027187
O           -3.25029234151918        1.54543092351118        0.94067962218924
O           -2.10924167981015        1.62690843629361       -1.05415439857029
7
 energy: -26.950770867991 gnorm: 0.096671184480 xtb: 6.7.1 (edcfbbe)
C           -1.51402549490106       -0.12259786207780        0.49404440657051
C           -2.46486297478129        1.19479707254726        0.00689669636276
F           -2.31029787572138       -1.21512258042727        0.07436835785016
F           -0.33825824015222       -0.21409118847879       -0.18891711140166
F           -1.27505476980812       -0.28779616907796        1.82066040562227
O           -3.16737524086527        1.33688443328829        0.96965470603724
O           -2.10121040377166        1.70097229422781       -1.05228746104185
7
 energy: -26.954451736059 gnorm: 0.073450301683 xtb: 6.7.1 (edcfbbe)
C           -1.49897648527226       -0.15978039126375        0.48546688059379
C           -2.50193743342292        1.25572516437644       -0.00268150311994
F           -2.26114351966491       -1.28269934875843        0.08975529699856
F           -0.30493106254613       -0.26057199146665       -0.16055406634741
F           -1.27712501553768       -0.28590243259161        1.81831123487549
O           -3.17795259507306        1.43923569174692        0.96156428109141
O           -2.14901888848406        1.68703930795848       -1.06744212409245
7
 energy: -26.948198952963 gnorm: 0.099687810510 xtb: 6.7.1 (edcfbbe)
C           -1.49709333107339       -0.15515895109523        0.45236275900764
C           -2.36897368270513        1.35347236012069        0.11342208807839
F           -2.23160706223515       -1.28905998580237        0.09218344157116
F           -0.29208451570276       -0.30986543833739       -0.15975400058608
F           -1.27405623717939       -0.29207049095122        1.77956510993938
O           -3.30409190863441        1.46252759162927        0.92336498743178
O           -2.20317826247081        1.62320091443768       -1.07672438544283
7
 energy: -26.961897627765 gnorm: 0.049603631064 xtb: 6.7.1 (edcfbbe)
C           -1.51231190056600       -0.14023541559575        0.43864598446998
C           -2.46655496348019        1.26373562057692        0.06381353704624
F           -2.20815127594204       -1.28764408948538        0.09600988833746
F           -0.30193508827930       -0.29964774073052       -0.15724603969461
F           -1.28237843549770       -0.28070835270775        1.76285634133777
O           -3.25302423438863        1.50537858390145        0.95007150406460
O           -2.14672910184717        1.63216739404245       -1.02973121556198
7
 energy: -26.963834197623 gnorm: 0.042702277043 xtb: 6.7.1 (edcfbbe)
C           -1.53469225801847       -0.14538305478707        0.47240442277473
C           -2.44257304676102        1.23736393845165        0.03603194169666
F           -2.22002068991549       -1.27517535774370        0.09613469549777
F           -0.33820249633496       -0.24154634809121       -0.15098433694793
F           -1.27668843535076       -0.31321987547158        1.79172152959715
O           -3.19589788915035        1.47685666077577        0.94321846781428
O           -2.16301018446996        1.65415003686757       -1.06410672043321
7
 energy: -26.966432344243 gnorm: 0.024989153374 xtb: 6.7.1 (edcfbbe)
C           -1.55185912750291       -0.14820465724605        0.45674861268037
C           -2.42756113524849        1.20715611561928        0.05590579135830
F           -2.20963091663427       -1.28298096262914        0.09340117141077
F           -0.35195014365534       -0.21841982439563       -0.16047216175492
F           -1.28967694069294       -0.29259728896765        1.77592304281306
O           -3.19891913614199        1.49785612187714        0.94922189673600
O           -2.14148760012510        1.63023649574346       -1.04630835324413
7
 energy: -26.967319018662 gnorm: 0.011178086003 xtb: 6.7.1 (edcfbbe)
C           -1.57183810343523       -0.14914784981639        0.44034379544136
C           -2.39889678516557        1.15926442091859        0.07833974234662
F           -2.20115565598592       -1.28307801133186        0.08661882704068
F           -0.36656932723820       -0.19068250224470       -0.16564774199040
F           -1.31457685932524       -0.26619822365781        1.76077670496784
O           -3.18528136616973        1.51302430432213        0.95594652711887
O           -2.13276690268114        1.60986386181145       -1.03195785492553
7
 energy: -26.967525849178 gnorm: 0.004515986318 xtb: 6.7.1 (edcfbbe)
C           -1.56046742710165       -0.15009181754342        0.44319942415164
C           -2.40850489447411        1.17450207555827        0.07236981446630
F           -2.20193641813054       -1.28481214476994        0.08869135371089
F           -0.35439127204284       -0.21082132976332       -0.16106630911476
F           -1.30964635423648       -0.27219184795989        1.76489842269680
O           -3.19134248458976        1.51191759991708        0.95236068644165
O           -2.14479614942565        1.62454346456265       -1.03603339235307
7
 energy: -26.967549943094 gnorm: 0.002417559372 xtb: 6.7.1 (edcfbbe)
C           -1.56049852495283       -0.15012611276198        0.44402154284848
C           -2.40636987723919        1.17228273405299        0.07231474040634
F           -2.20282245530995       -1.28574454857924        0.08939700611002
F           -0.35551389875282       -0.20963599462144       -0.16209447605565
F           -1.30955490238775       -0.27193251316265        1.76562011232028
O           -3.19081969763909        1.51153113766431        0.95019729123397
O           -2.14550564371941        1.62667129740942       -1.03503621686399
7
 energy: -26.967557314381 gnorm: 0.000763743049 xtb: 6.7.1 (edcfbbe)
C           -1.55924577923932       -0.14944585198084        0.44472211283412
C           -2.40523923246553        1.17032068184233        0.07266250358715
F           -2.20409374186539       -1.28519621948605        0.08939512560996
F           -0.35540685664107       -0.21013904352070       -0.16265666418377
F           -1.30916556655591       -0.27188781679068        1.76594202894810
O           -3.19146233421646        1.51163970856365        0.94826751273782
O           -2.14647148901735        1.62775454137370       -1.03391261953392
7
 energy: -26.967557812507 gnorm: 0.000364852722 xtb: 6.7.1 (edcfbbe)
C           -1.55927493471667       -0.14928977182691        0.44502907569713
C           -2.40517832964548        1.17058412243013        0.07277072979875
F           -2.20410647858182       -1.28604413262502        0.08962177729778
F           -0.35603901071308       -0.20962673975223       -0.16294604425243
F           -1.30876801830798       -0.27211542928892        1.76574138319373
O           -3.19183147116936        1.51185331204147        0.94789761936895
O           -2.14588675686663        1.62768463902290       -1.03369454110445
