 Entering Gaussian System
 *********************************************
 Gaussian 98:
 frequency output generated by the xtb code
 *********************************************
                         Standard orientation:
 --------------------------------------------------------------------
  Center     Atomic     Atomic              Coordinates (Angstroms)
  Number     Number      Type              X           Y           Z
 --------------------------------------------------------------------
    1          6             0       -4.468613   -3.762960   -3.189860
    2          6             0       -3.465505   -2.748256   -2.668026
    3          6             0       -4.080305   -1.745548   -1.648728
    4          8             0       -3.219957   -0.881249   -1.122001
    5          8             0       -5.384071   -3.137751   -4.064321
    6          6             0       -6.389752   -4.019302   -4.522853
    7          1             0       -5.946041   -4.862566   -5.064042
    8          1             0       -6.982400   -4.401732   -3.684316
    9          1             0       -7.019688   -3.435548   -5.188728
   10          1             0       -3.946076   -4.569164   -3.731292
   11          1             0       -5.011246   -4.209764   -2.340966
   12          1             0       -2.644819   -3.263975   -2.166427
   13          1             0       -3.055398   -2.168684   -3.496147
   14          1             0       -4.940765   -1.229848   -2.182820
   15          1             0       -4.594119   -2.380784   -0.846885
 --------------------------------------------------------------------
     1 basis functions        1 primitive gaussians
     1 alpha electrons        1 beta electrons
 
 Harmonic frequencies (cm**-1), IR intensities (km*mol⁻¹),
 Raman scattering activities (A**4/amu), Raman depolarization ratios,
 reduced masses (AMU), force constants (mDyne/A) and normal coordinates:
                      1                      2                      3
                        a                      a                      a 
 Frequencies --    74.9442                87.2676                98.4265
 Red. masses --    10.0112                 8.0068                10.7256
 Frc consts  --     0.0000                 0.0000                 0.0000
 IR Inten    --     3.8517                 4.8222                 9.6046
 Raman Activ --     0.0000                 0.0000                 0.0000
 Depolar     --     0.0000                 0.0000                 0.0000
 Atom AN      X      Y      Z        X      Y      Z        X      Y      Z
   1   6    -0.23   0.07   0.15    -0.15   0.11   0.08     0.03  -0.12   0.02
   2   6    -0.14   0.06   0.01    -0.14   0.19  -0.08     0.06  -0.21   0.12
   3   6     0.11   0.07   0.15     0.10  -0.11   0.35     0.03  -0.33   0.22
   4   8     0.32   0.03  -0.06     0.14   0.07   0.03    -0.23   0.33  -0.47
   5   8    -0.34   0.04   0.23     0.15  -0.15  -0.45     0.07   0.10   0.16
   6   6     0.23  -0.24  -0.43    -0.07  -0.10  -0.00     0.03   0.25  -0.08
   7   1     0.22   0.07  -0.21    -0.07  -0.19   0.20    -0.00   0.11  -0.09
   8   1     0.07  -0.27  -0.21    -0.11   0.20   0.04     0.01   0.01  -0.05
   9   1     0.02  -0.07  -0.08     0.08  -0.10  -0.16     0.01   0.13   0.02
  10   1    -0.08   0.02   0.04    -0.04  -0.05   0.15    -0.01  -0.02  -0.03
  11   1    -0.05   0.03   0.06    -0.12   0.15   0.04     0.01  -0.06  -0.01
  12   1    -0.02   0.01  -0.04     0.04   0.07  -0.14     0.03  -0.07   0.00
  13   1    -0.08   0.02  -0.02    -0.16   0.12  -0.04    -0.00  -0.02   0.05
  14   1     0.00   0.03   0.10    -0.09  -0.08   0.25    -0.15  -0.27   0.15
  15   1     0.08   0.03   0.07     0.20  -0.10   0.15     0.23  -0.13   0.18
                      4                      5                      6
                        a                      a                      a 
 Frequencies --   224.0105               254.8415               301.6074
 Red. masses --     4.5396                 7.9495                 9.1751
 Frc consts  --     0.0000                 0.0000                 0.0000
 IR Inten    --     7.0208                 5.9679                 6.2393
 Raman Activ --     0.0000                 0.0000                 0.0000
 Depolar     --     0.0000                 0.0000                 0.0000
 Atom AN      X      Y      Z        X      Y      Z        X      Y      Z
   1   6     0.04  -0.00  -0.00     0.08   0.11  -0.39    -0.25   0.31   0.04
   2   6     0.10  -0.01  -0.12    -0.08  -0.12   0.38     0.29  -0.19  -0.06
   3   6     0.02  -0.07  -0.12    -0.04   0.07   0.21     0.20  -0.19  -0.12
   4   8    -0.10  -0.05  -0.00     0.20   0.08  -0.11    -0.24   0.06   0.11
   5   8    -0.19   0.14   0.35    -0.19   0.12  -0.19    -0.12   0.31  -0.18
   6   6     0.09   0.02  -0.05    -0.03  -0.20   0.07     0.14  -0.18   0.15
   7   1     0.14  -0.20   0.39     0.04  -0.11   0.14     0.12  -0.02   0.06
   8   1    -0.32   0.31  -0.12    -0.02   0.02   0.05     0.15  -0.10   0.10
   9   1     0.33  -0.13  -0.42    -0.01  -0.17  -0.07    -0.08  -0.17   0.06
  10   1    -0.02   0.03  -0.08     0.11   0.16  -0.23    -0.20  -0.04   0.09
  11   1     0.08  -0.05   0.02     0.05  -0.16  -0.20    -0.13   0.24   0.06
  12   1     0.04   0.01  -0.05    -0.15  -0.15   0.21    -0.01  -0.18   0.00
  13   1     0.00  -0.00  -0.05     0.19  -0.03   0.21     0.17  -0.10   0.00
  14   1     0.01  -0.03  -0.05     0.00   0.02   0.04     0.04  -0.12  -0.08
  15   1    -0.00  -0.04  -0.05    -0.02   0.09   0.11     0.05  -0.09  -0.06
                      7                      8                      9
                        a                      a                      a 
 Frequencies --   368.9074               549.8714               769.5209
 Red. masses --    12.2476                 9.7553                 3.6885
 Frc consts  --     0.0000                 0.0000                 0.0000
 IR Inten    --    16.3931                12.1319                 7.2976
 Raman Activ --     0.0000                 0.0000                 0.0000
 Depolar     --     0.0000                 0.0000                 0.0000
 Atom AN      X      Y      Z        X      Y      Z        X      Y      Z
   1   6    -0.06   0.07   0.05     0.20   0.38   0.17     0.05   0.03   0.11
   2   6    -0.26   0.09   0.00     0.30   0.26   0.18     0.16  -0.10   0.30
   3   6    -0.33  -0.09  -0.03    -0.16  -0.13  -0.03     0.05  -0.15   0.09
   4   8     0.10  -0.42  -0.38     0.00  -0.30  -0.26    -0.02   0.01  -0.09
   5   8     0.19   0.30   0.05    -0.11  -0.17   0.00    -0.07   0.12  -0.12
   6   6     0.34   0.03   0.26    -0.23  -0.06  -0.15    -0.10  -0.06  -0.06
   7   1     0.15   0.01   0.11    -0.11  -0.01  -0.08    -0.01  -0.01  -0.00
   8   1     0.16  -0.00   0.12    -0.12  -0.01  -0.08    -0.00  -0.01   0.00
   9   1     0.02  -0.09   0.06    -0.00   0.07  -0.03    -0.06  -0.05  -0.02
  10   1    -0.03   0.01   0.02     0.04   0.04   0.14     0.04   0.07  -0.03
  11   1    -0.06   0.03  -0.00     0.09   0.22   0.13    -0.03  -0.07  -0.05
  12   1    -0.03   0.10  -0.00    -0.01   0.03   0.18     0.36   0.10  -0.32
  13   1    -0.13   0.07   0.00     0.24   0.11   0.16    -0.41   0.24   0.03
  14   1    -0.10   0.02   0.04    -0.07  -0.05   0.00     0.21  -0.03  -0.32
  15   1    -0.08  -0.01   0.02    -0.03  -0.06  -0.01    -0.28   0.22   0.02
                     10                     11                     12
                        a                      a                      a 
 Frequencies --   870.1926               912.1648              1030.9851
 Red. masses --     7.5135                 7.6914                 7.7188
 Frc consts  --     0.0000                 0.0000                 0.0000
 IR Inten    --    15.0114                17.2682                64.7585
 Raman Activ --     0.0000                 0.0000                 0.0000
 Depolar     --     0.0000                 0.0000                 0.0000
 Atom AN      X      Y      Z        X      Y      Z        X      Y      Z
   1   6     0.14  -0.25  -0.23    -0.15   0.32  -0.28    -0.15   0.26   0.17
   2   6     0.29  -0.15  -0.20    -0.18  -0.04  -0.12     0.33  -0.25  -0.15
   3   6    -0.36   0.19   0.33     0.06  -0.13   0.15    -0.28   0.30   0.21
   4   8     0.10   0.05  -0.01    -0.02   0.06  -0.04     0.01  -0.10  -0.05
   5   8    -0.07   0.08   0.02     0.06  -0.37   0.18    -0.06  -0.14  -0.09
   6   6    -0.03   0.00  -0.01     0.22   0.08   0.14     0.14  -0.00   0.06
   7   1     0.04   0.01   0.02    -0.04   0.01  -0.05    -0.10  -0.03  -0.06
   8   1     0.00  -0.02  -0.00    -0.06   0.02  -0.04    -0.03   0.04  -0.01
   9   1    -0.03  -0.05  -0.03     0.20   0.22   0.07     0.12   0.15   0.07
  10   1    -0.31  -0.37   0.05    -0.04   0.00   0.03     0.06   0.25  -0.16
  11   1     0.01   0.29   0.12     0.05   0.15   0.04    -0.00  -0.23  -0.10
  12   1     0.10   0.02  -0.02    -0.13  -0.31  -0.20     0.14  -0.06  -0.13
  13   1     0.09   0.11   0.06     0.04   0.19   0.15    -0.04  -0.26  -0.24
  14   1    -0.02   0.08   0.03     0.15   0.01  -0.18    -0.12   0.02   0.09
  15   1    -0.12   0.13   0.09    -0.19   0.14   0.02     0.02  -0.02   0.04
                     13                     14                     15
                        a                      a                      a 
 Frequencies --  1042.8681              1090.5869              1107.9391
 Red. masses --    10.7948                 7.4022                 9.3186
 Frc consts  --     0.0000                 0.0000                 0.0000
 IR Inten    --    44.2515                84.2359               127.3498
 Raman Activ --     0.0000                 0.0000                 0.0000
 Depolar     --     0.0000                 0.0000                 0.0000
 Atom AN      X      Y      Z        X      Y      Z        X      Y      Z
   1   6     0.14   0.18   0.11     0.07  -0.16   0.34    -0.52  -0.11  -0.08
   2   6    -0.17  -0.17  -0.23    -0.00   0.13  -0.24     0.29   0.29  -0.02
   3   6    -0.05   0.03   0.16    -0.00  -0.12   0.22    -0.16  -0.16  -0.01
   4   8    -0.02   0.01  -0.03    -0.01   0.03  -0.06     0.12   0.09   0.03
   5   8     0.43   0.28   0.21    -0.26  -0.11  -0.20     0.27  -0.01   0.23
   6   6    -0.38  -0.26  -0.21     0.14   0.32  -0.07    -0.04  -0.11  -0.18
   7   1    -0.01  -0.04   0.01     0.08   0.00   0.12    -0.14  -0.13   0.02
   8   1     0.00  -0.02   0.02     0.21   0.09   0.13     0.14   0.14   0.13
   9   1    -0.14  -0.13  -0.05    -0.23  -0.23  -0.05    -0.10  -0.04   0.04
  10   1     0.12   0.09   0.03     0.12   0.10  -0.02    -0.10   0.06  -0.16
  11   1     0.13   0.01   0.07     0.19  -0.15   0.12    -0.07  -0.24  -0.08
  12   1    -0.13  -0.26  -0.14    -0.15  -0.20  -0.03     0.02   0.05   0.06
  13   1     0.02  -0.10  -0.07     0.20   0.01   0.03     0.17   0.17   0.11
  14   1     0.04   0.04  -0.03     0.12   0.05  -0.11     0.03  -0.01  -0.05
  15   1    -0.08   0.05   0.02    -0.17   0.07  -0.01    -0.04  -0.01  -0.05
                     16                     17                     18
                        a                      a                      a 
 Frequencies --  1116.4919              1126.8779              1162.0291
 Red. masses --    13.0184                 4.6062                 6.7216
 Frc consts  --     0.0000                 0.0000                 0.0000
 IR Inten    --   406.0525                29.2047                82.1420
 Raman Activ --     0.0000                 0.0000                 0.0000
 Depolar     --     0.0000                 0.0000                 0.0000
 Atom AN      X      Y      Z        X      Y      Z        X      Y      Z
   1   6     0.15   0.10   0.11     0.18   0.03  -0.01     0.03  -0.18   0.14
   2   6    -0.08  -0.13  -0.07    -0.13  -0.12   0.05    -0.03   0.18  -0.18
   3   6    -0.48  -0.46  -0.23     0.10   0.08  -0.04     0.16  -0.18   0.28
   4   8     0.40   0.39   0.23    -0.06  -0.04  -0.00    -0.09   0.02  -0.11
   5   8    -0.09   0.04  -0.07    -0.20   0.09   0.11    -0.03   0.28  -0.14
   6   6     0.05  -0.04   0.03     0.26  -0.12  -0.27     0.05  -0.28   0.14
   7   1    -0.06  -0.01  -0.04    -0.48  -0.31  -0.06    -0.16  -0.02  -0.16
   8   1    -0.04   0.01  -0.02     0.22   0.39   0.25    -0.21  -0.02  -0.11
   9   1     0.06   0.07   0.03    -0.07   0.11   0.18     0.26   0.28   0.10
  10   1     0.04   0.04   0.02    -0.06  -0.06   0.02    -0.06  -0.00  -0.08
  11   1     0.04   0.04   0.03     0.06   0.12   0.07    -0.06  -0.07  -0.03
  12   1    -0.01   0.04   0.04     0.00   0.02   0.00    -0.09   0.15   0.20
  13   1    -0.04  -0.07  -0.05    -0.08  -0.01   0.00     0.14  -0.11  -0.08
  14   1     0.03  -0.05  -0.03    -0.03   0.00   0.04     0.19   0.15  -0.07
  15   1     0.03   0.00  -0.06     0.04   0.00   0.03    -0.23   0.03  -0.07
                     19                     20                     21
                        a                      a                      a 
 Frequencies --  1199.8058              1233.2098              1295.7288
 Red. masses --     4.4049                 3.1637                 4.2463
 Frc consts  --     0.0000                 0.0000                 0.0000
 IR Inten    --     0.5827                 2.6179                17.1007
 Raman Activ --     0.0000                 0.0000                 0.0000
 Depolar     --     0.0000                 0.0000                 0.0000
 Atom AN      X      Y      Z        X      Y      Z        X      Y      Z
   1   6    -0.04  -0.17   0.25    -0.08   0.22  -0.00    -0.07   0.07   0.07
   2   6    -0.03  -0.04  -0.01    -0.10  -0.19  -0.01     0.03  -0.40  -0.32
   3   6    -0.02   0.17  -0.23     0.12  -0.09   0.03     0.07  -0.00  -0.04
   4   8     0.01  -0.06   0.08    -0.05   0.03  -0.01    -0.07   0.01  -0.00
   5   8     0.02   0.17  -0.20     0.13  -0.16  -0.04    -0.03   0.01   0.03
   6   6     0.02  -0.13   0.10    -0.05   0.07  -0.03     0.01   0.01  -0.00
   7   1    -0.05   0.02  -0.09     0.07   0.02   0.04     0.00   0.00   0.01
   8   1    -0.12  -0.03  -0.08     0.05  -0.03   0.01    -0.00   0.00  -0.00
   9   1     0.14   0.13   0.04    -0.05  -0.06  -0.04    -0.02  -0.01   0.00
  10   1    -0.17   0.05  -0.23    -0.38   0.05  -0.36     0.33   0.12   0.20
  11   1     0.29  -0.12   0.20     0.43  -0.00   0.26    -0.16  -0.05  -0.11
  12   1    -0.04  -0.24  -0.18     0.05   0.37   0.29     0.04   0.28   0.24
  13   1     0.05   0.39   0.31    -0.12  -0.05  -0.04     0.04   0.42   0.31
  14   1    -0.15  -0.13   0.04     0.07   0.13   0.06     0.02   0.22   0.20
  15   1     0.18   0.05   0.11    -0.06   0.03   0.00    -0.01   0.08   0.05
                     22                     23                     24
                        a                      a                      a 
 Frequencies --  1309.4976              1344.3193              1381.4144
 Red. masses --     1.7572                 3.9430                 2.9210
 Frc consts  --     0.0000                 0.0000                 0.0000
 IR Inten    --     0.8315                19.9569               131.8656
 Raman Activ --     0.0000                 0.0000                 0.0000
 Depolar     --     0.0000                 0.0000                 0.0000
 Atom AN      X      Y      Z        X      Y      Z        X      Y      Z
   1   6     0.06   0.00   0.04     0.34   0.18   0.24    -0.03  -0.03  -0.04
   2   6     0.04  -0.03   0.18    -0.08   0.01  -0.12     0.12   0.13   0.07
   3   6    -0.03  -0.03  -0.02     0.03  -0.01  -0.02     0.03  -0.23  -0.21
   4   8    -0.01   0.10  -0.10    -0.01  -0.01   0.02    -0.12  -0.04   0.01
   5   8    -0.00  -0.01  -0.01     0.04  -0.13   0.07     0.03   0.01   0.02
   6   6     0.00   0.01   0.00    -0.01   0.07  -0.03     0.08   0.04   0.05
   7   1    -0.01  -0.00  -0.00    -0.04  -0.04   0.03    -0.15  -0.04  -0.06
   8   1    -0.00  -0.01  -0.01    -0.00  -0.06  -0.03    -0.11  -0.05  -0.10
   9   1    -0.01  -0.01  -0.00    -0.08  -0.09  -0.03    -0.09  -0.14  -0.03
  10   1    -0.11  -0.04  -0.05    -0.45  -0.09  -0.29     0.00   0.01  -0.02
  11   1    -0.01  -0.03  -0.02    -0.47  -0.14  -0.38     0.00   0.04   0.01
  12   1     0.03  -0.22  -0.21    -0.09  -0.05   0.03     0.01  -0.13  -0.11
  13   1    -0.06   0.09   0.08     0.02   0.11   0.07     0.01  -0.14  -0.12
  14   1     0.11   0.50   0.37    -0.01  -0.04  -0.04    -0.01   0.38   0.40
  15   1    -0.14  -0.47  -0.41     0.04   0.08   0.06    -0.00   0.50   0.37
                     25                     26                     27
                        a                      a                      a 
 Frequencies --  1385.6120              1453.3731              1466.6251
 Red. masses --     2.5187                 1.5430                 1.9690
 Frc consts  --     0.0000                 0.0000                 0.0000
 IR Inten    --    12.3496                 5.4026                 3.1980
 Raman Activ --     0.0000                 0.0000                 0.0000
 Depolar     --     0.0000                 0.0000                 0.0000
 Atom AN      X      Y      Z        X      Y      Z        X      Y      Z
   1   6     0.06  -0.01   0.04    -0.00  -0.01  -0.00    -0.00  -0.03   0.03
   2   6     0.03   0.04   0.01     0.01   0.00   0.00    -0.28  -0.05   0.04
   3   6     0.01  -0.08  -0.07     0.00  -0.00  -0.00    -0.02  -0.00   0.00
   4   8    -0.04  -0.01   0.00     0.00   0.00   0.00    -0.02  -0.01  -0.00
   5   8    -0.09  -0.05  -0.04     0.02  -0.00  -0.03     0.02  -0.01   0.01
   6   6    -0.25  -0.13  -0.14     0.12  -0.04  -0.17    -0.02   0.04  -0.03
   7   1     0.46   0.12   0.19     0.26  -0.12   0.39    -0.03  -0.07   0.09
   8   1     0.35   0.16   0.32    -0.37   0.07  -0.24     0.05  -0.11  -0.01
   9   1     0.28   0.43   0.08    -0.41   0.20   0.55     0.02   0.04   0.00
  10   1    -0.04  -0.03  -0.01     0.00   0.01  -0.02     0.02   0.10  -0.11
  11   1    -0.04  -0.03  -0.04     0.00   0.02   0.01    -0.07   0.11   0.02
  12   1    -0.01  -0.06  -0.03    -0.01  -0.01   0.00     0.42   0.29  -0.40
  13   1     0.00  -0.02  -0.02    -0.01   0.00  -0.01     0.60  -0.19   0.17
  14   1    -0.00   0.13   0.13    -0.01  -0.01   0.01     0.04   0.04  -0.01
  15   1    -0.00   0.16   0.12    -0.01   0.00  -0.00     0.05  -0.00   0.01
                     28                     29                     30
                        a                      a                      a 
 Frequencies --  1474.7429              1483.5566              1508.1493
 Red. masses --     1.6663                 1.7517                 1.7333
 Frc consts  --     0.0000                 0.0000                 0.0000
 IR Inten    --     7.4191                 4.7980               118.0307
 Raman Activ --     0.0000                 0.0000                 0.0000
 Depolar     --     0.0000                 0.0000                 0.0000
 Atom AN      X      Y      Z        X      Y      Z        X      Y      Z
   1   6    -0.01  -0.11   0.01     0.00  -0.22   0.05     0.00   0.01   0.01
   2   6     0.07   0.01  -0.01     0.04  -0.00  -0.00    -0.01  -0.02  -0.02
   3   6     0.00   0.01   0.00    -0.00   0.01   0.01     0.18  -0.01  -0.06
   4   8     0.01   0.00   0.00     0.01   0.01  -0.00     0.11   0.08   0.04
   5   8     0.01   0.04  -0.00     0.03  -0.08   0.04    -0.00  -0.00   0.00
   6   6    -0.06   0.17  -0.08     0.01  -0.06   0.02    -0.00  -0.00   0.00
   7   1    -0.22  -0.37   0.40     0.10   0.15  -0.15    -0.00   0.01  -0.01
   8   1     0.24  -0.57  -0.09    -0.05   0.22   0.06     0.00   0.01   0.01
   9   1     0.16   0.18  -0.02    -0.05  -0.07  -0.01     0.00  -0.01  -0.01
  10   1     0.09   0.14  -0.13     0.15   0.41  -0.45    -0.01  -0.01   0.01
  11   1    -0.06   0.20   0.06    -0.27   0.57   0.11    -0.00  -0.02  -0.01
  12   1    -0.10  -0.07   0.09    -0.05  -0.05   0.05     0.04   0.02  -0.04
  13   1    -0.14   0.05  -0.04    -0.08   0.03  -0.02     0.07  -0.03   0.01
  14   1    -0.02  -0.02   0.01    -0.02  -0.01   0.00    -0.49  -0.35   0.32
  15   1    -0.03  -0.01  -0.02    -0.03  -0.03  -0.03    -0.65   0.12  -0.18
                     31                     32                     33
                        a                      a                      a 
 Frequencies --  2180.7841              2411.5778              2802.6015
 Red. masses --     1.6985                 1.3597                 1.9386
 Frc consts  --     0.0000                 0.0000                 0.0000
 IR Inten    --   879.6983               557.8653               162.9157
 Raman Activ --     0.0000                 0.0000                 0.0000
 Depolar     --     0.0000                 0.0000                 0.0000
 Atom AN      X      Y      Z        X      Y      Z        X      Y      Z
   1   6    -0.00  -0.00   0.00    -0.00   0.00  -0.00    -0.17   0.09   0.22
   2   6    -0.00   0.02  -0.03    -0.02   0.01   0.01    -0.00   0.00   0.01
   3   6    -0.04   0.14  -0.20    -0.11   0.08   0.02     0.00  -0.00  -0.00
   4   8     0.02   0.03   0.00    -0.07  -0.06  -0.04     0.00   0.00   0.00
   5   8     0.00  -0.00   0.00     0.00  -0.00  -0.00    -0.01   0.01   0.00
   6   6     0.00  -0.00   0.00     0.00  -0.00   0.00    -0.00  -0.00   0.00
   7   1     0.00   0.00  -0.00     0.00   0.00   0.00    -0.00  -0.01  -0.01
   8   1    -0.00   0.00  -0.00    -0.00   0.00   0.00     0.01   0.01  -0.01
   9   1    -0.00  -0.00   0.00    -0.00   0.00   0.00    -0.00   0.00  -0.00
  10   1    -0.00  -0.00   0.00     0.00   0.00  -0.00     0.38  -0.59  -0.39
  11   1    -0.00  -0.00  -0.01    -0.00   0.00   0.01     0.24   0.24  -0.39
  12   1    -0.01   0.01   0.01    -0.01   0.00   0.01    -0.01   0.01  -0.01
  13   1     0.02  -0.01  -0.01    -0.00   0.00  -0.00    -0.01  -0.01   0.01
  14   1     0.44  -0.21   0.17     0.56  -0.43   0.44    -0.00  -0.00   0.00
  15   1    -0.37  -0.42   0.60     0.13   0.32  -0.40     0.00  -0.00  -0.00
                     34                     35                     36
                        a                      a                      a 
 Frequencies --  2846.3522              2895.1696              2918.2658
 Red. masses --     1.4204                 1.9383                 1.4075
 Frc consts  --     0.0000                 0.0000                 0.0000
 IR Inten    --   101.4122                74.0442                64.1228
 Raman Activ --     0.0000                 0.0000                 0.0000
 Depolar     --     0.0000                 0.0000                 0.0000
 Atom AN      X      Y      Z        X      Y      Z        X      Y      Z
   1   6    -0.05  -0.16   0.08    -0.01   0.00   0.01     0.00  -0.00   0.00
   2   6    -0.01  -0.00  -0.01    -0.00   0.00   0.00    -0.00   0.00  -0.00
   3   6    -0.00   0.00   0.00     0.00  -0.00   0.00     0.00   0.00   0.00
   4   8    -0.00  -0.00  -0.00    -0.00  -0.00  -0.00    -0.00  -0.00  -0.00
   5   8     0.01  -0.02   0.02     0.00  -0.00  -0.01    -0.02  -0.02  -0.00
   6   6    -0.00   0.01  -0.00     0.17  -0.08  -0.22    -0.01  -0.18   0.06
   7   1     0.02  -0.02  -0.02    -0.28   0.55   0.32    -0.29   0.49   0.36
   8   1    -0.01  -0.00   0.02    -0.34  -0.25   0.50     0.39   0.21  -0.56
   9   1     0.01  -0.01   0.01     0.03  -0.02  -0.04     0.00  -0.03   0.01
  10   1    -0.28   0.35   0.29     0.00  -0.01  -0.01    -0.02   0.02   0.01
  11   1     0.41   0.29  -0.65     0.01   0.01  -0.01     0.01   0.01  -0.02
  12   1     0.02  -0.01   0.01     0.00  -0.00   0.00     0.01  -0.01   0.01
  13   1    -0.01  -0.01   0.01    -0.00  -0.00   0.00    -0.00  -0.00   0.00
  14   1     0.00  -0.00   0.00    -0.00   0.00  -0.00    -0.00   0.00   0.00
  15   1     0.00   0.00  -0.01     0.00  -0.00   0.00     0.00   0.00  -0.00
                     37                     38                     39
                        a                      a                      a 
 Frequencies --  2969.5194              2987.2274              3031.9976
 Red. masses --     1.9066                 1.5535                 1.7206
 Frc consts  --     0.0000                 0.0000                 0.0000
 IR Inten    --   118.0599                82.4050                17.9382
 Raman Activ --     0.0000                 0.0000                 0.0000
 Depolar     --     0.0000                 0.0000                 0.0000
 Atom AN      X      Y      Z        X      Y      Z        X      Y      Z
   1   6     0.00  -0.01   0.01     0.01   0.00  -0.01     0.00   0.00  -0.00
   2   6     0.14  -0.16   0.19     0.16   0.09  -0.13     0.00   0.00  -0.00
   3   6     0.00  -0.01   0.01     0.00   0.00  -0.00    -0.00   0.00   0.00
   4   8    -0.00  -0.00  -0.00    -0.00  -0.00  -0.00     0.00  -0.00  -0.00
   5   8     0.00   0.00  -0.00     0.00   0.00   0.00    -0.01  -0.00  -0.01
   6   6    -0.00  -0.00   0.00    -0.00  -0.00   0.00    -0.14   0.14  -0.15
   7   1    -0.00   0.01   0.01    -0.00   0.00   0.00    -0.01   0.02  -0.02
   8   1     0.01   0.00  -0.01     0.00   0.00  -0.00    -0.02   0.02  -0.02
   9   1     0.00  -0.00   0.00    -0.00   0.00  -0.00     0.55  -0.53   0.59
  10   1    -0.01   0.02   0.01    -0.01   0.01   0.00     0.01  -0.01  -0.00
  11   1     0.01   0.01  -0.02    -0.01  -0.00   0.01    -0.00  -0.00   0.01
  12   1    -0.67   0.42  -0.41    -0.25   0.19  -0.20     0.00  -0.00   0.00
  13   1     0.16   0.18  -0.26    -0.31  -0.49   0.69    -0.00  -0.00   0.00
  14   1     0.00  -0.00  -0.01     0.00  -0.00   0.00    -0.00  -0.00  -0.00
  15   1     0.00   0.00  -0.00     0.00  -0.00  -0.00    -0.00  -0.00   0.00
