      -----------------------------------------------------------      
     |                   =====================                   |     
     |                           x T B                           |     
     |                   =====================                   |     
     |                         S. Grimme                         |     
     |          Mulliken Center for Theoretical Chemistry        |     
     |                    University of Bonn                     |     
      -----------------------------------------------------------      

   * xtb version 6.7.1 (edcfbbe) compiled by 'albert@albert-system' on 2024-07-22

   xtb is free software: you can redistribute it and/or modify it under
   the terms of the GNU Lesser General Public License as published by
   the Free Software Foundation, either version 3 of the License, or
   (at your option) any later version.
   
   xtb is distributed in the hope that it will be useful,
   but WITHOUT ANY WARRANTY; without even the implied warranty of
   MERCHANTABILITY or FITNESS FOR A PARTICULAR PURPOSE.  See the
   GNU Lesser General Public License for more details.
   
   Cite this work as:
   * C. Bannwarth, E. Caldeweyher, S. Ehlert, A. Hansen, P. Pracht,
     J. Seibert, S. Spicher, S. Grimme, WIREs Comput. Mol. Sci., 2020, 11,
     e01493. DOI: 10.1002/wcms.1493
   
   for GFN2-xTB:
   * C. Bannwarth, S. Ehlert and S. Grimme., J. Chem. Theory Comput., 2019,
     15, 1652-1671. DOI: 10.1021/acs.jctc.8b01176
   for GFN1-xTB:
   * S. Grimme, C. Bannwarth, P. Shushkov, J. Chem. Theory Comput., 2017,
     13, 1989-2009. DOI: 10.1021/acs.jctc.7b00118
   for GFN0-xTB:
   * P. Pracht, E. Caldeweyher, S. Ehlert, S. Grimme, ChemRxiv, 2019, preprint.
     DOI: 10.26434/chemrxiv.8326202.v1
   for GFN-FF:
   * S. Spicher and S. Grimme, Angew. Chem. Int. Ed., 2020, 59, 15665-15673.
     DOI: 10.1002/anie.202004239
   
   for ALPB and GBSA implicit solvation:
   * S. Ehlert, M. Stahn, S. Spicher, S. Grimme, J. Chem. Theory Comput.,
     2021, 17, 4250-4261. DOI: 10.1021/acs.jctc.1c00471
   
   for ddCOSMO and CPCM-X implicit solvation:
   * M. Stahn, S. Ehlert, S. Grimme, J. Phys. Chem. A,
     2023, XX, XXXX-XXXX. DOI: 10.1021/acs.jpca.3c04382
   
   for DFT-D4:
   * E. Caldeweyher, C. Bannwarth and S. Grimme, J. Chem. Phys., 2017,
     147, 034112. DOI: 10.1063/1.4993215
   * E. Caldeweyher, S. Ehlert, A. Hansen, H. Neugebauer, S. Spicher,
     C. Bannwarth and S. Grimme, J. Chem. Phys., 2019, 150, 154122.
     DOI: 10.1063/1.5090222
   * E. Caldeweyher, J.-M. Mewes, S. Ehlert and S. Grimme, Phys. Chem. Chem. Phys.
     2020, 22, 8499-8512. DOI: 10.1039/D0CP00502A
   
   for sTDA-xTB:
   * S. Grimme and C. Bannwarth, J. Chem. Phys., 2016, 145, 054103.
     DOI: 10.1063/1.4959605
   
   in the mass-spec context:
   * V. Asgeirsson, C. Bauer and S. Grimme, Chem. Sci., 2017, 8, 4879.
     DOI: 10.1039/c7sc00601b
   * J. Koopman and S. Grimme, ACS Omega 2019, 4, 12, 15120-15133.
     DOI: 10.1021/acsomega.9b02011
   
   for metadynamics refer to:
   * S. Grimme, J. Chem. Theory Comput., 2019, 155, 2847-2862
     DOI: 10.1021/acs.jctc.9b00143
   
   for SPH calculations refer to:
   * S. Spicher and S. Grimme, J. Chem. Theory Comput., 2021, 17, 1701-1714
     DOI: 10.1021/acs.jctc.0c01306
   
   for ONIOM refer to:
   * C. Plett, A. Katbashev, S. Ehlert, S. Grimme, M. Bursch,
     Phys. Chem. Chem. Phys., 2023, 25, 17860-17868. DOI: 10.1039/D3CP02178E
   
   for DIPRO refer to:
   * J. Kohn, N. Gildemeister, S. Grimme, D. Fazzi, A. Hansen,
     J. Chem. Phys., 2023, just accepted.
   
   for PTB refer to:
   * S. Grimme, M. Mueller, A. Hansen, J. Chem. Phys., 2023, 158, 124111.
     DOI: 10.1063/5.0137838
   
   with help from (in alphabetical order)
   P. Atkinson, C. Bannwarth, F. Bohle, G. Brandenburg, E. Caldeweyher
   M. Checinski, S. Dohm, S. Ehlert, S. Ehrlich, I. Gerasimov, C. Hölzer
   A. Katbashev, J. Kohn, J. Koopman, C. Lavigne, S. Lehtola, F. März, M. Müller,
   F. Musil, H. Neugebauer, J. Pisarek, C. Plett, P. Pracht, F. Pultar,
   J. Seibert, P. Shushkov, S. Spicher, M. Stahn, M. Steiner, T. Strunk,
   J. Stückrath, T. Rose, and J. Unsleber
   
 * started run on 2025/10/18 at 01:19:20.696     
   ID    Z sym.   atoms
    1    6 C      1-3, 6
    2    8 O      4, 5
    3    1 H      7-15

           -------------------------------------------------
          |                Calculation Setup                |
           -------------------------------------------------

          program call               : xtb xyz.xyz --alpb water --charge -1 --ohess
          hostname                   : m003
          coordinate file            : xyz.xyz
          omp threads                :                     2


           -------------------------------------------------
          |                 G F N 2 - x T B                 |
           -------------------------------------------------

        Reference                      10.1021/acs.jctc.8b01176
      * Hamiltonian:
        H0-scaling (s, p, d)           1.850000    2.230000    2.230000
        zeta-weighting                 0.500000
      * Dispersion:
        s8                             2.700000
        a1                             0.520000
        a2                             5.000000
        s9                             5.000000
      * Repulsion:
        kExp                           1.500000    1.000000
        rExp                           1.000000
      * Coulomb:
        alpha                          2.000000
        third order                    shell-resolved
        anisotropic                    true
        a3                             3.000000
        a5                             4.000000
        cn-shift                       1.200000
        cn-exp                         4.000000
        max-rad                        5.000000

      * Solvation model:               ALPB
        Solvent                        water
        Parameter file                 internal GFN2-xTB/ALPB
        Dielectric constant                8.0200E+01
        Reference state                gsolv [1 M gas/solution]
        Free energy shift                  1.0808E-03 Eh       6.7819E-01 kcal/mol
        Temperature                        2.9815E+02 K
        Density                            1.0000E+00 kg/L
        Solvent mass                       1.8000E+01 g/mol
        Interaction kernel             P16
        Born radius scaling (c1)           1.4744E+00
        Born radii integrator          GBOBC
        Born offset                        0.0000E+00 a0       0.0000E+00 AA
        H-bond correction              true
        Ion screening                  false
        Surface tension                    1.0000E-05 Eh       1.5569E+01 dyn/cm
        Grid points                               230 per atom

          ...................................................
          :                      SETUP                      :
          :.................................................:
          :  # basis functions                  33          :
          :  # atomic orbitals                  33          :
          :  # shells                           21          :
          :  # electrons                        38          :
          :  max. iterations                   250          :
          :  Hamiltonian                  GFN2-xTB          :
          :  restarted?                      false          :
          :  GBSA solvation                   true          :
          :  PC potential                    false          :
          :  electronic temp.          300.0000000     K    :
          :  accuracy                    1.0000000          :
          :  -> integral cutoff          0.2500000E+02      :
          :  -> integral neglect         0.1000000E-07      :
          :  -> SCF convergence          0.1000000E-05 Eh   :
          :  -> wf. convergence          0.1000000E-03 e    :
          :  Broyden damping             0.4000000          :
          :  net charge                         -1          :
          :  unpaired electrons                  0          :
          ...................................................

 iter      E             dE          RMSdq      gap      omega  full diag
   1    -21.6160989 -0.216161E+02  0.484E+00   11.55       0.0  T
   2    -21.7241079 -0.108009E+00  0.224E+00    9.53       1.0  T
   3    -21.7281957 -0.408783E-02  0.108E+00    8.71       1.0  T
   4    -21.7289098 -0.714128E-03  0.308E-01    8.27       1.0  T
   5    -21.7290122 -0.102358E-03  0.144E-01    8.39       1.0  T
   6    -21.7290390 -0.268074E-04  0.346E-02    8.49       1.0  T
   7    -21.7290407 -0.166584E-05  0.167E-02    8.48       1.5  T
   8    -21.7290412 -0.520548E-06  0.415E-03    8.48       6.2  T
   9    -21.7290412 -0.266997E-07  0.180E-03    8.48      14.4  T
  10    -21.7290412 -0.375223E-08  0.473E-04    8.48      54.5  T
  11    -21.7290412 -0.531191E-09  0.132E-04    8.48     195.1  T

   *** convergence criteria satisfied after 11 iterations ***

         #    Occupation            Energy/Eh            Energy/eV
      -------------------------------------------------------------
         1        2.0000           -0.7001800             -19.0529
       ...           ...                  ...                  ...
        13        2.0000           -0.4581985             -12.4682
        14        2.0000           -0.4441232             -12.0852
        15        2.0000           -0.4322702             -11.7627
        16        2.0000           -0.4196579             -11.4195
        17        2.0000           -0.4033452             -10.9756
        18        2.0000           -0.3014662              -8.2033
        19        2.0000           -0.2974709              -8.0946 (HOMO)
        20                          0.0142495               0.3877 (LUMO)
        21                          0.0965774               2.6280
        22                          0.1115064               3.0342
        23                          0.1212513               3.2994
        24                          0.1456871               3.9643
       ...                                ...                  ...
        33                          0.3714399              10.1074
      -------------------------------------------------------------
                  HL-Gap            0.3117204 Eh            8.4823 eV
             Fermi-level           -0.1416107 Eh           -3.8534 eV

 SCC (total)                   0 d,  0 h,  0 min,  0.033 sec
 SCC setup                      ...        0 min,  0.000 sec (  1.431%)
 Dispersion                     ...        0 min,  0.000 sec (  0.393%)
 classical contributions        ...        0 min,  0.000 sec (  0.105%)
 integral evaluation            ...        0 min,  0.001 sec (  3.152%)
 iterations                     ...        0 min,  0.030 sec ( 88.788%)
 molecular gradient             ...        0 min,  0.002 sec (  5.758%)
 printout                       ...        0 min,  0.000 sec (  0.255%)

         :::::::::::::::::::::::::::::::::::::::::::::::::::::
         ::                     SUMMARY                     ::
         :::::::::::::::::::::::::::::::::::::::::::::::::::::
         :: total energy             -21.533480215354 Eh    ::
         :: total w/o Gsasa/hb       -21.532888466049 Eh    ::
         :: gradient norm              0.062311234038 Eh/a0 ::
         :: HOMO-LUMO gap              8.482343923155 eV    ::
         ::.................................................::
         :: SCC energy               -21.729033976894 Eh    ::
         :: -> isotropic ES            0.254213454966 Eh    ::
         :: -> anisotropic ES          0.007358277529 Eh    ::
         :: -> anisotropic XC         -0.000524141891 Eh    ::
         :: -> dispersion             -0.008693847599 Eh    ::
         :: -> Gsolv                  -0.124541995758 Eh    ::
         ::    -> Gelec               -0.123950246453 Eh    ::
         ::    -> Gsasa                0.002410796160 Eh    ::
         ::    -> Ghb                 -0.004083305163 Eh    ::
         ::    -> Gshift               0.001080759698 Eh    ::
         :: repulsion energy           0.195553761541 Eh    ::
         :: add. restraining           0.000000000000 Eh    ::
         :: total charge              -1.000000000000 e     ::
         :::::::::::::::::::::::::::::::::::::::::::::::::::::

      ----------------------------------------------------------- 
     |                   =====================                   |
     |                        A N C O P T                        |
     |                   =====================                   |
     |               Approximate Normal Coordinate               |
     |                Rational Function Optimizer                |
      ----------------------------------------------------------- 
      ----------------------------------------------------------- 
     |                   =====================                   |
     |                        A N C O P T                        |
     |                   =====================                   |
     |               Approximate Normal Coordinate               |
     |                Rational Function Optimizer                |
      ----------------------------------------------------------- 

          ...................................................
          :                      SETUP                      :
          :.................................................:
          :   optimization level            normal          :
          :   max. optcycles                   200          :
          :   ANC micro-cycles                  20          :
          :   degrees of freedom                39          :
          :.................................................:
          :   RF solver                   davidson          :
          :   write xtbopt.log                true          :
          :   linear?                        false          :
          :   energy convergence         0.5000000E-05 Eh   :
          :   grad. convergence          0.1000000E-02 Eh/α :
          :   maxmium RF displ.          1.0000000          :
          :   Hlow (freq-cutoff)         0.1000000E-01      :
          :   Hmax (freq-cutoff)         5.0000000          :
          :   S6 in model hess.         20.0000000          :
          ...................................................

generating ANC from exact Hessian ...
Using Lindh-Hessian (1995)
 Shifting diagonal of input Hessian by   7.400920401596990E-003
 Lowest  eigenvalues of input Hessian
    0.000000    0.000000    0.000000    0.000000    0.000000    0.000000
    0.010000    0.011455    0.013078    0.019682    0.021830    0.024098
    0.033766    0.046568    0.058897    0.062724    0.065529    0.069031
 Highest eigenvalues
    1.124515    1.156586    1.210309    1.264619    1.500674    1.708219
 

........................................................................
.............................. CYCLE    1 ..............................
........................................................................

 iter      E             dE          RMSdq      gap      omega  full diag
   1    -21.7290412 -0.217290E+02  0.361E-05    8.48       0.0  T
   2    -21.7290412 -0.852296E-11  0.151E-05    8.48    1710.2  T
   3    -21.7290412 -0.248690E-12  0.965E-06    8.48    2676.7  T
     SCC iter.                  ...        0 min,  0.001 sec
     gradient                   ...        0 min,  0.002 sec
 * total energy  :   -21.5334802 Eh     change       -0.2880896E-10 Eh
   gradient norm :     0.0623118 Eh/α   predicted     0.0000000E+00 (-100.00%)
   displ. norm   :     0.2719157 α      lambda       -0.1155120E-01
   maximum displ.:     0.1183386 α      in ANC's #11, #15, #12, ...

........................................................................
.............................. CYCLE    2 ..............................
........................................................................

 iter      E             dE          RMSdq      gap      omega  full diag
   1    -21.7313201 -0.217313E+02  0.342E-01    8.84       0.0  T
   2    -21.7313711 -0.509224E-04  0.200E-01    8.83       1.0  T
   3    -21.7313713 -0.194569E-06  0.352E-02    8.83       1.0  T
   4    -21.7313758 -0.458069E-05  0.784E-03    8.83       3.3  T
   5    -21.7313759 -0.630262E-07  0.313E-03    8.83       8.3  T
   6    -21.7313759 -0.957307E-08  0.112E-03    8.83      23.0  T
   7    -21.7313759 -0.189868E-08  0.291E-04    8.83      88.7  T
   8    -21.7313759 -0.151626E-09  0.114E-04    8.83     227.4  T
     SCC iter.                  ...        0 min,  0.002 sec
     gradient                   ...        0 min,  0.002 sec
 * total energy  :   -21.5400718 Eh     change       -0.6591621E-02 Eh
   gradient norm :     0.0180178 Eh/α   predicted    -0.6202636E-02 (  -5.90%)
   displ. norm   :     0.1071279 α      lambda       -0.1125632E-02
   maximum displ.:     0.0591159 α      in ANC's #3, #24, #19, ...

........................................................................
.............................. CYCLE    3 ..............................
........................................................................

 iter      E             dE          RMSdq      gap      omega  full diag
   1    -21.7308664 -0.217309E+02  0.131E-01    8.88       0.0  T
   2    -21.7308706 -0.412623E-05  0.761E-02    8.88       1.0  T
   3    -21.7308709 -0.344969E-06  0.884E-03    8.88       2.9  T
   4    -21.7308711 -0.230877E-06  0.292E-03    8.88       8.8  T
   5    -21.7308712 -0.138633E-07  0.147E-03    8.88      17.6  T
   6    -21.7308712 -0.303113E-08  0.573E-04    8.88      45.0  T
   7    -21.7308712 -0.576989E-09  0.127E-04    8.88     202.6  T
     SCC iter.                  ...        0 min,  0.002 sec
     gradient                   ...        0 min,  0.001 sec
 * total energy  :   -21.5406690 Eh     change       -0.5971774E-03 Eh
   gradient norm :     0.0065559 Eh/α   predicted    -0.5692756E-03 (  -4.67%)
   displ. norm   :     0.0592118 α      lambda       -0.8485407E-04
   maximum displ.:     0.0526261 α      in ANC's #3, #5, #2, ...

........................................................................
.............................. CYCLE    4 ..............................
........................................................................

 iter      E             dE          RMSdq      gap      omega  full diag
   1    -21.7309434 -0.217309E+02  0.345E-02    8.91       0.0  T
   2    -21.7309438 -0.447117E-06  0.201E-02    8.91       1.3  T
   3    -21.7309439 -0.414910E-07  0.375E-03    8.92       6.9  T
   4    -21.7309439 -0.418201E-07  0.129E-03    8.92      20.0  T
   5    -21.7309439 -0.206148E-08  0.482E-04    8.91      53.6  T
   6    -21.7309439 -0.252793E-09  0.202E-04    8.91     127.8  T
     SCC iter.                  ...        0 min,  0.002 sec
     gradient                   ...        0 min,  0.001 sec
 * total energy  :   -21.5407351 Eh     change       -0.6607711E-04 Eh
   gradient norm :     0.0044653 Eh/α   predicted    -0.4257713E-04 ( -35.56%)
   displ. norm   :     0.1027341 α      lambda       -0.9155586E-04
   maximum displ.:     0.0940911 α      in ANC's #3, #2, #5, ...

........................................................................
.............................. CYCLE    5 ..............................
........................................................................

 iter      E             dE          RMSdq      gap      omega  full diag
   1    -21.7309302 -0.217309E+02  0.536E-02    8.94       0.0  T
   2    -21.7309313 -0.104159E-05  0.315E-02    8.95       1.0  T
   3    -21.7309314 -0.808265E-07  0.594E-03    8.95       4.3  T
   4    -21.7309315 -0.110988E-06  0.185E-03    8.95      13.9  T
   5    -21.7309315 -0.463239E-08  0.626E-04    8.95      41.2  T
   6    -21.7309315 -0.359059E-09  0.292E-04    8.95      88.4  T
     SCC iter.                  ...        0 min,  0.002 sec
     gradient                   ...        0 min,  0.001 sec
 * total energy  :   -21.5407936 Eh     change       -0.5855139E-04 Eh
   gradient norm :     0.0022891 Eh/α   predicted    -0.4626284E-04 ( -20.99%)
   displ. norm   :     0.0478322 α      lambda       -0.2008294E-04
   maximum displ.:     0.0436738 α      in ANC's #3, #2, #6, ...

........................................................................
.............................. CYCLE    6 ..............................
........................................................................

 iter      E             dE          RMSdq      gap      omega  full diag
   1    -21.7309680 -0.217310E+02  0.228E-02    8.96       0.0  T
   2    -21.7309683 -0.235143E-06  0.135E-02    8.96       1.9  T
   3    -21.7309683 -0.117282E-07  0.290E-03    8.96       8.9  T
   4    -21.7309683 -0.266702E-07  0.777E-04    8.96      33.2  T
   5    -21.7309683 -0.816893E-09  0.203E-04    8.96     127.4  T
     SCC iter.                  ...        0 min,  0.001 sec
     gradient                   ...        0 min,  0.001 sec
 * total energy  :   -21.5408091 Eh     change       -0.1543041E-04 Eh
   gradient norm :     0.0015996 Eh/α   predicted    -0.1006580E-04 ( -34.77%)
   displ. norm   :     0.0745566 α      lambda       -0.1664918E-04
   maximum displ.:     0.0625991 α      in ANC's #3, #2, #6, ...

........................................................................
.............................. CYCLE    7 ..............................
........................................................................

 iter      E             dE          RMSdq      gap      omega  full diag
   1    -21.7310494 -0.217310E+02  0.326E-02    8.96       0.0  T
   2    -21.7310498 -0.422212E-06  0.197E-02    8.96       1.3  T
   3    -21.7310498 -0.274744E-07  0.370E-03    8.97       7.0  T
   4    -21.7310499 -0.491355E-07  0.111E-03    8.97      23.2  T
   5    -21.7310499 -0.149874E-08  0.322E-04    8.97      80.2  T
   6    -21.7310499 -0.844480E-10  0.151E-04    8.97     170.6  T
     SCC iter.                  ...        0 min,  0.002 sec
     gradient                   ...        0 min,  0.001 sec
 * total energy  :   -21.5408255 Eh     change       -0.1642027E-04 Eh
   gradient norm :     0.0012929 Eh/α   predicted    -0.8346080E-05 ( -49.17%)
   displ. norm   :     0.0500040 α      lambda       -0.7512847E-05
   maximum displ.:     0.0371942 α      in ANC's #3, #5, #6, ...

........................................................................
.............................. CYCLE    8 ..............................
........................................................................

 iter      E             dE          RMSdq      gap      omega  full diag
   1    -21.7310432 -0.217310E+02  0.199E-02    8.96       0.0  T
   2    -21.7310432 -0.429344E-07  0.123E-02    8.96       2.1  T
   3    -21.7310432 -0.220813E-07  0.103E-03    8.96      25.1  T
   4    -21.7310432 -0.791836E-09  0.528E-04    8.96      48.9  T
   5    -21.7310432 -0.191537E-09  0.121E-04    8.96     213.0  T
     SCC iter.                  ...        0 min,  0.001 sec
     gradient                   ...        0 min,  0.001 sec
 * total energy  :   -21.5408337 Eh     change       -0.8206358E-05 Eh
   gradient norm :     0.0011044 Eh/α   predicted    -0.3759132E-05 ( -54.19%)
   displ. norm   :     0.0416883 α      lambda       -0.4532763E-05
   maximum displ.:     0.0288712 α      in ANC's #3, #5, #6, ...

........................................................................
.............................. CYCLE    9 ..............................
........................................................................

 iter      E             dE          RMSdq      gap      omega  full diag
   1    -21.7311245 -0.217311E+02  0.172E-02    8.95       0.0  T
   2    -21.7311246 -0.583554E-07  0.105E-02    8.95       2.5  T
   3    -21.7311246 -0.151006E-07  0.127E-03    8.95      20.3  T
   4    -21.7311246 -0.487567E-08  0.618E-04    8.95      41.8  T
   5    -21.7311246 -0.382858E-09  0.147E-04    8.95     175.6  T
     SCC iter.                  ...        0 min,  0.001 sec
     gradient                   ...        0 min,  0.001 sec
 * total energy  :   -21.5408379 Eh     change       -0.4155734E-05 Eh
   gradient norm :     0.0007001 Eh/α   predicted    -0.2267141E-05 ( -45.45%)
   displ. norm   :     0.0124477 α      lambda       -0.7655765E-06
   maximum displ.:     0.0098902 α      in ANC's #3, #5, #4, ...

   *** GEOMETRY OPTIMIZATION CONVERGED AFTER 9 ITERATIONS ***

------------------------------------------------------------------------
 total energy gain   :        -0.0073576 Eh       -4.6170 kcal/mol
 total RMSD          :         0.1381317 a0        0.0731 Å
 total power (kW/mol):        -2.1463868 (step) -467.1255 (real)
------------------------------------------------------------------------

 ANCopt (total)                0 d,  0 h,  0 min,  0.041 sec
 optimizer setup                ...        0 min,  0.000 sec (  0.747%)
 model hessian                  ...        0 min,  0.003 sec (  6.248%)
 ANC generation                 ...        0 min,  0.000 sec (  0.636%)
 coordinate transformation      ...        0 min,  0.000 sec (  0.160%)
 single point calculation       ...        0 min,  0.036 sec ( 86.823%)
 optimization log               ...        0 min,  0.001 sec (  1.228%)
 hessian update                 ...        0 min,  0.000 sec (  0.227%)
 rational function              ...        0 min,  0.001 sec (  3.048%)

================
 final structure:
================
15
 xtb: 6.7.1 (edcfbbe)
C           -4.46858211666251       -3.76297779755840       -3.18988232376716
C           -3.46548144335212       -2.74826938058511       -2.66804254592250
C           -4.08028953471643       -1.74556618387981       -1.64874493537927
O           -3.21994777050971       -0.88126421788121       -1.12201389884957
O           -5.38403998548263       -3.13777193714999       -4.06434447185286
C           -6.38971470246460       -4.01932738039652       -4.52288178167637
H           -5.94599692552657       -4.86258833323484       -5.06407127168210
H           -6.98236332152965       -4.40176135607841       -3.68434792624923
H           -7.01965133598429       -3.43557579392522       -5.18875773031496
H           -3.94603873017373       -4.56917792778425       -3.73131348543568
H           -5.01121564209360       -4.20978557215530       -2.34099022117844
H           -2.64479454427573       -3.26398489886307       -2.16644131050980
H           -3.05537454551386       -2.16869327871517       -3.49616154293127
H           -4.94075095378682       -1.22987017459670       -2.18283886034363
H           -4.59410344792774       -2.38080676719598       -0.84690469390716
 
 Bond Distances (Angstroems)
 ---------------------------
C1-C2=1.5193         C1-O5=1.4120         C1-H10=1.1028        C1-H11=1.1021        C2-C1=1.5193         C2-C3=1.5564         
C2-H12=1.0914        C2-H13=1.0908        C3-C2=1.5564         C3-O4=1.3284         C3-H14=1.1365        C3-H15=1.1448        
O4-C3=1.3284         O5-C1=1.4120         O5-C6=1.4138         C6-O5=1.4138         C6-H7=1.0958         C6-H8=1.0957         
C6-H9=1.0867         H7-C6=1.0958         H8-C6=1.0957         H9-C6=1.0867         H10-C1=1.1028        H11-C1=1.1021        
H12-C2=1.0914        H13-C2=1.0908        H14-C3=1.1365        H15-C3=1.1448        
 C  H  Rav=1.1052 sigma=0.0197  Rmin=1.0867  Rmax=1.1448     9
 C  C  Rav=1.5378 sigma=0.0186  Rmin=1.5193  Rmax=1.5564     2
 O  C  Rav=1.3847 sigma=0.0398  Rmin=1.3284  Rmax=1.4138     3
 
 selected bond angles (degree)
 --------------------
O5-C1-C2=110.19                H10-C1-C2=110.12               H10-C1-O5=109.08               H11-C1-C2=109.35               
H11-C1-O5=109.71               H11-C1-H10=108.37              C3-C2-C1=113.23                H12-C2-C1=109.80               
H12-C2-C3=107.49               H13-C2-C1=110.02               H13-C2-C3=107.66               H13-C2-H12=108.50              
O4-C3-C2=115.02                H14-C3-C2=106.48               H14-C3-O4=112.42               H15-C3-C2=106.17               
H15-C3-O4=111.96               H15-C3-H14=103.95              C6-O5-C1=112.70                H7-C6-O5=110.61                
H8-C6-O5=110.74                H8-C6-H7=109.17                H9-C6-O5=106.03                H9-C6-H7=110.21                
H9-C6-H8=110.05                
 
 selected dihedral angles (degree)
 ---------------------------------
C3-C2-C1-O5= 71.62            C3-C2-C1-H10=192.00           C3-C2-C1-H11=310.96           H12-C2-C1-O5=191.76           
H12-C2-C1-H10=312.13          H12-C2-C1-H11= 71.10          H13-C2-C1-O5=311.11           H13-C2-C1-H10= 71.48          
H13-C2-C1-H11=190.45          O4-C3-C2-C1=177.00            O4-C3-C2-H12= 55.55           O4-C3-C2-H13=298.84           
H14-C3-C2-C1=302.24           H14-C3-C2-H12=180.80          H14-C3-C2-H13= 64.09          H15-C3-C2-C1= 52.58           
H15-C3-C2-H12=291.14          H15-C3-C2-H13=174.43          C6-O5-C1-C2=183.38            C6-O5-C1-H10= 62.38           
C6-O5-C1-H11=303.82           H7-C6-O5-C1=300.12            H8-C6-O5-C1= 61.28            H9-C6-O5-C1=180.64            
           -------------------------------------------------
          |                Final Singlepoint                |
           -------------------------------------------------

          ...................................................
          :                      SETUP                      :
          :.................................................:
          :  # basis functions                  33          :
          :  # atomic orbitals                  33          :
          :  # shells                           21          :
          :  # electrons                        38          :
          :  max. iterations                   250          :
          :  Hamiltonian                  GFN2-xTB          :
          :  restarted?                      false          :
          :  GBSA solvation                   true          :
          :  PC potential                    false          :
          :  electronic temp.          300.0000000     K    :
          :  accuracy                    1.0000000          :
          :  -> integral cutoff          0.2500000E+02      :
          :  -> integral neglect         0.1000000E-07      :
          :  -> SCF convergence          0.1000000E-05 Eh   :
          :  -> wf. convergence          0.1000000E-03 e    :
          :  Broyden damping             0.4000000          :
          :  net charge                         -1          :
          :  unpaired electrons                  0          :
          ...................................................

 iter      E             dE          RMSdq      gap      omega  full diag
   1    -21.7311246 -0.217311E+02  0.653E-05    8.95       0.0  T
   2    -21.7311246 -0.324363E-11  0.415E-05    8.95     621.9  T
   3    -21.7311246 -0.187583E-11  0.101E-05    8.95    2567.2  T

   *** convergence criteria satisfied after 3 iterations ***

         #    Occupation            Energy/Eh            Energy/eV
      -------------------------------------------------------------
         1        2.0000           -0.7027533             -19.1229
       ...           ...                  ...                  ...
        13        2.0000           -0.4582839             -12.4705
        14        2.0000           -0.4443958             -12.0926
        15        2.0000           -0.4350203             -11.8375
        16        2.0000           -0.4217029             -11.4751
        17        2.0000           -0.4030214             -10.9668
        18        2.0000           -0.3049635              -8.2985
        19        2.0000           -0.3035572              -8.2602 (HOMO)
        20                          0.0253715               0.6904 (LUMO)
        21                          0.0902538               2.4559
        22                          0.1114281               3.0321
        23                          0.1155847               3.1452
        24                          0.1260686               3.4305
       ...                                ...                  ...
        33                          0.3471597               9.4467
      -------------------------------------------------------------
                  HL-Gap            0.3289287 Eh            8.9506 eV
             Fermi-level           -0.1390929 Eh           -3.7849 eV

 SCC (total)                   0 d,  0 h,  0 min,  0.003 sec
 SCC setup                      ...        0 min,  0.000 sec (  6.217%)
 Dispersion                     ...        0 min,  0.000 sec (  1.593%)
 classical contributions        ...        0 min,  0.000 sec (  0.410%)
 integral evaluation            ...        0 min,  0.001 sec ( 18.107%)
 iterations                     ...        0 min,  0.001 sec ( 25.449%)
 molecular gradient             ...        0 min,  0.001 sec ( 45.313%)
 printout                       ...        0 min,  0.000 sec (  2.152%)

         :::::::::::::::::::::::::::::::::::::::::::::::::::::
         ::                     SUMMARY                     ::
         :::::::::::::::::::::::::::::::::::::::::::::::::::::
         :: total energy             -21.540837855274 Eh    ::
         :: total w/o Gsasa/hb       -21.539926762997 Eh    ::
         :: gradient norm              0.000698759805 Eh/a0 ::
         :: HOMO-LUMO gap              8.950605847518 eV    ::
         ::.................................................::
         :: SCC energy               -21.731116242429 Eh    ::
         :: -> isotropic ES            0.255475614568 Eh    ::
         :: -> anisotropic ES          0.005481856278 Eh    ::
         :: -> anisotropic XC         -0.000382910108 Eh    ::
         :: -> dispersion             -0.008750111487 Eh    ::
         :: -> Gsolv                  -0.127002060553 Eh    ::
         ::    -> Gelec               -0.126090968276 Eh    ::
         ::    -> Gsasa                0.002402308896 Eh    ::
         ::    -> Ghb                 -0.004394160871 Eh    ::
         ::    -> Gshift               0.001080759698 Eh    ::
         :: repulsion energy           0.190278387154 Eh    ::
         :: add. restraining           0.000000000000 Eh    ::
         :: total charge              -1.000000000000 e     ::
         :::::::::::::::::::::::::::::::::::::::::::::::::::::

           ------------------------------------------------- 
          |                Numerical Hessian                |
           ------------------------------------------------- 
step length          :   0.00500
SCC accuracy         :   0.30000
Hessian scale factor :   1.00000
frozen atoms in %    :   0.00000    0
RMS gradient         :   0.00070
estimated CPU  time      0.02 min
estimated wall time      0.01 min

writing file <hessian>.

 projected vibrational frequencies (cm⁻¹)
eigval :       -0.00    -0.00    -0.00     0.00     0.00     0.00
eigval :       74.94    87.27    98.43   224.01   254.84   301.61
eigval :      368.91   549.87   769.52   870.19   912.16  1030.99
eigval :     1042.87  1090.59  1107.94  1116.49  1126.88  1162.03
eigval :     1199.81  1233.21  1295.73  1309.50  1344.32  1381.41
eigval :     1385.61  1453.37  1466.63  1474.74  1483.56  1508.15
eigval :     2180.78  2411.58  2802.60  2846.35  2895.17  2918.27
eigval :     2969.52  2987.23  3032.00
           -------------------------------------------------
          |                Property Printout                |
           -------------------------------------------------

    * Orbital Energies and Occupations

         #    Occupation            Energy/Eh            Energy/eV
      -------------------------------------------------------------
         1        2.0000           -0.7027534             -19.1229
       ...           ...                  ...                  ...
         7        2.0000           -0.5494479             -14.9512
         8        2.0000           -0.5382705             -14.6471
         9        2.0000           -0.5242262             -14.2649
        10        2.0000           -0.4931071             -13.4181
        11        2.0000           -0.4830811             -13.1453
        12        2.0000           -0.4668509             -12.7037
        13        2.0000           -0.4582840             -12.4705
        14        2.0000           -0.4443959             -12.0926
        15        2.0000           -0.4350203             -11.8375
        16        2.0000           -0.4217031             -11.4751
        17        2.0000           -0.4030215             -10.9668
        18        2.0000           -0.3049637              -8.2985
        19        2.0000           -0.3035574              -8.2602 (HOMO)
        20                          0.0253714               0.6904 (LUMO)
        21                          0.0902537               2.4559
        22                          0.1114281               3.0321
        23                          0.1155847               3.1452
        24                          0.1260686               3.4305
        25                          0.1411841               3.8418
        26                          0.1585395               4.3141
        27                          0.1723376               4.6895
        28                          0.1913371               5.2065
        29                          0.1994121               5.4263
        30                          0.2329468               6.3388
       ...                                ...                  ...
        33                          0.3471596               9.4467
      -------------------------------------------------------------
                  HL-Gap            0.3289288 Eh            8.9506 eV
             Fermi-level           -0.1390930 Eh           -3.7849 eV

     #   Z          covCN         q      C6AA      α(0)
     1   6 C        3.703     0.093    19.190     6.264
     2   6 C        3.797    -0.078    21.988     6.677
     3   6 C        3.657     0.190    17.847     6.064
     4   8 O        0.855    -0.874    33.936     7.810
     5   8 O        1.700    -0.366    20.186     6.066
     6   6 C        3.652     0.031    20.356     6.479
     7   1 H        0.924     0.048     2.346     2.395
     8   1 H        0.924     0.039     2.462     2.454
     9   1 H        0.925     0.081     1.967     2.193
    10   1 H        0.923     0.022     2.704     2.572
    11   1 H        0.923     0.008     2.922     2.673
    12   1 H        0.924     0.023     2.682     2.561
    13   1 H        0.924     0.027     2.629     2.536
    14   1 H        0.916    -0.115     6.139     3.875
    15   1 H        0.913    -0.129     6.687     4.045

 Mol. C6AA /au·bohr⁶  :       1951.906281
 Mol. C8AA /au·bohr⁸  :      39156.192284
 Mol. α(0) /au        :         64.663603


Wiberg/Mayer (AO) data.
largest (>0.10) Wiberg bond orders for each atom

 ---------------------------------------------------------------------------
     #   Z sym  total        # sym  WBO       # sym  WBO       # sym  WBO
 ---------------------------------------------------------------------------
     1   6 C    3.955 --     2 C    1.006     5 O    0.980    11 H    0.966
                            10 H    0.966
     2   6 C    3.991 --     1 C    1.006    13 H    0.979    12 H    0.978
                             3 C    0.955
     3   6 C    3.979 --     4 O    1.156     2 C    0.955    14 H    0.931
                            15 H    0.923
     4   8 O    1.314 --     3 C    1.156
     5   8 O    2.041 --     1 C    0.980     6 C    0.979
     6   6 C    3.934 --     5 O    0.979     9 H    0.978     8 H    0.978
                             7 H    0.977
     7   1 H    0.998 --     6 C    0.977
     8   1 H    0.998 --     6 C    0.978
     9   1 H    0.993 --     6 C    0.978
    10   1 H    1.000 --     1 C    0.966
    11   1 H    1.000 --     1 C    0.966
    12   1 H    0.999 --     2 C    0.978
    13   1 H    0.999 --     2 C    0.979
    14   1 H    0.987 --     3 C    0.931
    15   1 H    0.983 --     3 C    0.923
 ---------------------------------------------------------------------------

Topologies differ in total number of bonds
Writing topology from bond orders to xtbtopo.mol

molecular dipole:
                 x           y           z       tot (Debye)
 q only:        6.483       1.554       2.332
   full:        6.303       1.239       2.313      17.353
molecular quadrupole (traceless):
                xx          xy          yy          xz          yz          zz
 q only:      -38.466     -12.391      24.479     -20.841      -1.939      13.987
  q+dip:      -37.644      -9.471      26.052     -22.433      -1.461      11.592
   full:      -37.321      -8.868      26.122     -21.627      -1.076      11.199

           -------------------------------------------------
          |                Geometry Summary                 |
           -------------------------------------------------

      molecular mass/u    :       89.1132202
   center of mass at/Å    :       -4.5245597      -2.7213767      -2.8771303
  moments of inertia/u·Å² :        0.4511863E+02   0.3445769E+03   0.3653027E+03
rotational constants/cm⁻¹ :        0.3736291E+00   0.4892270E-01   0.4614702E-01

 * 12 selected distances

     #   Z          #   Z                                           value/Å
     1   6 C        2   6 C                                       1.5192634 (max)
     1   6 C        5   8 O                                       1.4119596
     5   8 O        6   6 C                                       1.4137816
     6   6 C        7   1 H                                       1.0958379
     6   6 C        8   1 H                                       1.0957314
     6   6 C        9   1 H                                       1.0867277 (min)
     1   6 C       10   1 H                                       1.1027956
     1   6 C       11   1 H                                       1.1021372
     2   6 C       12   1 H                                       1.0913723
     2   6 C       13   1 H                                       1.0908150
     3   6 C       14   1 H                                       1.1364826
     3   6 C       15   1 H                                       1.1447634

 * 3 distinct bonds (by element types)

   Z      Z             #   av. dist./Å        max./Å        min./Å
   1 H    6 C           9     1.1051848     1.1447634     1.0867277
   6 C    6 C           1     1.5192634     1.5192634     1.5192634
   6 C    8 O           2     1.4128706     1.4137816     1.4119596

           -------------------------------------------------
          |               Frequency Printout                |
           -------------------------------------------------
 projected vibrational frequencies (cm⁻¹)
eigval :       -0.00    -0.00    -0.00     0.00     0.00     0.00
eigval :       74.94    87.27    98.43   224.01   254.84   301.61
eigval :      368.91   549.87   769.52   870.19   912.16  1030.99
eigval :     1042.87  1090.59  1107.94  1116.49  1126.88  1162.03
eigval :     1199.81  1233.21  1295.73  1309.50  1344.32  1381.41
eigval :     1385.61  1453.37  1466.63  1474.74  1483.56  1508.15
eigval :     2180.78  2411.58  2802.60  2846.35  2895.17  2918.27
eigval :     2969.52  2987.23  3032.00
 reduced masses (amu)
   1: 12.20   2: 12.51   3:  8.81   4: 11.62   5: 12.99   6: 11.76   7: 10.01   8:  8.01
   9: 10.73  10:  4.54  11:  7.95  12:  9.18  13: 12.25  14:  9.76  15:  3.69  16:  7.51
  17:  7.69  18:  7.72  19: 10.79  20:  7.40  21:  9.32  22: 13.02  23:  4.61  24:  6.72
  25:  4.40  26:  3.16  27:  4.25  28:  1.76  29:  3.94  30:  2.92  31:  2.52  32:  1.54
  33:  1.97  34:  1.67  35:  1.75  36:  1.73  37:  1.70  38:  1.36  39:  1.94  40:  1.42
  41:  1.94  42:  1.41  43:  1.91  44:  1.55  45:  1.72
 IR intensities (km·mol⁻¹)
   1: 14.26   2: 33.97   3:  0.81   4:  1.59   5: 29.33   6:  6.49   7:  3.85   8:  4.82
   9:  9.60  10:  7.02  11:  5.97  12:  6.24  13: 16.39  14: 12.13  15:  7.30  16: 15.01
  17: 17.27  18: 64.76  19: 44.25  20: 84.24  21:127.35  22:406.05  23: 29.20  24: 82.14
  25:  0.58  26:  2.62  27: 17.10  28:  0.83  29: 19.96  30:131.87  31: 12.35  32:  5.40
  33:  3.20  34:  7.42  35:  4.80  36:118.03  37:879.70  38:557.87  39:162.92  40:101.41
  41: 74.04  42: 64.12  43:118.06  44: 82.41  45: 17.94
 Raman intensities (Ä⁴*amu⁻¹)
   1:  0.00   2:  0.00   3:  0.00   4:  0.00   5:  0.00   6:  0.00   7:  0.00   8:  0.00
   9:  0.00  10:  0.00  11:  0.00  12:  0.00  13:  0.00  14:  0.00  15:  0.00  16:  0.00
  17:  0.00  18:  0.00  19:  0.00  20:  0.00  21:  0.00  22:  0.00  23:  0.00  24:  0.00
  25:  0.00  26:  0.00  27:  0.00  28:  0.00  29:  0.00  30:  0.00  31:  0.00  32:  0.00
  33:  0.00  34:  0.00  35:  0.00  36:  0.00  37:  0.00  38:  0.00  39:  0.00  40:  0.00
  41:  0.00  42:  0.00  43:  0.00  44:  0.00  45:  0.00
 output can be read by thermo (or use thermo option).
 writing <g98.out> molden fake output.
 recommended (thermochemical) frequency scaling factor: 1.0
           -------------------------------------------------
          |             Thermodynamic Functions             |
           -------------------------------------------------

Refinement of some symmetry elements was terminated before convergence was reached.
Some symmetry elements may remain unidentified.
Molecule has no symmetry elements
It seems to be the C1 point group
c1  symmetry found (for desy threshold:  0.10E+00) used in thermo

          ...................................................
          :                      SETUP                      :
          :.................................................:
          :  # frequencies                          39      :
          :  # imaginary freq.                       0      :
          :  linear?                             false      :
          :  only rotor calc.                    false      :
          :  symmetry                               c1      :
          :  rotational number                       1      :
          :  scaling factor                  1.0000000      :
          :  rotor cutoff                   50.0000000 cm⁻¹ :
          :  imag. cutoff                  -20.0000000 cm⁻¹ :
          :.................................................:

    mode    ω/cm⁻¹     T·S(HO)/kcal·mol⁻¹    T·S(FR)/kcal·mol⁻¹   T·S(vib)
   ------------------------------------------------------------------------
       1     74.94    -1.19829 ( 83.46%)    -0.93639 ( 16.54%)    -1.15499
       2     87.27    -1.10924 ( 90.27%)    -0.89133 (  9.73%)    -1.08804
       3     98.43    -1.03912 ( 93.76%)    -0.85571 (  6.24%)    -1.02767
       4    224.01    -0.57437 ( 99.75%)    -0.61220 (  0.25%)    -0.57446
       5    254.84    -0.50591 ( 99.85%)    -0.57401 (  0.15%)    -0.50601
   ------------------------------------------------------------------------

   temp. (K)  partition function   enthalpy   heat capacity  entropy
                                   cal/mol     cal/K/mol   cal/K/mol   J/K/mol
 298.15  VIB   102.                 2960.897     18.635     18.863
         ROT  0.182E+06              888.752      2.981     27.051
         INT  0.185E+08             3849.649     21.616     45.914
         TR   0.814E+27             1481.254      4.968     39.357
         TOT                        5330.9030    26.5837    85.2701   356.7703

       T/K    H(0)-H(T)+PV         H(T)/Eh          T*S/Eh         G(T)/Eh
   ------------------------------------------------------------------------
    298.15    0.849533E-02    0.130990E+00    0.405146E-01    0.904757E-01
   ------------------------------------------------------------------------

         :::::::::::::::::::::::::::::::::::::::::::::::::::::
         ::                  THERMODYNAMIC                  ::
         :::::::::::::::::::::::::::::::::::::::::::::::::::::
         :: total free energy         -21.450362176718 Eh   ::
         ::.................................................::
         :: total energy              -21.540837855238 Eh   ::
         :: zero point energy           0.122494939558 Eh   ::
         :: G(RRHO) w/o ZPVE           -0.032019261038 Eh   ::
         :: G(RRHO) contrib.            0.090475678520 Eh   ::
         :::::::::::::::::::::::::::::::::::::::::::::::::::::

optimized geometry written to: xtbopt.xyz


           -------------------------------------------------
          | TOTAL ENERGY              -21.540837855238 Eh   |
          | TOTAL ENTHALPY            -21.409847581011 Eh   |
          | TOTAL FREE ENERGY         -21.450362176718 Eh   |
          | GRADIENT NORM               0.000698823902 Eh/α |
          | HOMO-LUMO GAP               8.950607619002 eV   |
           -------------------------------------------------

------------------------------------------------------------------------
 * finished run on 2025/10/18 at 01:19:21.373     
------------------------------------------------------------------------
 total:
 * wall-time:     0 d,  0 h,  0 min,  0.675 sec
 *  cpu-time:     0 d,  0 h,  0 min,  0.960 sec
 * ratio c/w:     1.422 speedup
 SCF:
 * wall-time:     0 d,  0 h,  0 min,  0.034 sec
 *  cpu-time:     0 d,  0 h,  0 min,  0.046 sec
 * ratio c/w:     1.358 speedup
 ANC optimizer:
 * wall-time:     0 d,  0 h,  0 min,  0.131 sec
 *  cpu-time:     0 d,  0 h,  0 min,  0.176 sec
 * ratio c/w:     1.351 speedup
 analytical hessian:
 * wall-time:     0 d,  0 h,  0 min,  0.276 sec
 *  cpu-time:     0 d,  0 h,  0 min,  0.517 sec
 * ratio c/w:     1.874 speedup

