15
 energy: -21.540837855274 gnorm: 0.000698759805 xtb: 6.7.1 (edcfbbe)
C           -4.46861295427579       -3.76295996739647       -3.18986015781348
C           -3.46550514642137       -2.74825589188878       -2.66802565245497
C           -4.08030442960877       -1.74554769707981       -1.64872764588163
O           -3.21995630130685       -0.88124931652386       -1.12200112100674
O           -5.38407060196809       -3.13775083987977       -4.06432020153179
C           -6.38975153533964       -4.01930181770256       -4.52285246228031
H           -5.94604006282192       -4.86256603837285       -5.06404202938114
H           -6.98239922976724       -4.40173122677538       -3.68431587065241
H           -7.01968743668588       -3.43554809506026       -5.18872723085888
H           -3.94607567900269       -4.56916377860656       -3.73129173641372
H           -5.01124585597325       -4.20976341918337       -2.34096538125621
H           -2.64481919671503       -3.26397483181531       -2.16642638169042
H           -3.05539810462957       -2.16868338266754       -3.49614709255169
H           -4.94076501283166       -1.22984811459908       -2.18281946732428
H           -4.59411886996016       -2.38078419060237       -0.84688450216275
