15
 energy: -21.533480215382 gnorm: 0.062311769320 xtb: 6.7.1 (edcfbbe)
C           -4.47617100000000       -3.72632900000000       -3.18502000000000
C           -3.47028900000000       -2.70474100000000       -2.64848300000000
C           -4.10087200000000       -1.73283700000000       -1.61232800000000
O           -3.10674500000000       -1.02202100000000       -1.09832900000000
O           -5.39326000000000       -3.12170400000000       -4.10151500000000
C           -6.38915400000000       -4.03839600000000       -4.52169100000000
H           -5.93422300000000       -4.89664500000000       -5.02578700000000
H           -6.98632500000000       -4.37601200000000       -3.66910600000000
H           -7.05018500000000       -3.53018500000000       -5.22887400000000
H           -3.92956000000000       -4.51210100000000       -3.71977600000000
H           -5.02400100000000       -4.19264700000000       -2.35758700000000
H           -2.64625800000000       -3.26497600000000       -2.18388500000000
H           -3.05328800000000       -2.13383400000000       -3.48968600000000
H           -4.90129400000000       -1.20197600000000       -2.15121400000000
H           -4.68672000000000       -2.36301700000000       -0.92445600000000
15
 energy: -21.540071836609 gnorm: 0.018018098459 xtb: 6.7.1 (edcfbbe)
C           -4.47402801554130       -3.75294917018371       -3.20975531631395
C           -3.48378006174732       -2.72918007429191       -2.66770684234382
C           -4.07169233374542       -1.73484322005230       -1.62298383517954
O           -3.14919979107570       -0.95875432351428       -1.04598348372802
O           -5.39447207829080       -3.13674989205337       -4.10083651534188
C           -6.39456109146583       -4.04219677080602       -4.52435421260312
H           -5.94148686092506       -4.90337832300929       -5.02688861981493
H           -6.98733398649916       -4.38665098786237       -3.67043848154462
H           -7.03667973734088       -3.50540352929242       -5.22269596209218
H           -3.93675488981155       -4.54846284702484       -3.74643943976291
H           -5.02427987432227       -4.19856162176557       -2.36923025030662
H           -2.65901620298829       -3.25507084924501       -2.17759434117939
H           -3.06673442880299       -2.13962633547636       -3.48791072633254
H           -4.87800438619756       -1.16470756961429       -2.15682209729793
H           -4.65032126124587       -2.36088548580825       -0.88809687615854
15
 energy: -21.540669013975 gnorm: 0.006556223582 xtb: 6.7.1 (edcfbbe)
C           -4.47416529139815       -3.75194556715691       -3.20391745396634
C           -3.47613573811405       -2.73552395014257       -2.67604695438136
C           -4.07510502938892       -1.74406613837842       -1.63480941769884
O           -3.17519754548847       -0.94850281242786       -1.05092350577579
O           -5.39326895063303       -3.14029804514742       -4.08999904817654
C           -6.39377210484412       -4.03972198578078       -4.52405600115977
H           -5.94360934815168       -4.90114954496108       -5.02997913062933
H           -6.99021476657021       -4.39246696036872       -3.67532568801458
H           -7.02330864685345       -3.48579341538895       -5.21725763823340
H           -3.94112109862154       -4.55153543619156       -3.74169595706911
H           -5.02173592791671       -4.19907022773476       -2.36000441431488
H           -2.65195789263647       -3.25507377714747       -2.18223385167268
H           -3.06644130172577       -2.14599722225335       -3.49722611504597
H           -4.88456779917951       -1.15415812649404       -2.16404331365190
H           -4.63774355847791       -2.37211779042611       -0.87021851020951
15
 energy: -21.540735091085 gnorm: 0.004465649052 xtb: 6.7.1 (edcfbbe)
C           -4.47271985166339       -3.75398456537534       -3.19993217184370
C           -3.47489439848602       -2.73613622846831       -2.67560242964066
C           -4.07573749932947       -1.74444604172418       -1.63789413622119
O           -3.18317339023356       -0.93919951666890       -1.05930550104697
O           -5.39103393814547       -3.14120637558471       -4.08270541812670
C           -6.39291439168390       -4.03606568626193       -4.52368809005511
H           -5.94469389480254       -4.89568410368557       -5.03480597508449
H           -6.99186051861154       -4.39370692225652       -3.67848572555115
H           -7.01817671343396       -3.47419099403127       -5.21310516781961
H           -3.94276720105345       -4.55731249083919       -3.73767402927773
H           -5.01743707158224       -4.20149339707839       -2.35347942553971
H           -2.64987921052341       -3.25336749252630       -2.18215337431614
H           -3.06964798502895       -2.14873818512689       -3.50012791941314
H           -4.89179039310849       -1.16386855575061       -2.16986347286709
H           -4.63161854231359       -2.37802044462189       -0.86891416319663
15
 energy: -21.540793642478 gnorm: 0.002289313076 xtb: 6.7.1 (edcfbbe)
C           -4.47083689837645       -3.75793549785179       -3.19319288950393
C           -3.47127405703696       -2.73842070258725       -2.67483713141018
C           -4.07659564670573       -1.74520254694445       -1.64308636889901
O           -3.19660694353834       -0.92287660268465       -1.07605856096241
O           -5.38790658537828       -3.14187627696852       -4.07055401747689
C           -6.39166531757419       -4.02935159825072       -4.52311226769477
H           -5.94531833130603       -4.88430059183632       -5.04403127979389
H           -6.99335263813961       -4.39569802630405       -3.68336525842735
H           -7.01224236703473       -3.45559963212569       -5.20558529985885
H           -3.94472418340086       -4.56578608662522       -3.73086094361873
H           -5.01105121385625       -4.20553533059225       -2.34252762256827
H           -2.64414206810135       -3.25191561495593       -2.18204623647393
H           -3.07148234670003       -2.15464402671063       -3.50478831853847
H           -4.90751172159217       -1.18484263194024       -2.17693155525737
H           -4.62363468125900       -2.38343583362228       -0.86675924951596
15
 energy: -21.540809072888 gnorm: 0.001599721019 xtb: 6.7.1 (edcfbbe)
C           -4.47029954928333       -3.75989428917902       -3.19095697154878
C           -3.46948299956032       -2.74044833910636       -2.67386451955628
C           -4.07719203700884       -1.74535396923315       -1.64492855249243
O           -3.20267671659603       -0.91438055114789       -1.08558946162286
O           -5.38697600882804       -3.14141403926680       -4.06632094210673
C           -6.39115335606824       -4.02636815190674       -4.52283169461998
H           -5.94493990880508       -4.87825277459437       -5.04866807830086
H           -6.99246545497835       -4.39673184538374       -3.68477185885829
H           -7.01201713550242       -3.44879431574047       -5.20168655816657
H           -3.94521134132275       -4.56805905918371       -3.72905436823519
H           -5.00957990666459       -4.20691777413353       -2.33925963414796
H           -2.64179670572070       -3.25272008198140       -2.18056541068124
H           -3.06997440068091       -2.15786928788439       -3.50502756283020
H           -4.91546304442949       -1.19599598772796       -2.17988586190381
H           -4.61911643455089       -2.38422053353045       -0.86432552492885
15
 energy: -21.540825493162 gnorm: 0.001292945942 xtb: 6.7.1 (edcfbbe)
C           -4.46958977905753       -3.76223667533649       -3.18931799353727
C           -3.46683727486883       -2.74439953670512       -2.67165906682760
C           -4.07828231507565       -1.74537975766400       -1.64699718947395
O           -3.21173757800728       -0.89976893671828       -1.10148831851649
O           -5.38590754086728       -3.13972873928762       -4.06286914107951
C           -6.39039385173569       -4.02245578638391       -4.52243655396723
H           -5.94434202843723       -4.86937095421517       -5.05588385568359
H           -6.98874678850910       -4.39889991879393       -3.68536425014037
H           -7.01480981516881       -3.44127760838695       -5.19531530079866
H           -3.94591583577318       -4.56931740839715       -3.72888534189343
H           -5.00933251443087       -4.20822977534619       -2.33781122227571
H           -2.64051522028452       -3.25678539130453       -2.17581066712592
H           -3.06424624325036       -2.16318077246067       -3.50253100019621
H           -4.92757108891178       -1.21294467122290       -2.18326268568422
H           -4.61011712562188       -2.38344506777710       -0.85810441279984
15
 energy: -21.540833699520 gnorm: 0.001104438461 xtb: 6.7.1 (edcfbbe)
C           -4.46898857542160       -3.76282757749811       -3.18933007252839
C           -3.46569605137484       -2.74675823847556       -2.66982952039146
C           -4.07927122659990       -1.74549295529640       -1.64803410384695
O           -3.21692839320384       -0.88935541575375       -1.11239840734721
O           -5.38497754654499       -3.13844316044926       -4.06301645170320
C           -6.38993362638559       -4.02052599462736       -4.52246466391966
H           -5.94490786862781       -4.86509889505785       -5.06041738148667
H           -6.98527111126040       -4.40062800278585       -3.68485208065750
H           -7.01748689115542       -3.43780042897433       -5.19149597738989
H           -3.94634909215086       -4.56931802166670       -3.73013587261799
H           -5.01015648468608       -4.20890846507805       -2.33909094958531
H           -2.64223337805847       -3.26076737270617       -2.17095496483998
H           -3.05939662690682       -2.16639518516237       -3.49939595788417
H           -4.93482814669588       -1.22255620031556       -2.18402788694988
H           -4.60191998092749       -2.38254508615266       -0.85229270885175
15
 energy: -21.540837855254 gnorm: 0.000700147590 xtb: 6.7.1 (edcfbbe)
C           -4.46858211666251       -3.76297779755840       -3.18988232376716
C           -3.46548144335212       -2.74826938058511       -2.66804254592250
C           -4.08028953471643       -1.74556618387981       -1.64874493537927
O           -3.21994777050971       -0.88126421788121       -1.12201389884957
O           -5.38403998548263       -3.13777193714999       -4.06434447185286
C           -6.38971470246460       -4.01932738039652       -4.52288178167637
H           -5.94599692552657       -4.86258833323484       -5.06407127168210
H           -6.98236332152965       -4.40176135607841       -3.68434792624923
H           -7.01965133598429       -3.43557579392522       -5.18875773031496
H           -3.94603873017373       -4.56917792778425       -3.73131348543568
H           -5.01121564209360       -4.20978557215530       -2.34099022117844
H           -2.64479454427573       -3.26398489886307       -2.16644131050980
H           -3.05537454551386       -2.16869327871517       -3.49616154293127
H           -4.94075095378682       -1.22987017459670       -2.18283886034363
H           -4.59410344792774       -2.38080676719598       -0.84690469390716
