
                                 *****************
                                 * O   R   C   A *
                                 *****************

                                            #,                                       
                                            ###                                      
                                            ####                                     
                                            #####                                    
                                            ######                                   
                                           ########,                                 
                                     ,,################,,,,,                         
                               ,,#################################,,                 
                          ,,##########################################,,             
                       ,#########################################, ''#####,          
                    ,#############################################,,   '####,        
                  ,##################################################,,,,####,       
                ,###########''''           ''''###############################       
              ,#####''   ,,,,##########,,,,          '''####'''          '####       
            ,##' ,,,,###########################,,,                        '##       
           ' ,,###''''                  '''############,,,                           
         ,,##''                                '''############,,,,        ,,,,,,###''
      ,#''                                            '''#######################'''  
     '                                                          ''''####''''         
             ,#######,   #######,   ,#######,      ##                                
            ,#'     '#,  ##    ##  ,#'     '#,    #''#        ######   ,####,        
            ##       ##  ##   ,#'  ##            #'  '#       #        #'  '#        
            ##       ##  #######   ##           ,######,      #####,   #    #        
            '#,     ,#'  ##    ##  '#,     ,#' ,#      #,         ##   #,  ,#        
             '#######'   ##     ##  '#######'  #'      '#     #####' # '####'        



                  #######################################################
                  #                        -***-                        #
                  #          Department of theory and spectroscopy      #
                  #    Directorship and core code : Frank Neese         #
                  #        Max Planck Institute fuer Kohlenforschung    #
                  #                Kaiser Wilhelm Platz 1               #
                  #                 D-45470 Muelheim/Ruhr               #
                  #                      Germany                        #
                  #                                                     #
                  #                  All rights reserved                #
                  #                        -***-                        #
                  #######################################################


                         Program Version 5.0.4 -  RELEASE  -


 With contributions from (in alphabetic order):
   Daniel Aravena         : Magnetic Suceptibility
   Michael Atanasov       : Ab Initio Ligand Field Theory (pilot matlab implementation)
   Alexander A. Auer      : GIAO ZORA, VPT2 properties, NMR spectrum
   Ute Becker             : Parallelization
   Giovanni Bistoni       : ED, misc. LED, open-shell LED, HFLD
   Martin Brehm           : Molecular dynamics
   Dmytro Bykov           : SCF Hessian
   Vijay G. Chilkuri      : MRCI spin determinant printing, contributions to CSF-ICE
   Dipayan Datta          : RHF DLPNO-CCSD density
   Achintya Kumar Dutta   : EOM-CC, STEOM-CC
   Dmitry Ganyushin       : Spin-Orbit,Spin-Spin,Magnetic field MRCI
   Miquel Garcia          : C-PCM and meta-GGA Hessian, CC/C-PCM, Gaussian charge scheme
   Yang Guo               : DLPNO-NEVPT2, F12-NEVPT2, CIM, IAO-localization
   Andreas Hansen         : Spin unrestricted coupled pair/coupled cluster methods
   Benjamin Helmich-Paris : MC-RPA, TRAH-SCF, COSX integrals
   Lee Huntington         : MR-EOM, pCC
   Robert Izsak           : Overlap fitted RIJCOSX, COSX-SCS-MP3, EOM
   Marcus Kettner         : VPT2
   Christian Kollmar      : KDIIS, OOCD, Brueckner-CCSD(T), CCSD density, CASPT2, CASPT2-K
   Simone Kossmann        : Meta GGA functionals, TD-DFT gradient, OOMP2, MP2 Hessian
   Martin Krupicka        : Initial AUTO-CI
   Lucas Lang             : DCDCAS
   Marvin Lechner         : AUTO-CI (C++ implementation), FIC-MRCC
   Dagmar Lenk            : GEPOL surface, SMD
   Dimitrios Liakos       : Extrapolation schemes; Compound Job, initial MDCI parallelization
   Dimitrios Manganas     : Further ROCIS development; embedding schemes
   Dimitrios Pantazis     : SARC Basis sets
   Anastasios Papadopoulos: AUTO-CI, single reference methods and gradients
   Taras Petrenko         : DFT Hessian,TD-DFT gradient, ASA, ECA, R-Raman, ABS, FL, XAS/XES, NRVS
   Peter Pinski           : DLPNO-MP2, DLPNO-MP2 Gradient
   Christoph Reimann      : Effective Core Potentials
   Marius Retegan         : Local ZFS, SOC
   Christoph Riplinger    : Optimizer, TS searches, QM/MM, DLPNO-CCSD(T), (RO)-DLPNO pert. Triples
   Tobias Risthaus        : Range-separated hybrids, TD-DFT gradient, RPA, STAB
   Michael Roemelt        : Original ROCIS implementation
   Masaaki Saitow         : Open-shell DLPNO-CCSD energy and density
   Barbara Sandhoefer     : DKH picture change effects
   Avijit Sen             : IP-ROCIS
   Kantharuban Sivalingam : CASSCF convergence, NEVPT2, FIC-MRCI
   Bernardo de Souza      : ESD, SOC TD-DFT
   Georgi Stoychev        : AutoAux, RI-MP2 NMR, DLPNO-MP2 response
   Willem Van den Heuvel  : Paramagnetic NMR
   Boris Wezisla          : Elementary symmetry handling
   Frank Wennmohs         : Technical directorship


 We gratefully acknowledge several colleagues who have allowed us to
 interface, adapt or use parts of their codes:
   Stefan Grimme, W. Hujo, H. Kruse, P. Pracht,  : VdW corrections, initial TS optimization,
                  C. Bannwarth, S. Ehlert          DFT functionals, gCP, sTDA/sTD-DF
   Ed Valeev, F. Pavosevic, A. Kumar             : LibInt (2-el integral package), F12 methods
   Garnet Chan, S. Sharma, J. Yang, R. Olivares  : DMRG
   Ulf Ekstrom                                   : XCFun DFT Library
   Mihaly Kallay                                 : mrcc  (arbitrary order and MRCC methods)
   Jiri Pittner, Ondrej Demel                    : Mk-CCSD
   Frank Weinhold                                : gennbo (NPA and NBO analysis)
   Christopher J. Cramer and Donald G. Truhlar   : smd solvation model
   Lars Goerigk                                  : TD-DFT with DH, B97 family of functionals
   V. Asgeirsson, H. Jonsson                     : NEB implementation
   FAccTs GmbH                                   : IRC, NEB, NEB-TS, DLPNO-Multilevel, CI-OPT
                                                   MM, QMMM, 2- and 3-layer-ONIOM, Crystal-QMMM,
                                                   LR-CPCM, SF, NACMEs, symmetry and pop. for TD-DFT,
                                                   nearIR, NL-DFT gradient (VV10), updates on ESD,
                                                   ML-optimized integration grids
   S Lehtola, MJT Oliveira, MAL Marques          : LibXC Library
   Liviu Ungur et al                             : ANISO software


 Your calculation uses the libint2 library for the computation of 2-el integrals
 For citations please refer to: http://libint.valeyev.net

 Your ORCA version has been built with support for libXC version: 5.1.0
 For citations please refer to: https://tddft.org/programs/libxc/

 This ORCA versions uses:
   CBLAS   interface :  Fast vector & matrix operations
   LAPACKE interface :  Fast linear algebra routines
   SCALAPACK package :  Parallel linear algebra routines
   Shared memory     :  Shared parallel matrices
   BLAS/LAPACK       :  OpenBLAS 0.3.15  USE64BITINT DYNAMIC_ARCH NO_AFFINITY Haswell SINGLE_THREADED
        Core in use  :  Haswell
   Copyright (c) 2011-2014, The OpenBLAS Project


Your calculation utilizes the atom-pairwise dispersion correction
with the Becke-Johnson damping scheme (D3BJ)
Cite in your paper:
S.Grimme, S.Ehrlich, L.Goerigk, J Comput Chem, (2011), 32, 1456–1465 
S.Grimme, J.Antony, S.Ehrlich and H.Krieg, J.Chem.Phys., 132, (2010), 154104 
   

================================================================================

----- Orbital basis set information -----
Your calculation utilizes the basis: def2-SVP
   F. Weigend and R. Ahlrichs, Phys. Chem. Chem. Phys. 7, 3297 (2005).

----- AuxJ basis set information -----
Your calculation utilizes the auxiliary basis: def2/J
   F. Weigend, Phys. Chem. Chem. Phys. 8, 1057 (2006).

================================================================================
                                        WARNINGS
                       Please study these warnings very carefully!
================================================================================


WARNING: Geometry Optimization
  ===> : Switching off AutoStart
         For restart on a previous wavefunction, please use MOREAD

INFO   : the flag for use of the SHARK integral package has been found!

================================================================================
                                       INPUT FILE
================================================================================
NAME = inp.inp
|  1> !OPT PBE D3BJ CPCM(water)
|  2> 
|  3> *xyz -1 1
|  4> C     -6.309138   -3.529029    2.058643
|  5> C     -6.056829   -4.049092    0.779043
|  6> O     -9.350765   -5.310765    2.905625
|  7> H     -7.628539   -3.564127    3.762023
|  8> C     -6.882816   -5.004504    0.155171
|  9> H     -5.178825   -3.699153    0.236892
| 10> C     -7.994550   -5.404426    0.919815
| 11> O     -6.645129   -5.470717   -1.007333
| 12> C     -8.257589   -4.893416    2.197393
| 13> H     -8.661832   -6.141492    0.478768
| 14> C     -7.419934   -3.955335    2.774270
| 15> H     -5.630986   -2.795215    2.479231
| 16> H     -9.796759   -5.956751    2.333125
| 17> *
| 18> 
| 19>                          ****END OF INPUT****
================================================================================

                       *****************************
                       * Geometry Optimization Run *
                       *****************************

Geometry optimization settings:
Update method            Update   .... BFGS
Choice of coordinates    CoordSys .... Z-matrix Internals
Initial Hessian          InHess   .... Almoef's Model

Convergence Tolerances:
Energy Change            TolE     ....  5.0000e-06 Eh
Max. Gradient            TolMAXG  ....  3.0000e-04 Eh/bohr
RMS Gradient             TolRMSG  ....  1.0000e-04 Eh/bohr
Max. Displacement        TolMAXD  ....  4.0000e-03 bohr
RMS Displacement         TolRMSD  ....  2.0000e-03 bohr
Strict Convergence                ....  False
------------------------------------------------------------------------------
                        ORCA OPTIMIZATION COORDINATE SETUP
------------------------------------------------------------------------------

The optimization will be done in new redundant internal coordinates
Making redundant internal coordinates   ...  (new redundants) done
Evaluating the initial hessian          ...  (Almloef) done
Evaluating the coordinates              ...  done
Calculating the B-matrix                .... done
Calculating the G-matrix                .... done
Diagonalizing the G-matrix              .... done
The first mode is                       ....   25
The number of degrees of freedom        ....   33

    -----------------------------------------------------------------
                    Redundant Internal Coordinates


    -----------------------------------------------------------------
         Definition                    Initial Value    Approx d2E/dq
    -----------------------------------------------------------------
      1. B(C   1,C   0)                  1.4041         0.593253   
      2. B(C   4,C   1)                  1.4086         0.583432   
      3. B(H   5,C   1)                  1.0896         0.360600   
      4. B(C   6,C   4)                  1.4073         0.586265   
      5. B(O   7,C   4)                  1.2749         0.854232   
      6. B(C   8,C   6)                  1.4009         0.600268   
      7. B(C   8,O   2)                  1.3678         0.607205   
      8. B(H   9,C   6)                  1.0877         0.363178   
      9. B(C  10,C   8)                  1.3836         0.639575   
     10. B(C  10,H   3)                  1.0827         0.369902   
     11. B(C  10,C   0)                  1.3884         0.628420   
     12. B(H  11,C   0)                  1.0841         0.367994   
     13. B(H  12,O   2)                  0.9716         0.498304   
     14. A(C  10,C   0,H  11)          120.5527         0.355018   
     15. A(C   1,C   0,C  10)          119.9840         0.431684   
     16. A(C   1,C   0,H  11)          119.4633         0.351573   
     17. A(C   4,C   1,H   5)          118.0311         0.349384   
     18. A(C   0,C   1,H   5)          118.6386         0.350370   
     19. A(C   0,C   1,C   4)          123.3303         0.425971   
     20. A(C   8,O   2,H  12)          105.3459         0.366112   
     21. A(C   6,C   4,O   7)          122.6025         0.452343   
     22. A(C   1,C   4,O   7)          122.8585         0.451945   
     23. A(C   1,C   4,C   6)          114.5391         0.425068   
     24. A(C   4,C   6,C   8)          122.6951         0.427239   
     25. A(C   8,C   6,H   9)          120.1186         0.351489   
     26. A(C   4,C   6,H   9)          117.1863         0.350091   
     27. A(C   6,C   8,C  10)          120.9214         0.433968   
     28. A(O   2,C   8,C  10)          118.3494         0.432020   
     29. A(O   2,C   8,C   6)          120.7292         0.427131   
     30. A(C   0,C  10,C   8)          118.5301         0.437565   
     31. A(C   0,C  10,H   3)          120.8926         0.355330   
     32. A(H   3,C  10,C   8)          120.5773         0.356393   
     33. D(H   5,C   1,C   0,C  10)   -179.9999         0.024234   
     34. D(C   4,C   1,C   0,H  11)   -180.0000         0.024234   
     35. D(H   5,C   1,C   0,H  11)      0.0002         0.024234   
     36. D(C   4,C   1,C   0,C  10)      0.0000         0.024234   
     37. D(C   6,C   4,C   1,C   0)      0.0002         0.023399   
     38. D(O   7,C   4,C   1,C   0)   -179.9999         0.023399   
     39. D(C   6,C   4,C   1,H   5)   -179.9999         0.023399   
     40. D(O   7,C   4,C   1,H   5)     -0.0000         0.023399   
     41. D(H   9,C   6,C   4,O   7)     -0.0001         0.023638   
     42. D(H   9,C   6,C   4,C   1)    179.9997         0.023638   
     43. D(C   8,C   6,C   4,O   7)    179.9999         0.023638   
     44. D(C   8,C   6,C   4,C   1)     -0.0003         0.023638   
     45. D(O   2,C   8,C   6,C   4)    179.9999         0.024841   
     46. D(C  10,C   8,O   2,H  12)    179.9991         0.026971   
     47. D(C   6,C   8,O   2,H  12)     -0.0008         0.026971   
     48. D(C  10,C   8,C   6,H   9)   -180.0000         0.024841   
     49. D(C  10,C   8,C   6,C   4)      0.0000         0.024841   
     50. D(O   2,C   8,C   6,H   9)     -0.0001         0.024841   
     51. D(H   3,C  10,C   8,C   6)   -179.9999         0.028418   
     52. D(H   3,C  10,C   8,O   2)      0.0002         0.028418   
     53. D(C   0,C  10,C   8,C   6)      0.0002         0.028418   
     54. D(C   0,C  10,C   8,O   2)   -179.9997         0.028418   
     55. D(C   8,C  10,C   0,H  11)    179.9997         0.027373   
     56. D(C   8,C  10,C   0,C   1)     -0.0003         0.027373   
     57. D(H   3,C  10,C   0,H  11)     -0.0002         0.027373   
     58. D(H   3,C  10,C   0,C   1)    179.9998         0.027373   
    -----------------------------------------------------------------

Number of atoms                         .... 13
Number of degrees of freedom            .... 58

         *************************************************************
         *                GEOMETRY OPTIMIZATION CYCLE   1            *
         *************************************************************
---------------------------------
CARTESIAN COORDINATES (ANGSTROEM)
---------------------------------
  C     -6.309138   -3.529029    2.058643
  C     -6.056829   -4.049092    0.779043
  O     -9.350765   -5.310765    2.905625
  H     -7.628539   -3.564127    3.762023
  C     -6.882816   -5.004504    0.155171
  H     -5.178825   -3.699153    0.236892
  C     -7.994550   -5.404426    0.919815
  O     -6.645129   -5.470717   -1.007333
  C     -8.257589   -4.893416    2.197393
  H     -8.661832   -6.141492    0.478768
  C     -7.419934   -3.955335    2.774270
  H     -5.630986   -2.795215    2.479231
  H     -9.796759   -5.956751    2.333125

----------------------------
CARTESIAN COORDINATES (A.U.)
----------------------------
  NO LB      ZA    FRAG     MASS         X           Y           Z
   0 C     6.0000    0    12.011  -11.922543   -6.668898    3.890271
   1 C     6.0000    0    12.011  -11.445748   -7.651675    1.472178
   2 O     8.0000    0    15.999  -17.670385  -10.035891    5.490835
   3 H     1.0000    0     1.008  -14.415850   -6.735224    7.109193
   4 C     6.0000    0    12.011  -13.006637   -9.457142    0.293231
   5 H     1.0000    0     1.008   -9.786561   -6.990386    0.447661
   6 C     6.0000    0    12.011  -15.107510  -10.212885    1.738198
   7 O     8.0000    0    15.999  -12.557474  -10.338157   -1.903583
   8 C     6.0000    0    12.011  -15.604582   -9.247216    4.152471
   9 H     1.0000    0     1.008  -16.368490  -11.605738    0.904740
  10 C     6.0000    0    12.011  -14.021643   -7.474500    5.242611
  11 H     1.0000    0     1.008  -10.641021   -5.282191    4.685068
  12 H     1.0000    0     1.008  -18.513192  -11.256628    4.408967

--------------------------------
INTERNAL COORDINATES (ANGSTROEM)
--------------------------------
 C      0   0   0     0.000000000000     0.00000000     0.00000000
 C      1   0   0     1.404101675610     0.00000000     0.00000000
 O      1   2   0     3.625390529191   100.46518227     0.00000000
 H      1   2   3     2.154890784426   145.52480646     0.00000000
 C      2   1   3     1.408645763241   123.33032520     0.00000000
 H      2   1   3     1.089621968638   118.63859075   179.99994275
 C      5   2   1     1.407327445755   114.53905783     0.00000000
 O      5   2   1     1.274858902528   122.85846823   180.00010454
 C      3   1   2     1.367774294466    19.69951662     0.00000000
 H      7   5   2     1.087682863747   117.18625597   179.99972796
 C      4   1   2     1.082689121723    33.56659139     0.00000000
 H      1   2   3     1.084097499049   119.46329979   180.00022888
 H      3   1   2     0.971578514703   125.04546380     0.00000000

---------------------------
INTERNAL COORDINATES (A.U.)
---------------------------
 C      0   0   0     0.000000000000     0.00000000     0.00000000
 C      1   0   0     2.653367631082     0.00000000     0.00000000
 O      1   2   0     6.850995228683   100.46518227     0.00000000
 H      1   2   3     4.072153431076   145.52480646     0.00000000
 C      2   1   3     2.661954712234   123.33032520     0.00000000
 H      2   1   3     2.059087110229   118.63859075   179.99994275
 C      5   2   1     2.659463453228   114.53905783     0.00000000
 O      5   2   1     2.409134185169   122.85846823   180.00010454
 C      3   1   2     2.584718829557    19.69951662     0.00000000
 H      7   5   2     2.055422733041   117.18625597   179.99972796
 C      4   1   2     2.045985928233    33.56659139     0.00000000
 H      1   2   3     2.048647375671   119.46329979   180.00022888
 H      3   1   2     1.836017310390   125.04546380     0.00000000

---------------------
BASIS SET INFORMATION
---------------------
There are 3 groups of distinct atoms

 Group   1 Type C   : 7s4p1d contracted to 3s2p1d pattern {511/31/1}
 Group   2 Type O   : 7s4p1d contracted to 3s2p1d pattern {511/31/1}
 Group   3 Type H   : 4s1p contracted to 2s1p pattern {31/1}

Atom   0C    basis set group =>   1
Atom   1C    basis set group =>   1
Atom   2O    basis set group =>   2
Atom   3H    basis set group =>   3
Atom   4C    basis set group =>   1
Atom   5H    basis set group =>   3
Atom   6C    basis set group =>   1
Atom   7O    basis set group =>   2
Atom   8C    basis set group =>   1
Atom   9H    basis set group =>   3
Atom  10C    basis set group =>   1
Atom  11H    basis set group =>   3
Atom  12H    basis set group =>   3
---------------------------------
AUXILIARY/J BASIS SET INFORMATION
---------------------------------
There are 3 groups of distinct atoms

 Group   1 Type C   : 12s5p4d2f1g contracted to 6s4p3d1f1g pattern {711111/2111/211/2/1}
 Group   2 Type O   : 12s5p4d2f1g contracted to 6s4p3d1f1g pattern {711111/2111/211/2/1}
 Group   3 Type H   : 5s2p1d contracted to 3s1p1d pattern {311/2/1}

Atom   0C    basis set group =>   1
Atom   1C    basis set group =>   1
Atom   2O    basis set group =>   2
Atom   3H    basis set group =>   3
Atom   4C    basis set group =>   1
Atom   5H    basis set group =>   3
Atom   6C    basis set group =>   1
Atom   7O    basis set group =>   2
Atom   8C    basis set group =>   1
Atom   9H    basis set group =>   3
Atom  10C    basis set group =>   1
Atom  11H    basis set group =>   3
Atom  12H    basis set group =>   3
------------------------------------------------------------------------------
                           ORCA GTO INTEGRAL CALCULATION
                           -- RI-GTO INTEGRALS CHOSEN --
------------------------------------------------------------------------------
------------------------------------------------------------------------------
                   ___                                                        
                  /   \      - P O W E R E D   B Y -                         
                 /     \                                                     
                 |  |  |   _    _      __       _____    __    __             
                 |  |  |  | |  | |    /  \     |  _  \  |  |  /  |          
                  \  \/   | |  | |   /    \    | | | |  |  | /  /          
                 / \  \   | |__| |  /  /\  \   | |_| |  |  |/  /          
                |  |  |   |  __  | /  /__\  \  |    /   |      \           
                |  |  |   | |  | | |   __   |  |    \   |  |\   \          
                \     /   | |  | | |  |  |  |  | |\  \  |  | \   \       
                 \___/    |_|  |_| |__|  |__|  |_| \__\ |__|  \__/        
                                                                              
                      - O R C A' S   B I G   F R I E N D -                    
                                      &                                       
                       - I N T E G R A L  F E E D E R -                       
                                                                              
 v1 FN, 2020, v2 2021                                                         
------------------------------------------------------------------------------


Reading SHARK input file inp.SHARKINP.tmp ... ok
----------------------
SHARK INTEGRAL PACKAGE
----------------------

Number of atoms                             ...     13
Number of basis functions                   ...    137
Number of shells                            ...     63
Maximum angular momentum                    ...      2
Integral batch strategy                     ... SHARK/LIBINT Hybrid
RI-J (if used) integral strategy            ... SPLIT-RIJ (Revised 2003 algorithm where possible)
Printlevel                                  ...      1
Contraction scheme used                     ... SEGMENTED contraction
Coulomb Range Separation                    ... NOT USED
Exchange Range Separation                   ... NOT USED
Finite Nucleus Model                        ... NOT USED
Auxiliary Coulomb fitting basis             ... AVAILABLE
   # of basis functions in Aux-J            ...    447
   # of shells in Aux-J                     ...    145
   Maximum angular momentum in Aux-J        ...      4
Auxiliary J/K fitting basis                 ... NOT available
Auxiliary Correlation fitting basis         ... NOT available
Auxiliary 'external' fitting basis          ... NOT available
Integral threshold                          ...     2.500000e-11
Primitive cut-off                           ...     2.500000e-12
Primitive pair pre-selection threshold      ...     2.500000e-12

Calculating pre-screening integrals         ... done (  0.0 sec) Dimension = 63
Organizing shell pair data                  ... done (  0.1 sec)
Shell pair information
Total number of shell pairs                 ...      2016
Shell pairs after pre-screening             ...      1909
Total number of primitive shell pairs       ...      7500
Primitive shell pairs kept                  ...      5309
          la=0 lb=0:    557 shell pairs
          la=1 lb=0:    680 shell pairs
          la=1 lb=1:    222 shell pairs
          la=2 lb=0:    254 shell pairs
          la=2 lb=1:    161 shell pairs
          la=2 lb=2:     35 shell pairs

Calculating one electron integrals          ... done (  0.0 sec)
Calculating RI/J V-Matrix + Cholesky decomp.... done (  0.3 sec)
Calculating Nuclear repulsion               ... done (  0.0 sec) ENN=    335.314697980590 Eh

SHARK setup successfully completed in   1.3 seconds

Maximum memory used throughout the entire GTOINT-calculation: 18.2 MB
-------------------------------------------------------------------------------
                                 ORCA SCF
-------------------------------------------------------------------------------

------------
SCF SETTINGS
------------
Hamiltonian:
 Density Functional     Method          .... DFT(GTOs)
 Exchange Functional    Exchange        .... PBE
   PBE kappa parameter   XKappa         ....  0.804000
   PBE mue parameter    XMuePBE         ....  0.219520
 Correlation Functional Correlation     .... PBE
   PBE beta parameter  CBetaPBE         ....  0.066725
 LDA part of GGA corr.  LDAOpt          .... PW91-LDA
 Gradients option       PostSCFGGA      .... off
   Density functional embedding theory  .... OFF
   NL short-range parameter             ....  6.400000
 RI-approximation to the Coulomb term is turned on
   Number of AuxJ basis functions       .... 447


General Settings:
 Integral files         IntName         .... inp
 Hartree-Fock type      HFTyp           .... RHF
 Total Charge           Charge          ....   -1
 Multiplicity           Mult            ....    1
 Number of Electrons    NEL             ....   58
 Basis Dimension        Dim             ....  137
 Nuclear Repulsion      ENuc            ....    335.3146979806 Eh

Convergence Acceleration:
 DIIS                   CNVDIIS         .... on
   Start iteration      DIISMaxIt       ....    12
   Startup error        DIISStart       ....  0.200000
   # of expansion vecs  DIISMaxEq       ....     5
   Bias factor          DIISBfac        ....   1.050
   Max. coefficient     DIISMaxC        ....  10.000
 Trust-Rad. Augm. Hess. CNVTRAH         .... auto
   Auto Start mean grad. ratio tolernc. ....  1.125000
   Auto Start start iteration           ....    20
   Auto Start num. interpolation iter.  ....    10
   Max. Number of Micro iterations      ....    16
   Max. Number of Macro iterations      .... Maxiter - #DIIS iter
   Number of Davidson start vectors     ....     2
   Converg. threshold I  (grad. norm)   ....   1.000e-05
   Converg. threshold II (energy diff.) ....   1.000e-08
   Grad. Scal. Fac. for Micro threshold ....   0.100
   Minimum threshold for Micro iter.    ....   0.010
   NR start threshold (gradient norm)   ....   0.001
   Initial trust radius                 ....   0.400
   Minimum AH scaling param. (alpha)    ....   1.000
   Maximum AH scaling param. (alpha)    .... 1000.000
   Orbital update algorithm             .... Taylor
   White noise on init. David. guess    .... on
   Maximum white noise                  ....   0.010
   Quad. conv. algorithm                .... NR
 SOSCF                  CNVSOSCF        .... on
   Start iteration      SOSCFMaxIt      ....   150
   Startup grad/error   SOSCFStart      ....  0.003300
 Level Shifting         CNVShift        .... on
   Level shift para.    LevelShift      ....    0.2500
   Turn off err/grad.   ShiftErr        ....    0.0010
 Zerner damping         CNVZerner       .... off
 Static damping         CNVDamp         .... on
   Fraction old density DampFac         ....    0.7000
   Max. Damping (<1)    DampMax         ....    0.9800
   Min. Damping (>=0)   DampMin         ....    0.0000
   Turn off err/grad.   DampErr         ....    0.1000
 Fernandez-Rico         CNVRico         .... off

SCF Procedure:
 Maximum # iterations   MaxIter         ....   125
 SCF integral mode      SCFMode         .... Direct
   Integral package                     .... SHARK and LIBINT hybrid scheme
 Reset frequency        DirectResetFreq ....    20
 Integral Threshold     Thresh          ....  2.500e-11 Eh
 Primitive CutOff       TCut            ....  2.500e-12 Eh

Convergence Tolerance:
 Convergence Check Mode ConvCheckMode   .... Total+1el-Energy
 Convergence forced     ConvForced      .... 0
 Energy Change          TolE            ....  1.000e-08 Eh
 1-El. energy change                    ....  1.000e-05 Eh
 Orbital Gradient       TolG            ....  1.000e-05
 Orbital Rotation angle TolX            ....  1.000e-05
 DIIS Error             TolErr          ....  5.000e-07


Diagonalization of the overlap matrix:
Smallest eigenvalue                        ... 2.465e-04
Time for diagonalization                   ...    0.003 sec
Threshold for overlap eigenvalues          ... 1.000e-08
Number of eigenvalues below threshold      ... 0
Time for construction of square roots      ...    0.097 sec
Total time needed                          ...    0.099 sec

Time for model grid setup =    0.283 sec

------------------------------
INITIAL GUESS: MODEL POTENTIAL
------------------------------
Loading Hartree-Fock densities                     ... done
Calculating cut-offs                               ... done
Initializing the effective Hamiltonian             ... done
Setting up the integral package (SHARK)            ... done
Starting the Coulomb interaction                   ... done (   0.3 sec)
Reading the grid                                   ... done
Mapping shells                                     ... done
Starting the XC term evaluation                    ... done (   0.2 sec)
  promolecular density results
     # of electrons  =     56.993230198
     EX              =    -48.443931101
     EC              =     -1.901870598
     EX+EC           =    -50.345801699
Transforming the Hamiltonian                       ... done (   0.0 sec)
Diagonalizing the Hamiltonian                      ... done (   0.0 sec)
Back transforming the eigenvectors                 ... done (   0.0 sec)
Now organizing SCF variables                       ... done
                      ------------------
                      INITIAL GUESS DONE (   0.7 sec)
                      ------------------
-------------------
DFT GRID GENERATION
-------------------

General Integration Accuracy     IntAcc      ... 4.388
Radial Grid Type                 RadialGrid  ... OptM3 with GC (2021)
Angular Grid (max. ang.)         AngularGrid ... 4 (Lebedev-302)
Angular grid pruning method      GridPruning ... 4 (adaptive)
Weight generation scheme         WeightScheme... Becke
Basis function cutoff            BFCut       ... 1.0000e-11
Integration weight cutoff        WCut        ... 1.0000e-14
Angular grids for H and He will be reduced by one unit
Partially contracted basis set               ... off
Rotationally invariant grid construction     ... off

Total number of grid points                  ...    64555
Total number of batches                      ...     1015
Average number of points per batch           ...       63
Average number of grid points per atom       ...     4966
Time for grid setup =    0.703 sec


--------------------
CPCM SOLVATION MODEL
--------------------
CPCM parameters:
  Epsilon                                         ...      80.4000
  Refrac                                          ...       1.3300
  Rsolv                                           ...       1.3000
  Surface type                                    ... GAUSSIAN VDW
  Epsilon function type                           ...         CPCM
Radii:
 Radius for C  used is    3.8550 Bohr (=   2.0400 Ang.)
 Radius for O  used is    3.4469 Bohr (=   1.8240 Ang.)
 Radius for H  used is    2.4944 Bohr (=   1.3200 Ang.)
Calculating surface                               ...        done! (  0.0s)
GEPOL surface points                              ...          763
GEPOL Volume                                      ...     887.9224
GEPOL Surface-area                                ...     513.4411
Calculating surface distance matrix               ...        done! (  0.0s)
Performing Cholesky decomposition & store         ...        done! (  0.1s)
Overall time for CPCM initialization              ...                 0.1s
--------------
SCF ITERATIONS
--------------
ITER       Energy         Delta-E        Max-DP      RMS-DP      [F,P]     Damp
               ***  Starting incremental Fock matrix formation  ***
  0   -381.2331696853   0.000000000000 0.25748950  0.00538160  0.3034857 0.7000
  1   -381.3556377268  -0.122468041452 0.18106047  0.00381797  0.1066779 0.7000
                               ***Turning on DIIS***
  2   -381.3995561111  -0.043918384366 0.17891006  0.00521596  0.0312054 0.0000
  3   -381.4677334321  -0.068177320938 0.12956986  0.00268501  0.0585036 0.0000
  4   -381.4847311896  -0.016997757476 0.01586425  0.00061506  0.0155289 0.0000
  5   -381.4861750583  -0.001443868737 0.00977876  0.00028525  0.0058994 0.0000
                      *** Initiating the SOSCF procedure ***
                           *** Shutting down DIIS ***
                      *** Re-Reading the Fockian *** 
                      *** Removing any level shift *** 
ITER      Energy       Delta-E        Grad      Rot      Max-DP    RMS-DP
  6   -381.48629865  -0.0001235951  0.000407  0.000407  0.004253  0.000173
               *** Restarting incremental Fock matrix formation ***
  7   -381.48630025  -0.0000015972  0.000646  0.004297  0.005443  0.000163
  8   -381.48625551   0.0000447449  0.001438  0.003068  0.003528  0.000112
  9   -381.48630967  -0.0000541651  0.000123  0.000673  0.000594  0.000022
 10   -381.48630872   0.0000009503  0.000267  0.000480  0.000525  0.000016
 11   -381.48630992  -0.0000011985  0.000027  0.000100  0.000271  0.000006
 12   -381.48630986   0.0000000634  0.000059  0.000069  0.000171  0.000004
 13   -381.48630994  -0.0000000823  0.000003  0.000014  0.000017  0.000001
 14   -381.48630994   0.0000000024  0.000007  0.000009  0.000011  0.000000
                  ***Gradient check signals convergence***
              ***Rediagonalizing the Fockian in SOSCF/NRSCF***

               *****************************************************
               *                     SUCCESS                       *
               *           SCF CONVERGED AFTER  15 CYCLES          *
               *****************************************************


----------------
TOTAL SCF ENERGY
----------------

Total Energy       :         -381.48630994 Eh          -10380.77024 eV

Components:
Nuclear Repulsion  :          335.31469798 Eh            9124.37681 eV
Electronic Energy  :         -716.80100792 Eh          -19505.14705 eV
One Electron Energy:        -1195.31508786 Eh          -32526.17714 eV
Two Electron Energy:          478.51407994 Eh           13021.03009 eV
CPCM Dielectric    :           -0.10163733 Eh              -2.76569 eV

Virial components:
Potential Energy   :         -759.80542368 Eh          -20675.35669 eV
Kinetic Energy     :          378.31911375 Eh           10294.58645 eV
Virial Ratio       :            2.00837176


DFT components:
N(Alpha)           :       29.000011332053 electrons
N(Beta)            :       29.000011332053 electrons
N(Total)           :       58.000022664106 electrons
E(X)               :      -49.479365846233 Eh       
E(C)               :       -1.960755972438 Eh       
E(XC)              :      -51.440121818671 Eh       
DFET-embed. en.    :        0.000000000000 Eh       
CPCM Solvation Model Properties:
Surface-charge          :            0.97948180
Charge-correction       :           -0.00271045 Eh              -0.07375 eV
Free-energy (cav+disp)  :  This term is not implemented in the current solvation scheme

---------------
SCF CONVERGENCE
---------------

  Last Energy change         ...   -1.2586e-09  Tolerance :   1.0000e-08
  Last MAX-Density change    ...    1.3865e-05  Tolerance :   1.0000e-07
  Last RMS-Density change    ...    3.2081e-07  Tolerance :   5.0000e-09
  Last Orbital Gradient      ...    2.4897e-07  Tolerance :   1.0000e-05
  Last Orbital Rotation      ...    1.2880e-06  Tolerance :   1.0000e-05

             **** THE GBW FILE WAS UPDATED (inp.gbw) ****
             **** DENSITY inp.scfp WAS UPDATED ****
             **** ENERGY FILE WAS UPDATED (inp.en.tmp) ****
             **** THE GBW FILE WAS UPDATED (inp.gbw) ****
             **** DENSITY inp.scfp WAS UPDATED ****
----------------
ORBITAL ENERGIES
----------------

  NO   OCC          E(Eh)            E(eV) 
   0   2.0000     -18.763459      -510.5797 
   1   2.0000     -18.644759      -507.3497 
   2   2.0000      -9.921557      -269.9793 
   3   2.0000      -9.892691      -269.1938 
   4   2.0000      -9.869599      -268.5655 
   5   2.0000      -9.850666      -268.0503 
   6   2.0000      -9.842478      -267.8274 
   7   2.0000      -9.841914      -267.8121 
   8   2.0000      -0.936595       -25.4860 
   9   2.0000      -0.832283       -22.6476 
  10   2.0000      -0.719906       -19.5896 
  11   2.0000      -0.622453       -16.9378 
  12   2.0000      -0.611111       -16.6292 
  13   2.0000      -0.525103       -14.2888 
  14   2.0000      -0.483728       -13.1629 
  15   2.0000      -0.447254       -12.1704 
  16   2.0000      -0.408702       -11.1214 
  17   2.0000      -0.381616       -10.3843 
  18   2.0000      -0.346000        -9.4151 
  19   2.0000      -0.340110        -9.2549 
  20   2.0000      -0.317188        -8.6311 
  21   2.0000      -0.311799        -8.4845 
  22   2.0000      -0.289506        -7.8779 
  23   2.0000      -0.281241        -7.6530 
  24   2.0000      -0.268802        -7.3145 
  25   2.0000      -0.232932        -6.3384 
  26   2.0000      -0.169578        -4.6144 
  27   2.0000      -0.135206        -3.6791 
  28   2.0000      -0.127366        -3.4658 
  29   0.0000       0.001952         0.0531 
  30   0.0000       0.037497         1.0204 
  31   0.0000       0.060988         1.6596 
  32   0.0000       0.072056         1.9607 
  33   0.0000       0.116367         3.1665 
  34   0.0000       0.124994         3.4013 
  35   0.0000       0.146903         3.9974 
  36   0.0000       0.165519         4.5040 
  37   0.0000       0.212634         5.7861 
  38   0.0000       0.251542         6.8448 
  39   0.0000       0.272948         7.4273 
  40   0.0000       0.284610         7.7446 
  41   0.0000       0.298710         8.1283 
  42   0.0000       0.326090         8.8734 
  43   0.0000       0.361664         9.8414 
  44   0.0000       0.401913        10.9366 
  45   0.0000       0.428609        11.6630 
  46   0.0000       0.437084        11.8937 
  47   0.0000       0.451434        12.2842 
  48   0.0000       0.468884        12.7590 
  49   0.0000       0.503046        13.6886 
  50   0.0000       0.509410        13.8617 
  51   0.0000       0.521450        14.1894 
  52   0.0000       0.528838        14.3904 
  53   0.0000       0.540750        14.7146 
  54   0.0000       0.585270        15.9260 
  55   0.0000       0.594798        16.1853 
  56   0.0000       0.597268        16.2525 
  57   0.0000       0.606942        16.5157 
  58   0.0000       0.631216        17.1763 
  59   0.0000       0.642004        17.4698 
  60   0.0000       0.680336        18.5129 
  61   0.0000       0.682322        18.5669 
  62   0.0000       0.710900        19.3446 
  63   0.0000       0.716534        19.4979 
  64   0.0000       0.731959        19.9176 
  65   0.0000       0.763399        20.7731 
  66   0.0000       0.775495        21.1023 
  67   0.0000       0.817510        22.2456 
  68   0.0000       0.827349        22.5133 
  69   0.0000       0.901906        24.5421 
  70   0.0000       0.930060        25.3082 
  71   0.0000       0.935973        25.4691 
  72   0.0000       1.017238        27.6805 
  73   0.0000       1.035697        28.1828 
  74   0.0000       1.052750        28.6468 
  75   0.0000       1.160195        31.5705 
  76   0.0000       1.181122        32.1400 
  77   0.0000       1.184052        32.2197 
  78   0.0000       1.201678        32.6993 
  79   0.0000       1.209334        32.9077 
  80   0.0000       1.231261        33.5043 
  81   0.0000       1.245413        33.8894 
  82   0.0000       1.254072        34.1250 
  83   0.0000       1.337741        36.4018 
  84   0.0000       1.400458        38.1084 
  85   0.0000       1.418162        38.5902 
  86   0.0000       1.497428        40.7471 
  87   0.0000       1.516733        41.2724 
  88   0.0000       1.547375        42.1062 
  89   0.0000       1.633024        44.4368 
  90   0.0000       1.667008        45.3616 
  91   0.0000       1.679629        45.7050 
  92   0.0000       1.702931        46.3391 
  93   0.0000       1.717036        46.7229 
  94   0.0000       1.752029        47.6751 
  95   0.0000       1.760542        47.9068 
  96   0.0000       1.772016        48.2190 
  97   0.0000       1.792146        48.7668 
  98   0.0000       1.794157        48.8215 
  99   0.0000       1.808636        49.2155 
 100   0.0000       1.846088        50.2346 
 101   0.0000       1.924240        52.3612 
 102   0.0000       1.929932        52.5161 
 103   0.0000       2.026059        55.1319 
 104   0.0000       2.062360        56.1197 
 105   0.0000       2.090872        56.8955 
 106   0.0000       2.105146        57.2839 
 107   0.0000       2.161557        58.8190 
 108   0.0000       2.175280        59.1924 
 109   0.0000       2.179322        59.3024 
 110   0.0000       2.202510        59.9333 
 111   0.0000       2.212788        60.2130 
 112   0.0000       2.255917        61.3866 
 113   0.0000       2.266687        61.6797 
 114   0.0000       2.354643        64.0731 
 115   0.0000       2.405622        65.4603 
 116   0.0000       2.488874        67.7257 
 117   0.0000       2.528506        68.8042 
 118   0.0000       2.533551        68.9414 
 119   0.0000       2.620237        71.3003 
 120   0.0000       2.646841        72.0242 
 121   0.0000       2.695766        73.3555 
 122   0.0000       2.706041        73.6351 
 123   0.0000       2.718365        73.9705 
 124   0.0000       2.820590        76.7521 
 125   0.0000       2.854717        77.6808 
 126   0.0000       2.895770        78.7979 
 127   0.0000       2.903813        79.0168 
 128   0.0000       2.972912        80.8970 
 129   0.0000       3.022183        82.2378 
 130   0.0000       3.077387        83.7400 
 131   0.0000       3.179260        86.5121 
 132   0.0000       3.300313        89.8061 
 133   0.0000       3.409480        92.7767 
 134   0.0000       3.459083        94.1264 
 135   0.0000       3.610792        98.2546 
 136   0.0000       3.760269       102.3221 

                    ********************************
                    * MULLIKEN POPULATION ANALYSIS *
                    ********************************

-----------------------
MULLIKEN ATOMIC CHARGES
-----------------------
   0 C :   -0.019103
   1 C :   -0.171172
   2 O :   -0.209287
   3 H :   -0.055710
   4 C :    0.132395
   5 H :   -0.079938
   6 C :   -0.232411
   7 O :   -0.460246
   8 C :    0.151658
   9 H :   -0.082559
  10 C :   -0.134696
  11 H :   -0.030083
  12 H :    0.191152
Sum of atomic charges:   -1.0000000

--------------------------------
MULLIKEN REDUCED ORBITAL CHARGES
--------------------------------
  0 C s       :     3.183186  s :     3.183186
      pz      :     0.957770  p :     2.800945
      px      :     0.917273
      py      :     0.925901
      dz2     :     0.008786  d :     0.034973
      dxz     :     0.008486
      dyz     :     0.007406
      dx2y2   :     0.004087
      dxy     :     0.006208
  1 C s       :     3.279822  s :     3.279822
      pz      :     0.890148  p :     2.862141
      px      :     0.913114
      py      :     1.058878
      dz2     :     0.006650  d :     0.029209
      dxz     :     0.007668
      dyz     :     0.006343
      dx2y2   :     0.004303
      dxy     :     0.004246
  2 O s       :     3.671475  s :     3.671475
      pz      :     1.575055  p :     4.524650
      px      :     1.405079
      py      :     1.544516
      dz2     :     0.002023  d :     0.013162
      dxz     :     0.004291
      dyz     :     0.003411
      dx2y2   :     0.001888
      dxy     :     0.001549
  3 H s       :     1.031837  s :     1.031837
      pz      :     0.012450  p :     0.023872
      px      :     0.004901
      py      :     0.006521
  4 C s       :     2.920221  s :     2.920221
      pz      :     0.941536  p :     2.856239
      px      :     0.962872
      py      :     0.951832
      dz2     :     0.022417  d :     0.091146
      dxz     :     0.027025
      dyz     :     0.021758
      dx2y2   :     0.010821
      dxy     :     0.009124
  5 H s       :     1.057025  s :     1.057025
      pz      :     0.006511  p :     0.022914
      px      :     0.010478
      py      :     0.005925
  6 C s       :     3.365514  s :     3.365514
      pz      :     0.893587  p :     2.839432
      px      :     0.965000
      py      :     0.980845
      dz2     :     0.007397  d :     0.027464
      dxz     :     0.006669
      dyz     :     0.005389
      dx2y2   :     0.003010
      dxy     :     0.005000
  7 O s       :     3.699077  s :     3.699077
      pz      :     1.389259  p :     4.748165
      px      :     1.733895
      py      :     1.625012
      dz2     :     0.005095  d :     0.013004
      dxz     :     0.002875
      dyz     :     0.003821
      dx2y2   :     0.000555
      dxy     :     0.000658
  8 C s       :     2.959927  s :     2.959927
      pz      :     0.939306  p :     2.813954
      px      :     0.881701
      py      :     0.992947
      dz2     :     0.014730  d :     0.074462
      dxz     :     0.018933
      dyz     :     0.012275
      dx2y2   :     0.015864
      dxy     :     0.012659
  9 H s       :     1.059177  s :     1.059177
      pz      :     0.005899  p :     0.023382
      px      :     0.007966
      py      :     0.009517
 10 C s       :     3.266404  s :     3.266404
      pz      :     0.797942  p :     2.837811
      px      :     0.987119
      py      :     1.052750
      dz2     :     0.006662  d :     0.030481
      dxz     :     0.006855
      dyz     :     0.004738
      dx2y2   :     0.006234
      dxy     :     0.005991
 11 H s       :     1.006976  s :     1.006976
      pz      :     0.005607  p :     0.023107
      px      :     0.008273
      py      :     0.009227
 12 H s       :     0.740513  s :     0.740513
      pz      :     0.022212  p :     0.068335
      px      :     0.019970
      py      :     0.026153


                     *******************************
                     * LOEWDIN POPULATION ANALYSIS *
                     *******************************

----------------------
LOEWDIN ATOMIC CHARGES
----------------------
   0 C :   -0.059190
   1 C :   -0.159431
   2 O :   -0.073583
   3 H :    0.012876
   4 C :   -0.058392
   5 H :   -0.001686
   6 C :   -0.188648
   7 O :   -0.436700
   8 C :    0.007985
   9 H :    0.005488
  10 C :   -0.166621
  11 H :    0.018941
  12 H :    0.098960

-------------------------------
LOEWDIN REDUCED ORBITAL CHARGES
-------------------------------
  0 C s       :     2.862794  s :     2.862794
      pz      :     1.056812  p :     3.101504
      px      :     1.032766
      py      :     1.011926
      dz2     :     0.024469  d :     0.094892
      dxz     :     0.024121
      dyz     :     0.019871
      dx2y2   :     0.010217
      dxy     :     0.016215
  1 C s       :     2.879283  s :     2.879283
      pz      :     1.057760  p :     3.195961
      px      :     1.052832
      py      :     1.085369
      dz2     :     0.019862  d :     0.084187
      dxz     :     0.021901
      dyz     :     0.019207
      dx2y2   :     0.010804
      dxy     :     0.012414
  2 O s       :     3.427408  s :     3.427408
      pz      :     1.617939  p :     4.620318
      px      :     1.436256
      py      :     1.566123
      dz2     :     0.002549  d :     0.025857
      dxz     :     0.008496
      dyz     :     0.006606
      dx2y2   :     0.003938
      dxy     :     0.004268
  3 H s       :     0.913786  s :     0.913786
      pz      :     0.037065  p :     0.073338
      px      :     0.015635
      py      :     0.020638
  4 C s       :     2.838119  s :     2.838119
      pz      :     0.986387  p :     2.995101
      px      :     1.025606
      py      :     0.983108
      dz2     :     0.053416  d :     0.225172
      dxz     :     0.068948
      dyz     :     0.053188
      dx2y2   :     0.026414
      dxy     :     0.023205
  5 H s       :     0.930104  s :     0.930104
      pz      :     0.019813  p :     0.071582
      px      :     0.032691
      py      :     0.019078
  6 C s       :     2.879278  s :     2.879278
      pz      :     1.055513  p :     3.227289
      px      :     1.079112
      py      :     1.092664
      dz2     :     0.022219  d :     0.082081
      dxz     :     0.022089
      dyz     :     0.015759
      dx2y2   :     0.008137
      dxy     :     0.013877
  7 O s       :     3.568090  s :     3.568090
      pz      :     1.466546  p :     4.845135
      px      :     1.737393
      py      :     1.641197
      dz2     :     0.009605  d :     0.023475
      dxz     :     0.004906
      dyz     :     0.007066
      dx2y2   :     0.000914
      dxy     :     0.000983
  8 C s       :     2.844682  s :     2.844682
      pz      :     1.033853  p :     2.972409
      px      :     0.920393
      py      :     1.018164
      dz2     :     0.035823  d :     0.174923
      dxz     :     0.046117
      dyz     :     0.030018
      dx2y2   :     0.034501
      dxy     :     0.028464
  9 H s       :     0.920628  s :     0.920628
      pz      :     0.018329  p :     0.073884
      px      :     0.025365
      py      :     0.030191
 10 C s       :     2.853257  s :     2.853257
      pz      :     1.046678  p :     3.225695
      px      :     1.082790
      py      :     1.096227
      dz2     :     0.018950  d :     0.087669
      dxz     :     0.020870
      dyz     :     0.013959
      dx2y2   :     0.015936
      dxy     :     0.017955
 11 H s       :     0.911961  s :     0.911961
      pz      :     0.017536  p :     0.069099
      px      :     0.024378
      py      :     0.027184
 12 H s       :     0.725718  s :     0.725718
      pz      :     0.061438  p :     0.175322
      px      :     0.047020
      py      :     0.066864


                      *****************************
                      * MAYER POPULATION ANALYSIS *
                      *****************************

  NA   - Mulliken gross atomic population
  ZA   - Total nuclear charge
  QA   - Mulliken gross atomic charge
  VA   - Mayer's total valence
  BVA  - Mayer's bonded valence
  FA   - Mayer's free valence

  ATOM       NA         ZA         QA         VA         BVA        FA
  0 C      6.0191     6.0000    -0.0191     3.7465     3.7465     0.0000
  1 C      6.1712     6.0000    -0.1712     3.6935     3.6935    -0.0000
  2 O      8.2093     8.0000    -0.2093     2.2354     2.2354    -0.0000
  3 H      1.0557     1.0000    -0.0557     0.9905     0.9905     0.0000
  4 C      5.8676     6.0000     0.1324     4.1969     4.1969    -0.0000
  5 H      1.0799     1.0000    -0.0799     1.0007     1.0007    -0.0000
  6 C      6.2324     6.0000    -0.2324     3.6018     3.6018     0.0000
  7 O      8.4602     8.0000    -0.4602     2.0601     2.0601    -0.0000
  8 C      5.8483     6.0000     0.1517     3.8813     3.8813    -0.0000
  9 H      1.0826     1.0000    -0.0826     1.0174     1.0174     0.0000
 10 C      6.1347     6.0000    -0.1347     3.7446     3.7446     0.0000
 11 H      1.0301     1.0000    -0.0301     0.9733     0.9733     0.0000
 12 H      0.8088     1.0000     0.1912     1.0080     1.0080    -0.0000

  Mayer bond orders larger than 0.100000
B(  0-C ,  1-C ) :   1.3830 B(  0-C , 10-C ) :   1.3072 B(  0-C , 11-H ) :   0.9803 
B(  1-C ,  4-C ) :   1.1847 B(  1-C ,  5-H ) :   0.9747 B(  2-O ,  8-C ) :   1.1669 
B(  2-O , 12-H ) :   0.9602 B(  3-H , 10-C ) :   0.9971 B(  4-C ,  6-C ) :   1.1575 
B(  4-C ,  7-O ) :   1.7828 B(  6-C ,  8-C ) :   1.2913 B(  6-C ,  9-H ) :   0.9764 
B(  8-C , 10-C ) :   1.3194 

-------
TIMINGS
-------

Total SCF time: 0 days 0 hours 0 min 24 sec 

Total time                  ....      24.440 sec
Sum of individual times     ....      22.570 sec  ( 92.3%)

Fock matrix formation       ....      20.723 sec  ( 84.8%)
  Split-RI-J                ....       2.835 sec  ( 13.7% of F)
  XC integration            ....      10.837 sec  ( 52.3% of F)
    Basis function eval.    ....       3.651 sec  ( 33.7% of XC)
    Density eval.           ....       1.881 sec  ( 17.4% of XC)
    XC-Functional eval.     ....       0.887 sec  (  8.2% of XC)
    XC-Potential eval.      ....       1.801 sec  ( 16.6% of XC)
Diagonalization             ....       0.020 sec  (  0.1%)
Density matrix formation    ....       0.003 sec  (  0.0%)
Population analysis         ....       0.020 sec  (  0.1%)
Initial guess               ....       0.457 sec  (  1.9%)
Orbital Transformation      ....       0.000 sec  (  0.0%)
Orbital Orthonormalization  ....       0.000 sec  (  0.0%)
DIIS solution               ....       0.192 sec  (  0.8%)
SOSCF solution              ....       0.169 sec  (  0.7%)
Grid generation             ....       0.987 sec  (  4.0%)

Maximum memory used throughout the entire SCF-calculation: 38.0 MB


-------------------------------------------------------------------------------
                          DFT DISPERSION CORRECTION                            
                                                                               
                              DFTD3 V3.1  Rev 1                                
                          USING Becke-Johnson damping                          
-------------------------------------------------------------------------------
The PBE functional is recognized
Active option DFTDOPT                   ...         4   

molecular C6(AA) [au] = 2075.983896 


            DFT-D V3
 parameters
 s6 scaling factor         :     1.0000 
 a1 scaling factor         :     0.4289 
 s8 scaling factor         :     0.7875 
 a2 scaling factor         :     4.4407 
 ad hoc parameters k1-k3   :    16.0000     1.3333    -4.0000 

 Edisp/kcal,au: -8.018728947005  -0.012778656615 
 E6   /kcal   :  -5.569896122 
 E8   /kcal   :  -2.448832825 
 % E8         :  30.538915102 

-------------------------   ----------------
Dispersion correction           -0.012778657
-------------------------   ----------------


-------------------------   --------------------
FINAL SINGLE POINT ENERGY      -381.499088593429
-------------------------   --------------------

------------------------------------------------------------------------------
                         ORCA SCF GRADIENT CALCULATION
------------------------------------------------------------------------------

Gradient of the Kohn-Sham DFT energy:
Kohn-Sham wavefunction type      ... RKS
Hartree-Fock exchange scaling    ...    0.000
Number of operators              ...    1
Number of atoms                  ...   13
Basis set dimensions             ...  137
Integral neglect threshold       ... 2.5e-11
Integral primitive cutoff        ... 2.5e-12
SHARK Integral package           ... ON

Nuc. rep. gradient       (SHARK) ... done (  0.0 sec)
HCore & Overlap gradient (SHARK) ... done (  0.1 sec)
RI-J gradient            (SHARK) ... done (  0.7 sec)
Exchange-correlation gradient    ... done
Dispersion correction            ... done

------------------
CARTESIAN GRADIENT
------------------

   1   C   :   -0.004099899    0.008890536    0.021509666
   2   C   :   -0.019034375   -0.026140175   -0.021724871
   3   O   :    0.003210549   -0.000524506   -0.005279768
   4   H   :    0.004102293   -0.003394534   -0.011625373
   5   C   :   -0.004457220    0.008962585    0.022446117
   6   H   :   -0.007502721   -0.001872031    0.006647866
   7   C   :    0.017995220    0.002333233   -0.019676929
   8   O   :   -0.003178860    0.005281537    0.013498230
   9   C   :    0.010162198    0.013902340    0.011501114
  10   H   :    0.008108525    0.008054050    0.003767792
  11   C   :   -0.003437520   -0.011261263   -0.015874472
  12   H   :   -0.007442411   -0.008624992   -0.005650388
  13   H   :    0.005574221    0.004393221    0.000461015

Difference to translation invariance:
           :    0.0000000000   -0.0000000000   -0.0000000000

Difference to rotation invariance:
           :    0.0001446172   -0.0001773727    0.0001520996

Norm of the cartesian gradient     ...    0.0714092883
RMS gradient                       ...    0.0114346375
MAX gradient                       ...    0.0261401755

-------
TIMINGS
-------

Total SCF gradient time            ...        4.849 sec

One electron gradient       ....       0.101 sec  (  2.1%)
RI-J Coulomb gradient       ....       0.705 sec  ( 14.5%)
XC gradient                 ....       3.446 sec  ( 71.1%)
CPCM gradient               ....       0.246 sec  (  5.1%)
   A-Matrix (El+Nuc)        ....       0.033 sec  (  0.7%)
   Potential                ....       0.212 sec  (  4.4%)

Maximum memory used throughout the entire SCFGRAD-calculation: 40.4 MB
------------------------------------------------------------------------------
                         ORCA GEOMETRY RELAXATION STEP
------------------------------------------------------------------------------

Reading the OPT-File                    .... done
Getting information on internals        .... done
Copying old internal coords+grads       .... done
Making the new internal coordinates     .... (new redundants).... done
Validating the new internal coordinates .... (new redundants).... done
Calculating the B-matrix                .... done
Calculating the G,G- and P matrices     .... done
Transforming gradient to internals      .... done
Projecting the internal gradient        .... done
Number of atoms                         ....  13
Number of internal coordinates          ....  58
Current Energy                          ....  -381.499088593 Eh
Current gradient norm                   ....     0.071409288 Eh/bohr
Maximum allowed component of the step   ....  0.300
Current trust radius                    ....  0.300
Evaluating the initial hessian          ....  (Almloef) done
Projecting the Hessian                  .... done
Forming the augmented Hessian           .... done
Diagonalizing the augmented Hessian     .... done
Last element of RFO vector              ....  0.991835612
Lowest eigenvalues of augmented Hessian:
 -0.008904295  0.023514552  0.023785531  0.023852831  0.024286414
Length of the computed step             ....  0.128572729
The final length of the internal step   ....  0.128572729
Converting the step to cartesian space:
 Initial RMS(Int)=    0.0168824264
Transforming coordinates:
 Iter   0:  RMS(Cart)=    0.0337926580 RMS(Int)=    2.3334334687
 Iter   1:  RMS(Cart)=    0.0001326860 RMS(Int)=    0.0001002505
 Iter   2:  RMS(Cart)=    0.0000031446 RMS(Int)=    0.0000017129
 Iter   3:  RMS(Cart)=    0.0000000775 RMS(Int)=    0.0000000599
done
Storing new coordinates                 .... done

                                .--------------------.
          ----------------------|Geometry convergence|-------------------------
          Item                value                   Tolerance       Converged
          ---------------------------------------------------------------------
          RMS gradient        0.0093077840            0.0001000000      NO
          MAX gradient        0.0366394032            0.0003000000      NO
          RMS step            0.0168824264            0.0020000000      NO
          MAX step            0.0619540143            0.0040000000      NO
          ........................................................
          Max(Bonds)      0.0328      Max(Angles)    1.17
          Max(Dihed)        0.15      Max(Improp)    0.00
          ---------------------------------------------------------------------

The optimization has not yet converged - more geometry cycles are needed


    ---------------------------------------------------------------------------
                         Redundant Internal Coordinates
                            (Angstroem and degrees)

        Definition                    Value    dE/dq     Step     New-Value
    ----------------------------------------------------------------------------
     1. B(C   1,C   0)                1.4041  0.000274 -0.0004    1.4037   
     2. B(C   4,C   1)                1.4086 -0.035413  0.0317    1.4403   
     3. B(H   5,C   1)                1.0896 -0.009954  0.0143    1.1039   
     4. B(C   6,C   4)                1.4073 -0.036639  0.0328    1.4401   
     5. B(O   7,C   4)                1.2749 -0.014832  0.0091    1.2840   
     6. B(C   8,C   6)                1.4009 -0.005007  0.0045    1.4054   
     7. B(C   8,O   2)                1.3678 -0.010695  0.0092    1.3770   
     8. B(H   9,C   6)                1.0877 -0.011960  0.0170    1.1047   
     9. B(C  10,C   8)                1.3836 -0.027131  0.0221    1.4057   
    10. B(C  10,H   3)                1.0827 -0.012624  0.0176    1.1003   
    11. B(C  10,C   0)                1.3884 -0.023072  0.0190    1.4074   
    12. B(H  11,C   0)                1.0841 -0.012686  0.0178    1.1019   
    13. B(H  12,O   2)                0.9716 -0.005757  0.0060    0.9776   
    14. A(C  10,C   0,H  11)          120.55  0.004463   -0.60    119.95   
    15. A(C   1,C   0,C  10)          119.98 -0.007109    0.92    120.91   
    16. A(C   1,C   0,H  11)          119.46  0.002646   -0.32    119.14   
    17. A(C   4,C   1,H   5)          118.03  0.000265   -0.07    117.96   
    18. A(C   0,C   1,H   5)          118.64 -0.004278    0.65    119.29   
    19. A(C   0,C   1,C   4)          123.33  0.004012   -0.58    122.75   
    20. A(C   8,O   2,H  12)          105.35 -0.007675    1.17    106.52   
    21. A(C   6,C   4,O   7)          122.60 -0.001532    0.18    122.78   
    22. A(C   1,C   4,O   7)          122.86 -0.000508    0.05    122.91   
    23. A(C   1,C   4,C   6)          114.54  0.002040   -0.23    114.31   
    24. A(C   4,C   6,C   8)          122.70 -0.000275    0.09    122.79   
    25. A(C   8,C   6,H   9)          120.12  0.001498   -0.26    119.86   
    26. A(C   4,C   6,H   9)          117.19 -0.001223    0.17    117.36   
    27. A(C   6,C   8,C  10)          120.92  0.000725   -0.08    120.84   
    28. A(O   2,C   8,C  10)          118.35  0.002207   -0.29    118.06   
    29. A(O   2,C   8,C   6)          120.73 -0.002931    0.38    121.11   
    30. A(C   0,C  10,C   8)          118.53  0.000607   -0.13    118.40   
    31. A(C   0,C  10,H   3)          120.89 -0.002396    0.39    121.28   
    32. A(H   3,C  10,C   8)          120.58  0.001790   -0.27    120.31   
    33. D(H   5,C   1,C   0,C  10)   -180.00 -0.000028    0.05   -179.95   
    34. D(C   4,C   1,C   0,H  11)   -180.00  0.000011   -0.02   -180.02   
    35. D(H   5,C   1,C   0,H  11)      0.00 -0.000017    0.03      0.03   
    36. D(C   4,C   1,C   0,C  10)      0.00 -0.000000   -0.00     -0.00   
    37. D(C   6,C   4,C   1,C   0)      0.00 -0.000021    0.04      0.04   
    38. D(O   7,C   4,C   1,C   0)   -180.00 -0.000077    0.14   -179.86   
    39. D(C   6,C   4,C   1,H   5)   -180.00  0.000007   -0.01   -180.01   
    40. D(O   7,C   4,C   1,H   5)     -0.00 -0.000049    0.09      0.09   
    41. D(H   9,C   6,C   4,O   7)     -0.00  0.000051   -0.09     -0.09   
    42. D(H   9,C   6,C   4,C   1)    180.00 -0.000005    0.01    180.01   
    43. D(C   8,C   6,C   4,O   7)    180.00  0.000088   -0.15    179.84   
    44. D(C   8,C   6,C   4,C   1)     -0.00  0.000033   -0.06     -0.06   
    45. D(O   2,C   8,C   6,C   4)    180.00 -0.000037    0.06    180.06   
    46. D(C  10,C   8,O   2,H  12)    180.00 -0.000019    0.03    180.03   
    47. D(C   6,C   8,O   2,H  12)     -0.00 -0.000006    0.01      0.01   
    48. D(C  10,C   8,C   6,H   9)   -180.00  0.000015   -0.03   -180.03   
    49. D(C  10,C   8,C   6,C   4)      0.00 -0.000024    0.04      0.04   
    50. D(O   2,C   8,C   6,H   9)     -0.00  0.000002   -0.00     -0.00   
    51. D(H   3,C  10,C   8,C   6)   -180.00  0.000002   -0.00   -180.00   
    52. D(H   3,C  10,C   8,O   2)      0.00  0.000015   -0.02     -0.02   
    53. D(C   0,C  10,C   8,C   6)      0.00 -0.000000   -0.00      0.00   
    54. D(C   0,C  10,C   8,O   2)   -180.00  0.000013   -0.02   -180.02   
    55. D(C   8,C  10,C   0,H  11)    180.00 -0.000000    0.00    180.00   
    56. D(C   8,C  10,C   0,C   1)     -0.00  0.000011   -0.02     -0.02   
    57. D(H   3,C  10,C   0,H  11)     -0.00 -0.000002    0.00      0.00   
    58. D(H   3,C  10,C   0,C   1)    180.00  0.000009   -0.02    179.98   
    ----------------------------------------------------------------------------

         *************************************************************
         *                GEOMETRY OPTIMIZATION CYCLE   2            *
         *************************************************************
---------------------------------
CARTESIAN COORDINATES (ANGSTROEM)
---------------------------------
  C     -6.296034   -3.521689    2.053767
  C     -6.029544   -4.031367    0.773291
  O     -9.370681   -5.319018    2.918440
  H     -7.635216   -3.555833    3.787325
  C     -6.871981   -5.008284    0.132605
  H     -5.139441   -3.676510    0.225259
  C     -8.009273   -5.415808    0.916453
  O     -6.629705   -5.478354   -1.037382
  C     -8.272893   -4.903741    2.198421
  H     -8.689753   -6.164348    0.472628
  C     -7.420538   -3.951000    2.783099
  H     -5.610884   -2.775718    2.487703
  H     -9.837748   -5.972352    2.361057

----------------------------
CARTESIAN COORDINATES (A.U.)
----------------------------
  NO LB      ZA    FRAG     MASS         X           Y           Z
   0 C     6.0000    0    12.011  -11.897780   -6.655028    3.881057
   1 C     6.0000    0    12.011  -11.394187   -7.618180    1.461308
   2 O     8.0000    0    15.999  -17.708021  -10.051487    5.515051
   3 H     1.0000    0     1.008  -14.428466   -6.719551    7.157007
   4 C     6.0000    0    12.011  -12.986163   -9.464285    0.250586
   5 H     1.0000    0     1.008   -9.712135   -6.947598    0.425679
   6 C     6.0000    0    12.011  -15.135333  -10.234394    1.731845
   7 O     8.0000    0    15.999  -12.528326  -10.352589   -1.960369
   8 C     6.0000    0    12.011  -15.633503   -9.266727    4.154414
   9 H     1.0000    0     1.008  -16.421253  -11.648929    0.893138
  10 C     6.0000    0    12.011  -14.022785   -7.466308    5.259296
  11 H     1.0000    0     1.008  -10.603033   -5.245348    4.701078
  12 H     1.0000    0     1.008  -18.590650  -11.286110    4.461752

--------------------------------
INTERNAL COORDINATES (ANGSTROEM)
--------------------------------
 C      0   0   0     0.000000000000     0.00000000     0.00000000
 C      1   0   0     1.403711845311     0.00000000     0.00000000
 O      1   2   0     3.664901586718   101.32790434     0.00000000
 H      1   2   3     2.190844037462   146.32469271     0.00000000
 C      2   1   3     1.440328033810   122.75170086     0.00000000
 H      2   1   3     1.103877918636   119.29027190   180.04934527
 C      5   2   1     1.440113836321   114.31318368     0.03776909
 O      5   2   1     1.283952284965   122.90781955   180.13550929
 C      3   1   2     1.376960163881    19.92710325   359.94759012
 H      7   5   2     1.104691983281   117.35688868   180.00706092
 C      4   1   2     1.100323716249    33.29765459   359.97568129
 H      1   2   3     1.101909282479   119.14321287   179.98074336
 H      3   1   2     0.977585097343   126.44566413     0.00000000

---------------------------
INTERNAL COORDINATES (A.U.)
---------------------------
 C      0   0   0     0.000000000000     0.00000000     0.00000000
 C      1   0   0     2.652630958578     0.00000000     0.00000000
 O      1   2   0     6.925660306670   101.32790434     0.00000000
 H      1   2   3     4.140095232937   146.32469271     0.00000000
 C      2   1   3     2.721825526910   122.75170086     0.00000000
 H      2   1   3     2.086026951506   119.29027190   180.04934527
 C      5   2   1     2.721420752318   114.31318368     0.03776909
 O      5   2   1     2.426318187607   122.90781955   180.13550929
 C      3   1   2     2.602077607054    19.92710325   359.94759012
 H      7   5   2     2.087565310739   117.35688868   180.00706092
 C      4   1   2     2.079310482369    33.29765459   359.97568129
 H      1   2   3     2.082306768312   119.14321287   179.98074336
 H      3   1   2     1.847368106580   126.44566413     0.00000000

------------------------------------------------------------------------------
                   ___                                                        
                  /   \      - P O W E R E D   B Y -                         
                 /     \                                                     
                 |  |  |   _    _      __       _____    __    __             
                 |  |  |  | |  | |    /  \     |  _  \  |  |  /  |          
                  \  \/   | |  | |   /    \    | | | |  |  | /  /          
                 / \  \   | |__| |  /  /\  \   | |_| |  |  |/  /          
                |  |  |   |  __  | /  /__\  \  |    /   |      \           
                |  |  |   | |  | | |   __   |  |    \   |  |\   \          
                \     /   | |  | | |  |  |  |  | |\  \  |  | \   \       
                 \___/    |_|  |_| |__|  |__|  |_| \__\ |__|  \__/        
                                                                              
                      - O R C A' S   B I G   F R I E N D -                    
                                      &                                       
                       - I N T E G R A L  F E E D E R -                       
                                                                              
 v1 FN, 2020, v2 2021                                                         
------------------------------------------------------------------------------


Reading SHARK input file inp.SHARKINP.tmp ... ok
----------------------
SHARK INTEGRAL PACKAGE
----------------------

Number of atoms                             ...     13
Number of basis functions                   ...    137
Number of shells                            ...     63
Maximum angular momentum                    ...      2
Integral batch strategy                     ... SHARK/LIBINT Hybrid
RI-J (if used) integral strategy            ... SPLIT-RIJ (Revised 2003 algorithm where possible)
Printlevel                                  ...      1
Contraction scheme used                     ... SEGMENTED contraction
Coulomb Range Separation                    ... NOT USED
Exchange Range Separation                   ... NOT USED
Finite Nucleus Model                        ... NOT USED
Auxiliary Coulomb fitting basis             ... AVAILABLE
   # of basis functions in Aux-J            ...    447
   # of shells in Aux-J                     ...    145
   Maximum angular momentum in Aux-J        ...      4
Auxiliary J/K fitting basis                 ... NOT available
Auxiliary Correlation fitting basis         ... NOT available
Auxiliary 'external' fitting basis          ... NOT available
Integral threshold                          ...     2.500000e-11
Primitive cut-off                           ...     2.500000e-12
Primitive pair pre-selection threshold      ...     2.500000e-12

Calculating pre-screening integrals         ... done (  0.1 sec) Dimension = 63
Organizing shell pair data                  ... done (  0.1 sec)
Shell pair information
Total number of shell pairs                 ...      2016
Shell pairs after pre-screening             ...      1906
Total number of primitive shell pairs       ...      7500
Primitive shell pairs kept                  ...      5298
          la=0 lb=0:    557 shell pairs
          la=1 lb=0:    677 shell pairs
          la=1 lb=1:    222 shell pairs
          la=2 lb=0:    254 shell pairs
          la=2 lb=1:    161 shell pairs
          la=2 lb=2:     35 shell pairs

Calculating one electron integrals          ... done (  0.0 sec)
Calculating RI/J V-Matrix + Cholesky decomp.... done (  0.1 sec)
Calculating Nuclear repulsion               ... done (  0.0 sec) ENN=    331.336409421820 Eh

SHARK setup successfully completed in   0.4 seconds

Maximum memory used throughout the entire GTOINT-calculation: 18.1 MB

Diagonalization of the overlap matrix:
Smallest eigenvalue                        ... 2.796e-04
Time for diagonalization                   ...    0.003 sec
Threshold for overlap eigenvalues          ... 1.000e-08
Number of eigenvalues below threshold      ... 0
Time for construction of square roots      ...    0.069 sec
Total time needed                          ...    0.072 sec

-------------------
DFT GRID GENERATION
-------------------

General Integration Accuracy     IntAcc      ... 4.388
Radial Grid Type                 RadialGrid  ... OptM3 with GC (2021)
Angular Grid (max. ang.)         AngularGrid ... 4 (Lebedev-302)
Angular grid pruning method      GridPruning ... 4 (adaptive)
Weight generation scheme         WeightScheme... Becke
Basis function cutoff            BFCut       ... 1.0000e-11
Integration weight cutoff        WCut        ... 1.0000e-14
Angular grids for H and He will be reduced by one unit
Partially contracted basis set               ... off
Rotationally invariant grid construction     ... off

Total number of grid points                  ...    64589
Total number of batches                      ...     1014
Average number of points per batch           ...       63
Average number of grid points per atom       ...     4968
Time for grid setup =    0.650 sec


--------------------
CPCM SOLVATION MODEL
--------------------
CPCM parameters:
  Epsilon                                         ...      80.4000
  Refrac                                          ...       1.3300
  Rsolv                                           ...       1.3000
  Surface type                                    ... GAUSSIAN VDW
  Epsilon function type                           ...         CPCM
Radii:
 Radius for C  used is    3.8550 Bohr (=   2.0400 Ang.)
 Radius for O  used is    3.4469 Bohr (=   1.8240 Ang.)
 Radius for H  used is    2.4944 Bohr (=   1.3200 Ang.)
Calculating surface                               ...        done! (  0.0s)
GEPOL surface points                              ...          776
GEPOL Volume                                      ...     898.1524
GEPOL Surface-area                                ...     519.5431
Calculating surface distance matrix               ...        done! (  0.0s)
Performing Cholesky decomposition & store         ...        done! (  0.1s)
Overall time for CPCM initialization              ...                 0.1s
--------------
SCF ITERATIONS
--------------
ITER       Energy         Delta-E        Max-DP      RMS-DP      [F,P]     Damp
               ***  Starting incremental Fock matrix formation  ***
  0   -381.4906472474   0.000000000000 0.02372506  0.00072658  0.0082031 0.7000
                      *** Initiating the SOSCF procedure ***
                      *** Re-Reading the Fockian *** 
                      *** Removing any level shift *** 
ITER      Energy       Delta-E        Grad      Rot      Max-DP    RMS-DP
  1   -381.49097580  -0.0003285509  0.000732  0.000732  0.065632  0.001987
               *** Restarting incremental Fock matrix formation ***
  2   -381.49163536  -0.0006595661  0.001334  0.004997  0.008177  0.000274
  3   -381.49149944   0.0001359248  0.003309  0.004336  0.009267  0.000218
  4   -381.49168016  -0.0001807207  0.000834  0.002572  0.006608  0.000166
  5   -381.49166460   0.0000155581  0.001171  0.001653  0.003471  0.000097
  6   -381.49168982  -0.0000252159  0.000098  0.000541  0.000482  0.000021
  7   -381.49168907   0.0000007522  0.000218  0.000436  0.000323  0.000013
  8   -381.49169015  -0.0000010801  0.000035  0.000145  0.000160  0.000006
  9   -381.49169008   0.0000000615  0.000051  0.000084  0.000107  0.000004
 10   -381.49169017  -0.0000000878  0.000004  0.000023  0.000026  0.000001
 11   -381.49169017   0.0000000028  0.000008  0.000017  0.000016  0.000001
                 **** Energy Check signals convergence ****
              ***Rediagonalizing the Fockian in SOSCF/NRSCF***

               *****************************************************
               *                     SUCCESS                       *
               *           SCF CONVERGED AFTER  12 CYCLES          *
               *****************************************************

Total Energy       :         -381.49169017 Eh          -10380.91665 eV
  Last Energy change         ...    3.9392e-10  Tolerance :   1.0000e-08
  Last MAX-Density change    ...    2.1105e-06  Tolerance :   1.0000e-07
             **** THE GBW FILE WAS UPDATED (inp.gbw) ****
             **** DENSITY inp.scfp WAS UPDATED ****
             **** ENERGY FILE WAS UPDATED (inp.en.tmp) ****
             **** THE GBW FILE WAS UPDATED (inp.gbw) ****
             **** DENSITY inp.scfp WAS UPDATED ****
Total SCF time: 0 days 0 hours 0 min 18 sec 

Maximum memory used throughout the entire SCF-calculation: 37.8 MB


-------------------------------------------------------------------------------
                          DFT DISPERSION CORRECTION                            
                                                                               
                              DFTD3 V3.1  Rev 1                                
                          USING Becke-Johnson damping                          
-------------------------------------------------------------------------------
-------------------------   ----------------
Dispersion correction           -0.012659894
-------------------------   ----------------


-------------------------   --------------------
FINAL SINGLE POINT ENERGY      -381.504350063573
-------------------------   --------------------

------------------------------------------------------------------------------
                         ORCA SCF GRADIENT CALCULATION
[...]
  18   2.0000      -0.342971        -9.3327 
  19   2.0000      -0.335471        -9.1286 
  20   2.0000      -0.317219        -8.6320 
  21   2.0000      -0.312691        -8.5087 
  22   2.0000      -0.287575        -7.8253 
  23   2.0000      -0.282764        -7.6944 
  24   2.0000      -0.270326        -7.3560 
  25   2.0000      -0.232690        -6.3318 
  26   2.0000      -0.171553        -4.6682 
  27   2.0000      -0.141148        -3.8408 
  28   2.0000      -0.128715        -3.5025 
  29   0.0000       0.001776         0.0483 
  30   0.0000       0.028692         0.7808 
  31   0.0000       0.058514         1.5922 
  32   0.0000       0.068561         1.8656 
  33   0.0000       0.112496         3.0612 
  34   0.0000       0.120888         3.2895 
  35   0.0000       0.141513         3.8508 
  36   0.0000       0.152156         4.1404 
  37   0.0000       0.207487         5.6460 
  38   0.0000       0.247437         6.7331 
  39   0.0000       0.256467         6.9788 
  40   0.0000       0.269202         7.3254 
  41   0.0000       0.298922         8.1341 
  42   0.0000       0.321712         8.7542 
  43   0.0000       0.355372         9.6702 
  44   0.0000       0.399424        10.8689 
  45   0.0000       0.412328        11.2200 
  46   0.0000       0.427088        11.6217 
  47   0.0000       0.451961        12.2985 
  48   0.0000       0.456746        12.4287 
  49   0.0000       0.497660        13.5420 
  50   0.0000       0.507187        13.8013 
  51   0.0000       0.521536        14.1917 
  52   0.0000       0.530489        14.4353 
  53   0.0000       0.532814        14.4986 
  54   0.0000       0.582134        15.8407 
  55   0.0000       0.583682        15.8828 
  56   0.0000       0.591178        16.0868 
  57   0.0000       0.593589        16.1524 
  58   0.0000       0.620963        16.8973 
  59   0.0000       0.629129        17.1195 
  60   0.0000       0.671580        18.2746 
  61   0.0000       0.674591        18.3566 
  62   0.0000       0.692607        18.8468 
  63   0.0000       0.706472        19.2241 
  64   0.0000       0.712868        19.3981 
  65   0.0000       0.755911        20.5694 
  66   0.0000       0.764756        20.8101 
  67   0.0000       0.799443        21.7540 
  68   0.0000       0.825766        22.4702 
  69   0.0000       0.899808        24.4850 
  70   0.0000       0.919761        25.0280 
  71   0.0000       0.934192        25.4206 
  72   0.0000       1.008853        27.4523 
  73   0.0000       1.027868        27.9697 
  74   0.0000       1.044370        28.4187 
  75   0.0000       1.159716        31.5575 
  76   0.0000       1.175046        31.9746 
  77   0.0000       1.182414        32.1751 
  78   0.0000       1.193085        32.4655 
  79   0.0000       1.212509        32.9941 
  80   0.0000       1.224656        33.3246 
  81   0.0000       1.240520        33.7563 
  82   0.0000       1.246158        33.9097 
  83   0.0000       1.334386        36.3105 
  84   0.0000       1.396682        38.0056 
  85   0.0000       1.417931        38.5839 
  86   0.0000       1.502942        40.8971 
  87   0.0000       1.510180        41.0941 
  88   0.0000       1.540532        41.9200 
  89   0.0000       1.616076        43.9757 
  90   0.0000       1.650202        44.9043 
  91   0.0000       1.668288        45.3964 
  92   0.0000       1.681097        45.7450 
  93   0.0000       1.713145        46.6170 
  94   0.0000       1.732746        47.1504 
  95   0.0000       1.745423        47.4954 
  96   0.0000       1.755970        47.7824 
  97   0.0000       1.772445        48.2307 
  98   0.0000       1.777231        48.3609 
  99   0.0000       1.791415        48.7469 
 100   0.0000       1.813642        49.3517 
 101   0.0000       1.893601        51.5275 
 102   0.0000       1.917283        52.1719 
 103   0.0000       1.997999        54.3683 
 104   0.0000       2.038827        55.4793 
 105   0.0000       2.077515        56.5321 
 106   0.0000       2.091691        56.9178 
 107   0.0000       2.140409        58.2435 
 108   0.0000       2.148912        58.4749 
 109   0.0000       2.149928        58.5025 
 110   0.0000       2.165052        58.9141 
 111   0.0000       2.185457        59.4693 
 112   0.0000       2.240945        60.9792 
 113   0.0000       2.258326        61.4522 
 114   0.0000       2.326468        63.3064 
 115   0.0000       2.378338        64.7179 
 116   0.0000       2.476027        67.3761 
 117   0.0000       2.489174        67.7339 
 118   0.0000       2.507054        68.2204 
 119   0.0000       2.585335        70.3505 
 120   0.0000       2.614926        71.1558 
 121   0.0000       2.661362        72.4193 
 122   0.0000       2.689353        73.1810 
 123   0.0000       2.695484        73.3478 
 124   0.0000       2.781354        75.6845 
 125   0.0000       2.831159        77.0398 
 126   0.0000       2.839954        77.2791 
 127   0.0000       2.893496        78.7360 
 128   0.0000       2.951716        80.3203 
 129   0.0000       2.973585        80.9154 
 130   0.0000       3.058324        83.2212 
 131   0.0000       3.132965        85.2523 
 132   0.0000       3.278251        89.2057 
 133   0.0000       3.364633        91.5563 
 134   0.0000       3.426604        93.2426 
 135   0.0000       3.572011        97.1994 
 136   0.0000       3.722876       101.3046 

                    ********************************
                    * MULLIKEN POPULATION ANALYSIS *
                    ********************************

-----------------------
MULLIKEN ATOMIC CHARGES
-----------------------
   0 C :   -0.030067
   1 C :   -0.163836
   2 O :   -0.223586
   3 H :   -0.042969
   4 C :    0.099306
   5 H :   -0.064282
   6 C :   -0.230563
   7 O :   -0.449163
   8 C :    0.131308
   9 H :   -0.065709
  10 C :   -0.137555
  11 H :   -0.018795
  12 H :    0.195911
Sum of atomic charges:   -1.0000000

--------------------------------
MULLIKEN REDUCED ORBITAL CHARGES
--------------------------------
  0 C s       :     3.183566  s :     3.183566
      pz      :     0.946894  p :     2.812539
      px      :     0.928024
      py      :     0.937621
      dz2     :     0.008589  d :     0.033963
      dxz     :     0.008278
      dyz     :     0.007369
      dx2y2   :     0.003855
      dxy     :     0.005873
  1 C s       :     3.275254  s :     3.275254
      pz      :     0.888464  p :     2.861040
      px      :     0.914627
      py      :     1.057949
      dz2     :     0.006418  d :     0.027542
      dxz     :     0.007311
      dyz     :     0.006129
      dx2y2   :     0.003773
      dxy     :     0.003912
  2 O s       :     3.680537  s :     3.680537
      pz      :     1.587032  p :     4.530462
      px      :     1.396544
      py      :     1.546886
      dz2     :     0.001905  d :     0.012588
      dxz     :     0.004196
      dyz     :     0.003173
      dx2y2   :     0.001743
      dxy     :     0.001571
  3 H s       :     1.019983  s :     1.019983
      pz      :     0.012145  p :     0.022986
      px      :     0.004621
      py      :     0.006220
  4 C s       :     2.981801  s :     2.981801
      pz      :     0.929034  p :     2.832381
      px      :     0.957432
      py      :     0.945915
      dz2     :     0.021386  d :     0.086512
      dxz     :     0.025884
      dyz     :     0.020844
      dx2y2   :     0.009958
      dxy     :     0.008440
  5 H s       :     1.042064  s :     1.042064
      pz      :     0.006327  p :     0.022219
      px      :     0.010233
      py      :     0.005659
  6 C s       :     3.347525  s :     3.347525
      pz      :     0.902629  p :     2.857383
      px      :     0.963140
      py      :     0.991614
      dz2     :     0.007112  d :     0.025655
      dxz     :     0.006273
      dyz     :     0.005069
      dx2y2   :     0.002641
      dxy     :     0.004561
  7 O s       :     3.712263  s :     3.712263
      pz      :     1.384303  p :     4.723957
      px      :     1.724672
      py      :     1.614982
      dz2     :     0.005053  d :     0.012943
      dxz     :     0.002868
      dyz     :     0.003800
      dx2y2   :     0.000557
      dxy     :     0.000665
  8 C s       :     2.990964  s :     2.990964
      pz      :     0.935803  p :     2.805928
      px      :     0.875612
      py      :     0.994513
      dz2     :     0.014316  d :     0.071800
      dxz     :     0.018593
      dyz     :     0.012016
      dx2y2   :     0.014958
      dxy     :     0.011917
  9 H s       :     1.043208  s :     1.043208
      pz      :     0.005566  p :     0.022501
      px      :     0.007691
      py      :     0.009244
 10 C s       :     3.260070  s :     3.260070
      pz      :     0.807825  p :     2.849278
      px      :     0.984769
      py      :     1.056685
      dz2     :     0.006105  d :     0.028208
      dxz     :     0.006453
      dyz     :     0.004374
      dx2y2   :     0.005642
      dxy     :     0.005634
 11 H s       :     0.996591  s :     0.996591
      pz      :     0.005535  p :     0.022203
      px      :     0.007787
      py      :     0.008882
 12 H s       :     0.737083  s :     0.737083
      pz      :     0.020710  p :     0.067006
      px      :     0.020306
      py      :     0.025989


                     *******************************
                     * LOEWDIN POPULATION ANALYSIS *
                     *******************************

----------------------
LOEWDIN ATOMIC CHARGES
----------------------
   0 C :   -0.065612
   1 C :   -0.171083
   2 O :   -0.082636
   3 H :    0.015914
   4 C :   -0.042275
   5 H :    0.003091
   6 C :   -0.201666
   7 O :   -0.423978
   8 C :    0.010505
   9 H :    0.009028
  10 C :   -0.176462
  11 H :    0.021781
  12 H :    0.103394

-------------------------------
LOEWDIN REDUCED ORBITAL CHARGES
-------------------------------
  0 C s       :     2.872989  s :     2.872989
      pz      :     1.057535  p :     3.100392
      px      :     1.030785
      py      :     1.012072
      dz2     :     0.023703  d :     0.092232
      dxz     :     0.023890
      dyz     :     0.019790
      dx2y2   :     0.009704
      dxy     :     0.015144
  1 C s       :     2.893857  s :     2.893857
      pz      :     1.059625  p :     3.198140
      px      :     1.052551
      py      :     1.085964
      dz2     :     0.018905  d :     0.079086
      dxz     :     0.021247
      dyz     :     0.018218
      dx2y2   :     0.009441
      dxy     :     0.011275
  2 O s       :     3.433414  s :     3.433414
      pz      :     1.625000  p :     4.624364
      px      :     1.429592
      py      :     1.569773
      dz2     :     0.002411  d :     0.024858
      dxz     :     0.008376
      dyz     :     0.006022
      dx2y2   :     0.003647
      dxy     :     0.004402
  3 H s       :     0.913538  s :     0.913538
      pz      :     0.036402  p :     0.070549
      px      :     0.014633
      py      :     0.019514
  4 C s       :     2.861137  s :     2.861137
      pz      :     0.979799  p :     2.970380
      px      :     1.013901
      py      :     0.976680
      dz2     :     0.049884  d :     0.210758
      dxz     :     0.065763
      dyz     :     0.050379
      dx2y2   :     0.023944
      dxy     :     0.020788
  5 H s       :     0.927683  s :     0.927683
      pz      :     0.019028  p :     0.069226
      px      :     0.032066
      py      :     0.018133
  6 C s       :     2.896353  s :     2.896353
      pz      :     1.056378  p :     3.229089
      px      :     1.075849
      py      :     1.096861
      dz2     :     0.020932  d :     0.076224
      dxz     :     0.020763
      dyz     :     0.014881
      dx2y2   :     0.007290
      dxy     :     0.012358
  7 O s       :     3.574105  s :     3.574105
      pz      :     1.465001  p :     4.826488
      px      :     1.729745
      py      :     1.631742
      dz2     :     0.009575  d :     0.023385
      dxz     :     0.004857
      dyz     :     0.007053
      dx2y2   :     0.000908
      dxy     :     0.000992
  8 C s       :     2.856370  s :     2.856370
      pz      :     1.033259  p :     2.965209
      px      :     0.916214
      py      :     1.015736
      dz2     :     0.034694  d :     0.167916
      dxz     :     0.045337
      dyz     :     0.028984
      dx2y2   :     0.032235
      dxy     :     0.026666
  9 H s       :     0.920347  s :     0.920347
      pz      :     0.016916  p :     0.070625
      px      :     0.024616
      py      :     0.029093
 10 C s       :     2.870106  s :     2.870106
      pz      :     1.045615  p :     3.225898
      px      :     1.080029
      py      :     1.100255
      dz2     :     0.017180  d :     0.080458
      dxz     :     0.019690
      dyz     :     0.012724
      dx2y2   :     0.014243
      dxy     :     0.016621
 11 H s       :     0.912633  s :     0.912633
      pz      :     0.016717  p :     0.065586
      px      :     0.022822
      py      :     0.026048
 12 H s       :     0.724414  s :     0.724414
      pz      :     0.057377  p :     0.172192
      px      :     0.048069
      py      :     0.066746


                      *****************************
                      * MAYER POPULATION ANALYSIS *
                      *****************************

  NA   - Mulliken gross atomic population
  ZA   - Total nuclear charge
  QA   - Mulliken gross atomic charge
  VA   - Mayer's total valence
  BVA  - Mayer's bonded valence
  FA   - Mayer's free valence

  ATOM       NA         ZA         QA         VA         BVA        FA
  0 C      6.0301     6.0000    -0.0301     3.7581     3.7581    -0.0000
  1 C      6.1638     6.0000    -0.1638     3.6843     3.6843    -0.0000
  2 O      8.2236     8.0000    -0.2236     2.2254     2.2254     0.0000
  3 H      1.0430     1.0000    -0.0430     0.9918     0.9918     0.0000
  4 C      5.9007     6.0000     0.0993     4.1896     4.1896    -0.0000
  5 H      1.0643     1.0000    -0.0643     0.9994     0.9994    -0.0000
  6 C      6.2306     6.0000    -0.2306     3.6057     3.6057    -0.0000
  7 O      8.4492     8.0000    -0.4492     2.0714     2.0714     0.0000
  8 C      5.8687     6.0000     0.1313     3.9073     3.9073     0.0000
  9 H      1.0657     1.0000    -0.0657     1.0128     1.0128    -0.0000
 10 C      6.1376     6.0000    -0.1376     3.7425     3.7425     0.0000
 11 H      1.0188     1.0000    -0.0188     0.9742     0.9742    -0.0000
 12 H      0.8041     1.0000     0.1959     1.0034     1.0034     0.0000

  Mayer bond orders larger than 0.100000
B(  0-C ,  1-C ) :   1.3952 B(  0-C , 10-C ) :   1.3114 B(  0-C , 11-H ) :   0.9694 
B(  1-C ,  4-C ) :   1.1668 B(  1-C ,  5-H ) :   0.9673 B(  2-O ,  8-C ) :   1.1581 
B(  2-O , 12-H ) :   0.9541 B(  3-H , 10-C ) :   0.9841 B(  4-C ,  6-C ) :   1.1394 
B(  4-C ,  7-O ) :   1.7885 B(  6-C ,  8-C ) :   1.3204 B(  6-C ,  9-H ) :   0.9664 
B(  8-C , 10-C ) :   1.3060 

-------
TIMINGS
-------

Total SCF time: 0 days 0 hours 0 min 9 sec 

Total time                  ....       9.188 sec
Sum of individual times     ....       8.043 sec  ( 87.5%)

Fock matrix formation       ....       7.031 sec  ( 76.5%)
  Split-RI-J                ....       1.008 sec  ( 14.3% of F)
  XC integration            ....       3.729 sec  ( 53.0% of F)
    Basis function eval.    ....       1.327 sec  ( 35.6% of XC)
    Density eval.           ....       0.670 sec  ( 18.0% of XC)
    XC-Functional eval.     ....       0.330 sec  (  8.9% of XC)
    XC-Potential eval.      ....       0.535 sec  ( 14.3% of XC)
Diagonalization             ....       0.003 sec  (  0.0%)
Density matrix formation    ....       0.002 sec  (  0.0%)
Population analysis         ....       0.227 sec  (  2.5%)
Initial guess               ....       0.005 sec  (  0.1%)
Orbital Transformation      ....       0.000 sec  (  0.0%)
Orbital Orthonormalization  ....       0.003 sec  (  0.0%)
DIIS solution               ....       0.000 sec  (  0.0%)
SOSCF solution              ....       0.066 sec  (  0.7%)
Grid generation             ....       0.709 sec  (  7.7%)

Maximum memory used throughout the entire SCF-calculation: 37.8 MB


-------------------------------------------------------------------------------
                          DFT DISPERSION CORRECTION                            
                                                                               
                              DFTD3 V3.1  Rev 1                                
                          USING Becke-Johnson damping                          
-------------------------------------------------------------------------------
The PBE functional is recognized
Active option DFTDOPT                   ...         4   

molecular C6(AA) [au] = 2083.141923 


            DFT-D V3
 parameters
 s6 scaling factor         :     1.0000 
 a1 scaling factor         :     0.4289 
 s8 scaling factor         :     0.7875 
 a2 scaling factor         :     4.4407 
 ad hoc parameters k1-k3   :    16.0000     1.3333    -4.0000 

 Edisp/kcal,au: -7.926667181630  -0.012631946869 
 E6   /kcal   :  -5.503933046 
 E8   /kcal   :  -2.422734135 
 % E8         :  30.564347915 

-------------------------   ----------------
Dispersion correction           -0.012631947
-------------------------   ----------------


-------------------------   --------------------
FINAL SINGLE POINT ENERGY      -381.504943246392
-------------------------   --------------------

                                *** OPTIMIZATION RUN DONE ***

                            ***************************************
                            *     ORCA property calculations      *
                            ***************************************

                                    ---------------------
                                    Active property flags
                                    ---------------------
   (+) Dipole Moment


------------------------------------------------------------------------------
                       ORCA ELECTRIC PROPERTIES CALCULATION
------------------------------------------------------------------------------

Dipole Moment Calculation                       ... on
Quadrupole Moment Calculation                   ... off
Polarizability Calculation                      ... off
GBWName                                         ... inp.gbw
Electron density                                ... inp.scfp
The origin for moment calculation is the CENTER OF MASS  = (-13.996982, -8.959181  2.521519)

-------------
DIPOLE MOMENT
-------------
                                X             Y             Z
Electronic contribution:     -1.34377      -1.31175      -0.57966
Nuclear contribution   :      0.06992       1.43834       2.51174
                        -----------------------------------------
Total Dipole Moment    :     -1.27384       0.12659       1.93208
                        -----------------------------------------
Magnitude (a.u.)       :      2.31768
Magnitude (Debye)      :      5.89107



--------------------
Rotational spectrum 
--------------------
 
Rotational constants in cm-1:     0.124891     0.061224     0.041084 
Rotational constants in MHz :  3744.142921  1835.436519  1231.660180 

 Dipole components along the rotational axes: 
x,y,z [a.u.] :     2.314487    -0.121619    -0.000310 
x,y,z [Debye]:     5.882958    -0.309131    -0.000789 

 

Timings for individual modules:

Sum of individual times         ...      157.050 sec (=   2.618 min)
GTO integral calculation        ...        5.778 sec (=   0.096 min)   3.7 %
SCF iterations                  ...      116.202 sec (=   1.937 min)  74.0 %
SCF Gradient evaluation         ...       34.244 sec (=   0.571 min)  21.8 %
Geometry relaxation             ...        0.826 sec (=   0.014 min)   0.5 %
                             ****ORCA TERMINATED NORMALLY****
TOTAL RUN TIME: 0 days 0 hours 2 minutes 41 seconds 472 msec
