 Entering Gaussian System
 *********************************************
 Gaussian 98:
 frequency output generated by the xtb code
 *********************************************
                         Standard orientation:
 --------------------------------------------------------------------
  Center     Atomic     Atomic              Coordinates (Angstroms)
  Number     Number      Type              X           Y           Z
 --------------------------------------------------------------------
    1          6             0       -5.859814   -3.979096    1.215673
    2          6             0       -6.730222   -5.290893    0.992474
    3          8             0       -6.731073   -3.010838    1.604052
    4          1             0       -5.076142   -4.174662    1.980306
    5          1             0       -5.330925   -3.717282    0.272092
    6          1             0       -6.364462   -6.093547    1.674455
    7          8             0       -8.016312   -4.946255    1.239645
    8          1             0       -6.577292   -5.664024   -0.046405
    9          1             0       -7.693445   -3.757411    1.523567
 --------------------------------------------------------------------
     1 basis functions        1 primitive gaussians
     1 alpha electrons        1 beta electrons
 
 Harmonic frequencies (cm**-1), IR intensities (km*mol⁻¹),
 Raman scattering activities (A**4/amu), Raman depolarization ratios,
 reduced masses (AMU), force constants (mDyne/A) and normal coordinates:
                      1                      2                      3
                        a                      a                      a 
 Frequencies --   118.4046               399.6345               673.6292
 Red. masses --     7.9436                 4.2388                15.6078
 Frc consts  --     0.0000                 0.0000                 0.0000
 IR Inten    --     0.0068              1932.7997                28.9604
 Raman Activ --     0.0000                 0.0000                 0.0000
 Depolar     --     0.0000                 0.0000                 0.0000
 Atom AN      X      Y      Z        X      Y      Z        X      Y      Z
   1   6     0.05  -0.08   0.33     0.20  -0.17  -0.07    -0.08   0.12   0.05
   2   6    -0.04   0.08  -0.33    -0.27   0.10   0.06    -0.07  -0.03   0.00
   3   8    -0.05   0.10  -0.36    -0.14   0.09   0.04     0.47   0.52   0.08
   4   1    -0.18  -0.08   0.28    -0.02   0.06   0.02    -0.01  -0.05  -0.01
   5   1     0.25  -0.06   0.23    -0.01   0.06   0.02    -0.01  -0.04  -0.01
   6   1     0.05  -0.13  -0.32     0.07   0.01  -0.00     0.02   0.02  -0.00
   7   8     0.04  -0.10   0.37     0.07  -0.24  -0.07    -0.32  -0.58  -0.11
   8   1    -0.12   0.26  -0.20     0.07   0.01  -0.01     0.02   0.02   0.00
   9   1    -0.00  -0.00  -0.00     0.45   0.71   0.14    -0.10  -0.06  -0.00
                      4                      5                      6
                        a                      a                      a 
 Frequencies --   727.2433               856.5132               857.1220
 Red. masses --    12.5821                 9.9694                 2.8969
 Frc consts  --     0.0000                 0.0000                 0.0000
 IR Inten    --     3.4494                 1.0578                 6.3923
 Raman Activ --     0.0000                 0.0000                 0.0000
 Depolar     --     0.0000                 0.0000                 0.0000
 Atom AN      X      Y      Z        X      Y      Z        X      Y      Z
   1   6     0.45   0.18  -0.02    -0.40  -0.47  -0.01    -0.16  -0.07  -0.23
   2   6    -0.03   0.46   0.12     0.26   0.56   0.17     0.04   0.18  -0.19
   3   8     0.01  -0.44  -0.12     0.08  -0.04  -0.04     0.03  -0.01   0.07
   4   1     0.12   0.05   0.01    -0.01  -0.09  -0.09    -0.33  -0.33   0.17
   5   1     0.15   0.07   0.00    -0.18  -0.20  -0.07     0.33   0.14   0.21
   6   1     0.00   0.16   0.05     0.08   0.06  -0.06     0.12   0.36   0.29
   7   8    -0.43  -0.19   0.01     0.05  -0.05  -0.04     0.04  -0.03   0.07
   8   1    -0.00   0.12   0.05     0.13   0.25   0.01    -0.02  -0.40   0.12
   9   1    -0.06  -0.10  -0.02    -0.05   0.05  -0.01     0.00  -0.02   0.12
                      7                      8                      9
                        a                      a                      a 
 Frequencies --  1105.6861              1120.7449              1130.5369
 Red. masses --     1.6212                 6.7865                13.1586
 Frc consts  --     0.0000                 0.0000                 0.0000
 IR Inten    --   105.9763                 9.5803               287.0020
 Raman Activ --     0.0000                 0.0000                 0.0000
 Depolar     --     0.0000                 0.0000                 0.0000
 Atom AN      X      Y      Z        X      Y      Z        X      Y      Z
   1   6    -0.00   0.01  -0.03    -0.12   0.19  -0.42     0.29  -0.37  -0.23
   2   6    -0.00   0.00  -0.00    -0.03  -0.10   0.47     0.50  -0.11  -0.00
   3   8     0.02  -0.04   0.14     0.07  -0.09   0.09    -0.29   0.33   0.15
   4   1    -0.02  -0.08  -0.03    -0.30  -0.12   0.15     0.01   0.04   0.02
   5   1     0.02   0.09   0.01     0.32   0.03   0.10     0.13   0.04   0.04
   6   1     0.08   0.04  -0.02     0.06  -0.26  -0.21    -0.02  -0.12  -0.07
   7   8     0.02  -0.04   0.13     0.06   0.01  -0.14    -0.43   0.11   0.06
   8   1    -0.08  -0.04  -0.02    -0.08   0.35  -0.05    -0.05  -0.02  -0.01
   9   1    -0.12   0.25  -0.92    -0.00  -0.00   0.03     0.03  -0.03  -0.01
                     10                     11                     12
                        a                      a                      a 
 Frequencies --  1206.6088              1207.6614              1227.6694
 Red. masses --     1.6309                 7.8568                 2.7528
 Frc consts  --     0.0000                 0.0000                 0.0000
 IR Inten    --     2.8939                93.8995                23.5992
 Raman Activ --     0.0000                 0.0000                 0.0000
 Depolar     --     0.0000                 0.0000                 0.0000
 Atom AN      X      Y      Z        X      Y      Z        X      Y      Z
   1   6     0.07  -0.02   0.00     0.31  -0.08  -0.04     0.01   0.05  -0.21
   2   6    -0.03   0.02   0.04    -0.23   0.24   0.11    -0.05   0.07  -0.18
   3   8    -0.07   0.08  -0.11    -0.27   0.24   0.11    -0.01  -0.01   0.15
   4   1     0.09  -0.55  -0.21     0.06  -0.27  -0.08    -0.15   0.30   0.17
   5   1    -0.08   0.45   0.09     0.04  -0.35  -0.10     0.18  -0.41  -0.07
   6   1    -0.44  -0.15   0.04    -0.16  -0.04  -0.00    -0.52  -0.07   0.11
   7   8     0.06  -0.04   0.09     0.35  -0.13  -0.11     0.06  -0.06   0.15
   8   1     0.38   0.13   0.01    -0.41  -0.09   0.02     0.47   0.02   0.02
   9   1    -0.02  -0.04  -0.00    -0.13  -0.21  -0.03    -0.03   0.00  -0.10
                     13                     14                     15
                        a                      a                      a 
 Frequencies --  1307.7894              1377.7105              1524.8064
 Red. masses --     2.8445                 5.6212                 2.1309
 Frc consts  --     0.0000                 0.0000                 0.0000
 IR Inten    --     3.3619               641.3321                31.2176
 Raman Activ --     0.0000                 0.0000                 0.0000
 Depolar     --     0.0000                 0.0000                 0.0000
 Atom AN      X      Y      Z        X      Y      Z        X      Y      Z
   1   6     0.13   0.16   0.03     0.11  -0.38  -0.12    -0.24   0.05   0.05
   2   6    -0.07  -0.19  -0.04    -0.41  -0.06   0.04     0.12  -0.14  -0.05
   3   8    -0.15   0.04   0.04    -0.04   0.16   0.05    -0.04  -0.01   0.00
   4   1     0.01  -0.43  -0.11     0.11   0.32   0.00     0.40   0.02  -0.38
   5   1     0.01  -0.45  -0.13     0.13   0.28   0.12     0.49  -0.14   0.21
   6   1     0.45   0.18  -0.01     0.25   0.23   0.09    -0.17   0.18   0.28
   7   8    -0.13   0.12   0.04     0.16   0.02  -0.01     0.00  -0.03  -0.01
   8   1     0.41   0.17  -0.02     0.24   0.26  -0.03    -0.21   0.28  -0.12
   9   1     0.03   0.00  -0.00    -0.19  -0.30  -0.06     0.09   0.14   0.02
                     16                     17                     18
                        a                      a                      a 
 Frequencies --  1529.7350              1712.5041              2592.8063
 Red. masses --     1.8474                 1.2470                 1.8792
 Frc consts  --     0.0000                 0.0000                 0.0000
 IR Inten    --    69.4663                59.3407                78.6505
 Raman Activ --     0.0000                 0.0000                 0.0000
 Depolar     --     0.0000                 0.0000                 0.0000
 Atom AN      X      Y      Z        X      Y      Z        X      Y      Z
   1   6    -0.14   0.01   0.02     0.10  -0.02  -0.02     0.02  -0.03   0.11
   2   6    -0.12   0.18   0.06     0.04  -0.06  -0.02    -0.03   0.06  -0.25
   3   8    -0.02   0.01   0.01     0.01  -0.04  -0.01    -0.00   0.00   0.00
   4   1     0.29   0.07  -0.25     0.04   0.00  -0.02    -0.21   0.04  -0.19
   5   1     0.35  -0.03   0.16     0.04  -0.01   0.00     0.15   0.08  -0.25
   6   1     0.17  -0.32  -0.42     0.02  -0.03  -0.03     0.20  -0.47   0.37
   7   8    -0.02   0.02   0.01     0.04   0.01  -0.00    -0.00   0.00  -0.00
   8   1     0.24  -0.47   0.17     0.03  -0.04   0.01    -0.08   0.23   0.54
   9   1     0.02  -0.05  -0.02    -0.83   0.48   0.24    -0.00   0.00  -0.01
                     19                     20                     21
                        a                      a                      a 
 Frequencies --  2643.4374              2705.7637              2736.9934
 Red. masses --     1.9924                 1.3723                 1.3553
 Frc consts  --     0.0000                 0.0000                 0.0000
 IR Inten    --   568.1590               127.2904               302.8467
 Raman Activ --     0.0000                 0.0000                 0.0000
 Depolar     --     0.0000                 0.0000                 0.0000
 Atom AN      X      Y      Z        X      Y      Z        X      Y      Z
   1   6     0.03  -0.07   0.26    -0.06  -0.02  -0.00    -0.16  -0.03   0.01
   2   6     0.02  -0.04   0.13     0.03  -0.15  -0.05    -0.02   0.05   0.02
   3   8    -0.00   0.00   0.00    -0.02   0.01   0.00    -0.03   0.02   0.01
   4   1    -0.42   0.09  -0.38     0.16  -0.05   0.19     0.43  -0.13   0.50
   5   1     0.32   0.15  -0.53     0.08   0.05  -0.20     0.24   0.15  -0.56
   6   1    -0.10   0.22  -0.18    -0.19   0.41  -0.44     0.07  -0.16   0.17
   7   8     0.00  -0.00  -0.00     0.04  -0.02  -0.01    -0.01   0.00   0.00
   8   1     0.04  -0.10  -0.25    -0.07   0.17   0.65     0.03  -0.06  -0.24
   9   1     0.01  -0.01   0.03     0.03   0.04   0.01     0.01   0.02   0.00
