      -----------------------------------------------------------      
     |                   =====================                   |     
     |                           x T B                           |     
     |                   =====================                   |     
     |                         S. Grimme                         |     
     |          Mulliken Center for Theoretical Chemistry        |     
     |                    University of Bonn                     |     
      -----------------------------------------------------------      

   * xtb version 6.7.1 (edcfbbe) compiled by 'albert@albert-system' on 2024-07-22

   xtb is free software: you can redistribute it and/or modify it under
   the terms of the GNU Lesser General Public License as published by
   the Free Software Foundation, either version 3 of the License, or
   (at your option) any later version.
   
   xtb is distributed in the hope that it will be useful,
   but WITHOUT ANY WARRANTY; without even the implied warranty of
   MERCHANTABILITY or FITNESS FOR A PARTICULAR PURPOSE.  See the
   GNU Lesser General Public License for more details.
   
   Cite this work as:
   * C. Bannwarth, E. Caldeweyher, S. Ehlert, A. Hansen, P. Pracht,
     J. Seibert, S. Spicher, S. Grimme, WIREs Comput. Mol. Sci., 2020, 11,
     e01493. DOI: 10.1002/wcms.1493
   
   for GFN2-xTB:
   * C. Bannwarth, S. Ehlert and S. Grimme., J. Chem. Theory Comput., 2019,
     15, 1652-1671. DOI: 10.1021/acs.jctc.8b01176
   for GFN1-xTB:
   * S. Grimme, C. Bannwarth, P. Shushkov, J. Chem. Theory Comput., 2017,
     13, 1989-2009. DOI: 10.1021/acs.jctc.7b00118
   for GFN0-xTB:
   * P. Pracht, E. Caldeweyher, S. Ehlert, S. Grimme, ChemRxiv, 2019, preprint.
     DOI: 10.26434/chemrxiv.8326202.v1
   for GFN-FF:
   * S. Spicher and S. Grimme, Angew. Chem. Int. Ed., 2020, 59, 15665-15673.
     DOI: 10.1002/anie.202004239
   
   for ALPB and GBSA implicit solvation:
   * S. Ehlert, M. Stahn, S. Spicher, S. Grimme, J. Chem. Theory Comput.,
     2021, 17, 4250-4261. DOI: 10.1021/acs.jctc.1c00471
   
   for ddCOSMO and CPCM-X implicit solvation:
   * M. Stahn, S. Ehlert, S. Grimme, J. Phys. Chem. A,
     2023, XX, XXXX-XXXX. DOI: 10.1021/acs.jpca.3c04382
   
   for DFT-D4:
   * E. Caldeweyher, C. Bannwarth and S. Grimme, J. Chem. Phys., 2017,
     147, 034112. DOI: 10.1063/1.4993215
   * E. Caldeweyher, S. Ehlert, A. Hansen, H. Neugebauer, S. Spicher,
     C. Bannwarth and S. Grimme, J. Chem. Phys., 2019, 150, 154122.
     DOI: 10.1063/1.5090222
   * E. Caldeweyher, J.-M. Mewes, S. Ehlert and S. Grimme, Phys. Chem. Chem. Phys.
     2020, 22, 8499-8512. DOI: 10.1039/D0CP00502A
   
   for sTDA-xTB:
   * S. Grimme and C. Bannwarth, J. Chem. Phys., 2016, 145, 054103.
     DOI: 10.1063/1.4959605
   
   in the mass-spec context:
   * V. Asgeirsson, C. Bauer and S. Grimme, Chem. Sci., 2017, 8, 4879.
     DOI: 10.1039/c7sc00601b
   * J. Koopman and S. Grimme, ACS Omega 2019, 4, 12, 15120-15133.
     DOI: 10.1021/acsomega.9b02011
   
   for metadynamics refer to:
   * S. Grimme, J. Chem. Theory Comput., 2019, 155, 2847-2862
     DOI: 10.1021/acs.jctc.9b00143
   
   for SPH calculations refer to:
   * S. Spicher and S. Grimme, J. Chem. Theory Comput., 2021, 17, 1701-1714
     DOI: 10.1021/acs.jctc.0c01306
   
   for ONIOM refer to:
   * C. Plett, A. Katbashev, S. Ehlert, S. Grimme, M. Bursch,
     Phys. Chem. Chem. Phys., 2023, 25, 17860-17868. DOI: 10.1039/D3CP02178E
   
   for DIPRO refer to:
   * J. Kohn, N. Gildemeister, S. Grimme, D. Fazzi, A. Hansen,
     J. Chem. Phys., 2023, just accepted.
   
   for PTB refer to:
   * S. Grimme, M. Mueller, A. Hansen, J. Chem. Phys., 2023, 158, 124111.
     DOI: 10.1063/5.0137838
   
   with help from (in alphabetical order)
   P. Atkinson, C. Bannwarth, F. Bohle, G. Brandenburg, E. Caldeweyher
   M. Checinski, S. Dohm, S. Ehlert, S. Ehrlich, I. Gerasimov, C. Hölzer
   A. Katbashev, J. Kohn, J. Koopman, C. Lavigne, S. Lehtola, F. März, M. Müller,
   F. Musil, H. Neugebauer, J. Pisarek, C. Plett, P. Pracht, F. Pultar,
   J. Seibert, P. Shushkov, S. Spicher, M. Stahn, M. Steiner, T. Strunk,
   J. Stückrath, T. Rose, and J. Unsleber
   
 * started run on 2025/10/18 at 02:53:35.308     
   ID    Z sym.   atoms
    1    6 C      1, 2
    2    8 O      3, 7
    3    1 H      4-6, 8, 9

           -------------------------------------------------
          |                Calculation Setup                |
           -------------------------------------------------

          program call               : xtb xyz.xyz --charge -1 --ohess
          hostname                   : m003
          coordinate file            : xyz.xyz
          omp threads                :                     2


           -------------------------------------------------
          |                 G F N 2 - x T B                 |
           -------------------------------------------------

        Reference                      10.1021/acs.jctc.8b01176
      * Hamiltonian:
        H0-scaling (s, p, d)           1.850000    2.230000    2.230000
        zeta-weighting                 0.500000
      * Dispersion:
        s8                             2.700000
        a1                             0.520000
        a2                             5.000000
        s9                             5.000000
      * Repulsion:
        kExp                           1.500000    1.000000
        rExp                           1.000000
      * Coulomb:
        alpha                          2.000000
        third order                    shell-resolved
        anisotropic                    true
        a3                             3.000000
        a5                             4.000000
        cn-shift                       1.200000
        cn-exp                         4.000000
        max-rad                        5.000000


          ...................................................
          :                      SETUP                      :
          :.................................................:
          :  # basis functions                  21          :
          :  # atomic orbitals                  21          :
          :  # shells                           13          :
          :  # electrons                        26          :
          :  max. iterations                   250          :
          :  Hamiltonian                  GFN2-xTB          :
          :  restarted?                      false          :
          :  GBSA solvation                  false          :
          :  PC potential                    false          :
          :  electronic temp.          300.0000000     K    :
          :  accuracy                    1.0000000          :
          :  -> integral cutoff          0.2500000E+02      :
          :  -> integral neglect         0.1000000E-07      :
          :  -> SCF convergence          0.1000000E-05 Eh   :
          :  -> wf. convergence          0.1000000E-03 e    :
          :  Broyden damping             0.4000000          :
          :  net charge                         -1          :
          :  unpaired electrons                  0          :
          ...................................................

 iter      E             dE          RMSdq      gap      omega  full diag
   1    -15.1480247 -0.151480E+02  0.510E+00   12.35       0.0  T
   2    -15.2184675 -0.704428E-01  0.245E+00   10.41       1.0  T
   3    -15.2208500 -0.238248E-02  0.122E+00    9.82       1.0  T
   4    -15.2211294 -0.279475E-03  0.286E-01    9.48       1.0  T
   5    -15.2212313 -0.101883E-03  0.859E-02    9.68       1.0  T
   6    -15.2212434 -0.120477E-04  0.371E-02    9.69       1.0  T
   7    -15.2212443 -0.967666E-06  0.910E-03    9.69       3.7  T
   8    -15.2212444 -0.727106E-07  0.341E-03    9.69       9.8  T
   9    -15.2212445 -0.322270E-07  0.129E-03    9.69      25.8  T
  10    -15.2212445 -0.880778E-08  0.217E-04    9.69     154.0  T
  11    -15.2212445 -0.304720E-09  0.606E-05    9.69     550.4  T

   *** convergence criteria satisfied after 11 iterations ***

         #    Occupation            Energy/Eh            Energy/eV
      -------------------------------------------------------------
         1        2.0000           -0.4926173             -13.4048
       ...           ...                  ...                  ...
         7        2.0000           -0.3190555              -8.6819
         8        2.0000           -0.2786587              -7.5827
         9        2.0000           -0.2618392              -7.1250
        10        2.0000           -0.2285506              -6.2192
        11        2.0000           -0.2239658              -6.0944
        12        2.0000           -0.1080011              -2.9389
        13        2.0000           -0.1030672              -2.8046 (HOMO)
        14                          0.2530347               6.8854 (LUMO)
        15                          0.3009434               8.1891
        16                          0.3330649               9.0632
        17                          0.3452553               9.3949
        18                          0.3626909               9.8693
       ...                                ...                  ...
        21                          0.5576582              15.1747
      -------------------------------------------------------------
                  HL-Gap            0.3561019 Eh            9.6900 eV
             Fermi-level            0.0749837 Eh            2.0404 eV

 SCC (total)                   0 d,  0 h,  0 min,  0.031 sec
 SCC setup                      ...        0 min,  0.000 sec (  0.477%)
 Dispersion                     ...        0 min,  0.000 sec (  0.194%)
 classical contributions        ...        0 min,  0.000 sec (  0.084%)
 integral evaluation            ...        0 min,  0.000 sec (  1.348%)
 iterations                     ...        0 min,  0.030 sec ( 95.312%)
 molecular gradient             ...        0 min,  0.001 sec (  2.199%)
 printout                       ...        0 min,  0.000 sec (  0.300%)

         :::::::::::::::::::::::::::::::::::::::::::::::::::::
         ::                     SUMMARY                     ::
         :::::::::::::::::::::::::::::::::::::::::::::::::::::
         :: total energy             -15.113918979145 Eh    ::
         :: gradient norm              0.051842508550 Eh/a0 ::
         :: HOMO-LUMO gap              9.690026661228 eV    ::
         ::.................................................::
         :: SCC energy               -15.221243833099 Eh    ::
         :: -> isotropic ES            0.221026924457 Eh    ::
         :: -> anisotropic ES         -0.000332390912 Eh    ::
         :: -> anisotropic XC         -0.005022294496 Eh    ::
         :: -> dispersion             -0.004440443563 Eh    ::
         :: repulsion energy           0.107324853954 Eh    ::
         :: add. restraining           0.000000000000 Eh    ::
         :: total charge              -1.000000000000 e     ::
         :::::::::::::::::::::::::::::::::::::::::::::::::::::

      ----------------------------------------------------------- 
     |                   =====================                   |
     |                        A N C O P T                        |
     |                   =====================                   |
     |               Approximate Normal Coordinate               |
     |                Rational Function Optimizer                |
      ----------------------------------------------------------- 
      ----------------------------------------------------------- 
     |                   =====================                   |
     |                        A N C O P T                        |
     |                   =====================                   |
     |               Approximate Normal Coordinate               |
     |                Rational Function Optimizer                |
      ----------------------------------------------------------- 

          ...................................................
          :                      SETUP                      :
          :.................................................:
          :   optimization level            normal          :
          :   max. optcycles                   200          :
          :   ANC micro-cycles                  20          :
          :   degrees of freedom                21          :
          :.................................................:
          :   RF solver                   davidson          :
          :   write xtbopt.log                true          :
          :   linear?                        false          :
          :   energy convergence         0.5000000E-05 Eh   :
          :   grad. convergence          0.1000000E-02 Eh/α :
          :   maxmium RF displ.          1.0000000          :
          :   Hlow (freq-cutoff)         0.1000000E-01      :
          :   Hmax (freq-cutoff)         5.0000000          :
          :   S6 in model hess.         20.0000000          :
          ...................................................

generating ANC from exact Hessian ...
Using Lindh-Hessian (1995)
 Shifting diagonal of input Hessian by   0.000000000000000E+000
 Lowest  eigenvalues of input Hessian
    0.000000    0.000000    0.000000    0.000000    0.000000    0.000000
    0.012269    0.026043    0.032995    0.043525    0.051745    0.065859
    0.084490    0.104850    0.128714    0.144203    0.175867    0.199121
 Highest eigenvalues
    1.041929    1.100676    1.122963    1.217482    1.330760    1.688183
 

........................................................................
.............................. CYCLE    1 ..............................
........................................................................

 iter      E             dE          RMSdq      gap      omega  full diag
   1    -15.2212445 -0.152212E+02  0.132E-05    9.69       0.0  T
   2    -15.2212445 -0.655476E-12  0.601E-06    9.69    5545.7  T
   3    -15.2212445 -0.301981E-13  0.325E-06    9.69   10246.0  T
     SCC iter.                  ...        0 min,  0.000 sec
     gradient                   ...        0 min,  0.001 sec
 * total energy  :   -15.1139190 Eh     change       -0.1348610E-10 Eh
   gradient norm :     0.0518432 Eh/α   predicted     0.0000000E+00 (-100.00%)
   displ. norm   :     0.3314884 α      lambda       -0.8327689E-02
   maximum displ.:     0.2472886 α      in ANC's #2, #7, #1, ...

........................................................................
.............................. CYCLE    2 ..............................
........................................................................

 iter      E             dE          RMSdq      gap      omega  full diag
   1    -15.2197514 -0.152198E+02  0.391E-01    9.84       0.0  T
   2    -15.2198704 -0.119037E-03  0.222E-01    9.96       1.0  T
   3    -15.2198772 -0.677183E-05  0.698E-02    9.99       1.0  T
   4    -15.2198833 -0.608825E-05  0.201E-02    9.99       1.7  T
   5    -15.2198839 -0.643063E-06  0.535E-03    9.98       6.2  T
   6    -15.2198840 -0.149293E-07  0.259E-03    9.98      12.8  T
   7    -15.2198840 -0.438501E-08  0.567E-04    9.98      58.8  T
   8    -15.2198840 -0.289266E-09  0.144E-04    9.98     232.3  T
     SCC iter.                  ...        0 min,  0.001 sec
     gradient                   ...        0 min,  0.001 sec
 * total energy  :   -15.1191325 Eh     change       -0.5213490E-02 Eh
   gradient norm :     0.0213467 Eh/α   predicted    -0.4621383E-02 ( -11.36%)
   displ. norm   :     0.3661648 α      lambda       -0.3201892E-02
   maximum displ.:     0.2682626 α      in ANC's #2, #1, #4, ...

........................................................................
.............................. CYCLE    3 ..............................
........................................................................

 iter      E             dE          RMSdq      gap      omega  full diag
   1    -15.2166672 -0.152167E+02  0.286E-01   10.11       0.0  T
   2    -15.2167780 -0.110798E-03  0.166E-01   10.23       1.0  T
   3    -15.2167872 -0.921385E-05  0.580E-02   10.28       1.0  T
   4    -15.2167883 -0.109924E-05  0.123E-02   10.28       2.7  T
   5    -15.2167889 -0.562977E-06  0.428E-03   10.27       7.8  T
   6    -15.2167889 -0.882501E-08  0.987E-04   10.27      33.8  T
   7    -15.2167889 -0.776801E-09  0.350E-04   10.27      95.2  T
     SCC iter.                  ...        0 min,  0.001 sec
     gradient                   ...        0 min,  0.001 sec
 * total energy  :   -15.1215060 Eh     change       -0.2373551E-02 Eh
   gradient norm :     0.0226603 Eh/α   predicted    -0.1815592E-02 ( -23.51%)
   displ. norm   :     0.4594580 α      lambda       -0.2916269E-02
   maximum displ.:     0.3657776 α      in ANC's #2, #1, #3, ...

........................................................................
.............................. CYCLE    4 ..............................
........................................................................

 iter      E             dE          RMSdq      gap      omega  full diag
   1    -15.2112204 -0.152112E+02  0.402E-01   10.32       0.0  T
   2    -15.2116576 -0.437149E-03  0.228E-01   10.51       1.0  T
   3    -15.2116908 -0.332809E-04  0.110E-01   10.56       1.0  T
   4    -15.2116931 -0.223897E-05  0.128E-02   10.56       2.6  T
   5    -15.2116933 -0.215250E-06  0.690E-03   10.55       4.8  T
   6    -15.2116933 -0.231733E-07  0.131E-03   10.55      25.4  T
   7    -15.2116933 -0.129620E-08  0.689E-04   10.55      48.3  T
   8    -15.2116933 -0.543867E-09  0.103E-04   10.55     323.2  T
     SCC iter.                  ...        0 min,  0.001 sec
     gradient                   ...        0 min,  0.001 sec
 * total energy  :   -15.1232838 Eh     change       -0.1777798E-02 Eh
   gradient norm :     0.0338871 Eh/α   predicted    -0.1765932E-02 (  -0.67%)
   displ. norm   :     0.2090509 α      lambda       -0.1959983E-02
   maximum displ.:     0.1533427 α      in ANC's #1, #2, #3, ...

........................................................................
.............................. CYCLE    5 ..............................
........................................................................

 iter      E             dE          RMSdq      gap      omega  full diag
   1    -15.2128032 -0.152128E+02  0.175E-01   10.81       0.0  T
   2    -15.2128378 -0.346031E-04  0.993E-02   10.85       1.0  T
   3    -15.2128408 -0.303007E-05  0.402E-02   10.86       1.0  T
   4    -15.2128422 -0.135473E-05  0.115E-02   10.86       2.9  T
   5    -15.2128425 -0.265373E-06  0.366E-03   10.85       9.1  T
   6    -15.2128425 -0.698429E-08  0.804E-04   10.85      41.5  T
   7    -15.2128425 -0.611832E-09  0.410E-04   10.85      81.2  T
     SCC iter.                  ...        0 min,  0.001 sec
     gradient                   ...        0 min,  0.001 sec
 * total energy  :   -15.1247551 Eh     change       -0.1471279E-02 Eh
   gradient norm :     0.0261150 Eh/α   predicted    -0.1022821E-02 ( -30.48%)
   displ. norm   :     0.3049125 α      lambda       -0.2772619E-02
   maximum displ.:     0.1886095 α      in ANC's #1, #2, #14, ...

........................................................................
.............................. CYCLE    6 ..............................
........................................................................

 iter      E             dE          RMSdq      gap      omega  full diag
   1    -15.2174101 -0.152174E+02  0.308E-01   11.27       0.0  T
   2    -15.2176151 -0.205003E-03  0.168E-01   11.38       1.0  T
   3    -15.2176317 -0.166404E-04  0.805E-02   11.42       1.0  T
   4    -15.2176328 -0.103169E-05  0.195E-02   11.42       1.7  T
   5    -15.2176342 -0.143109E-05  0.674E-03   11.41       4.9  T
   6    -15.2176342 -0.207330E-07  0.132E-03   11.41      25.3  T
   7    -15.2176342 -0.164260E-08  0.679E-04   11.41      49.1  T
   8    -15.2176342 -0.215691E-09  0.145E-04   11.41     230.2  T
     SCC iter.                  ...        0 min,  0.001 sec
     gradient                   ...        0 min,  0.001 sec
 * total energy  :   -15.1265646 Eh     change       -0.1809480E-02 Eh
   gradient norm :     0.0165656 Eh/α   predicted    -0.1515196E-02 ( -16.26%)
   displ. norm   :     0.3339146 α      lambda       -0.1414518E-02
   maximum displ.:     0.2325503 α      in ANC's #1, #2, #3, ...

........................................................................
.............................. CYCLE    7 ..............................
........................................................................

 iter      E             dE          RMSdq      gap      omega  full diag
   1    -15.2155326 -0.152155E+02  0.281E-01   11.31       0.0  T
   2    -15.2157033 -0.170739E-03  0.151E-01   11.41       1.0  T
   3    -15.2157154 -0.120691E-04  0.730E-02   11.44       1.0  T
   4    -15.2157164 -0.102809E-05  0.170E-02   11.44       2.0  T
   5    -15.2157175 -0.105688E-05  0.559E-03   11.44       6.0  T
   6    -15.2157175 -0.153684E-07  0.213E-03   11.44      15.7  T
   7    -15.2157175 -0.421027E-08  0.631E-04   11.44      52.8  T
   8    -15.2157175 -0.181066E-09  0.905E-05   11.44     368.5  T
     SCC iter.                  ...        0 min,  0.001 sec
     gradient                   ...        0 min,  0.001 sec
 * total energy  :   -15.1275509 Eh     change       -0.9863403E-03 Eh
   gradient norm :     0.0147926 Eh/α   predicted    -0.7861157E-03 ( -20.30%)
   displ. norm   :     0.2866135 α      lambda       -0.1472295E-02
   maximum displ.:     0.1817257 α      in ANC's #2, #3, #14, ...

........................................................................
.............................. CYCLE    8 ..............................
........................................................................

 iter      E             dE          RMSdq      gap      omega  full diag
   1    -15.2197043 -0.152197E+02  0.335E-01   11.27       0.0  T
   2    -15.2200585 -0.354246E-03  0.189E-01   11.42       1.0  T
   3    -15.2200809 -0.223700E-04  0.904E-02   11.46       1.0  T
   4    -15.2200824 -0.145490E-05  0.120E-02   11.46       2.8  T
   5    -15.2200825 -0.175274E-06  0.631E-03   11.45       5.3  T
   6    -15.2200826 -0.242855E-07  0.143E-03   11.45      23.2  T
   7    -15.2200826 -0.286627E-08  0.721E-04   11.45      46.2  T
   8    -15.2200826 -0.208630E-09  0.643E-05   11.45     518.3  T
     SCC iter.                  ...        0 min,  0.001 sec
     gradient                   ...        0 min,  0.001 sec
 * total energy  :   -15.1279746 Eh     change       -0.4236972E-03 Eh
   gradient norm :     0.0171140 Eh/α   predicted    -0.7966190E-03 (  88.02%)
   displ. norm   :     0.4468579 α      lambda       -0.1844257E-02
   maximum displ.:     0.3408048 α      in ANC's #1, #2, #14, ...

........................................................................
.............................. CYCLE    9 ..............................
........................................................................

 iter      E             dE          RMSdq      gap      omega  full diag
   1    -15.2133203 -0.152133E+02  0.392E-01   11.24       0.0  T
   2    -15.2136827 -0.362401E-03  0.207E-01   11.34       1.0  T
   3    -15.2137057 -0.229659E-04  0.105E-01   11.36       1.0  T
   4    -15.2137091 -0.337789E-05  0.298E-02   11.36       1.1  T
   5    -15.2137117 -0.257103E-05  0.704E-03   11.36       4.7  T
   6    -15.2137117 -0.219802E-07  0.208E-03   11.36      16.1  T
   7    -15.2137117 -0.374370E-08  0.688E-04   11.36      48.4  T
   8    -15.2137117 -0.213733E-09  0.903E-05   11.36     369.2  T
     SCC iter.                  ...        0 min,  0.001 sec
     gradient                   ...        0 min,  0.001 sec
 * total energy  :   -15.1281027 Eh     change       -0.1281081E-03 Eh
   gradient norm :     0.0180177 Eh/α   predicted    -0.1106263E-02 ( 763.54%)
   displ. norm   :     0.2048534 α      lambda       -0.1110473E-02
   maximum displ.:     0.1456352 α      in ANC's #1, #2, #14, ...

........................................................................
.............................. CYCLE   10 ..............................
........................................................................

 iter      E             dE          RMSdq      gap      omega  full diag
   1    -15.2179368 -0.152179E+02  0.200E-01   11.59       0.0  T
   2    -15.2180367 -0.998158E-04  0.108E-01   11.54       1.0  T
   3    -15.2180429 -0.623558E-05  0.507E-02   11.52       1.0  T
   4    -15.2180433 -0.373475E-06  0.100E-02   11.52       3.3  T
   5    -15.2180437 -0.432689E-06  0.371E-03   11.52       9.0  T
   6    -15.2180437 -0.694258E-08  0.104E-03   11.52      32.0  T
   7    -15.2180437 -0.751907E-09  0.356E-04   11.52      93.7  T
   8    -15.2180437 -0.658638E-10  0.452E-05   11.52     738.1  T
     SCC iter.                  ...        0 min,  0.001 sec
     gradient                   ...        0 min,  0.001 sec
 * total energy  :   -15.1286211 Eh     change       -0.5183817E-03 Eh
   gradient norm :     0.0049765 Eh/α   predicted    -0.5785363E-03 (  11.60%)
   displ. norm   :     0.1004018 α      lambda       -0.1261686E-03
   maximum displ.:     0.0785611 α      in ANC's #2, #3, #14, ...

........................................................................
.............................. CYCLE   11 ..............................
........................................................................

 iter      E             dE          RMSdq      gap      omega  full diag
   1    -15.2170847 -0.152171E+02  0.141E-01   11.55       0.0  T
   2    -15.2171975 -0.112820E-03  0.725E-02   11.60       1.0  T
   3    -15.2172041 -0.654487E-05  0.437E-02   11.60       1.0  T
   4    -15.2172044 -0.350173E-06  0.617E-03   11.61       5.4  T
   5    -15.2172045 -0.799859E-07  0.278E-03   11.61      12.0  T
   6    -15.2172045 -0.487250E-08  0.535E-04   11.61      62.3  T
   7    -15.2172045 -0.170264E-09  0.265E-04   11.61     125.9  T
     SCC iter.                  ...        0 min,  0.001 sec
     gradient                   ...        0 min,  0.001 sec
 * total energy  :   -15.1286532 Eh     change       -0.3213528E-04 Eh
   gradient norm :     0.0063129 Eh/α   predicted    -0.6371957E-04 (  98.29%)
   displ. norm   :     0.0785077 α      lambda       -0.1220702E-03
   maximum displ.:     0.0540583 α      in ANC's #1, #2, #14, ...

........................................................................
.............................. CYCLE   12 ..............................
........................................................................

 iter      E             dE          RMSdq      gap      omega  full diag
   1    -15.2176209 -0.152176E+02  0.613E-02   11.63       0.0  T
   2    -15.2176273 -0.632694E-05  0.331E-02   11.63       1.0  T
   3    -15.2176277 -0.411911E-06  0.165E-02   11.63       2.0  T
   4    -15.2176279 -0.198495E-06  0.416E-03   11.63       8.0  T
   5    -15.2176279 -0.317066E-07  0.104E-03   11.63      31.9  T
   6    -15.2176279 -0.590816E-09  0.227E-04   11.63     146.7  T
   7    -15.2176279 -0.258620E-10  0.110E-04   11.63     302.1  T
     SCC iter.                  ...        0 min,  0.001 sec
     gradient                   ...        0 min,  0.001 sec
 * total energy  :   -15.1287369 Eh     change       -0.8361676E-04 Eh
   gradient norm :     0.0040678 Eh/α   predicted    -0.6141120E-04 ( -26.56%)
   displ. norm   :     0.0856668 α      lambda       -0.6713520E-04
   maximum displ.:     0.0482359 α      in ANC's #2, #1, #14, ...

........................................................................
.............................. CYCLE   13 ..............................
........................................................................

 iter      E             dE          RMSdq      gap      omega  full diag
   1    -15.2185021 -0.152185E+02  0.891E-02   11.67       0.0  T
   2    -15.2185326 -0.305111E-04  0.450E-02   11.66       1.0  T
   3    -15.2185344 -0.184549E-05  0.256E-02   11.66       1.3  T
   4    -15.2185345 -0.423539E-07  0.520E-03   11.66       6.4  T
   5    -15.2185346 -0.129803E-06  0.162E-03   11.66      20.5  T
   6    -15.2185346 -0.122000E-08  0.362E-04   11.66      92.0  T
   7    -15.2185346 -0.793108E-10  0.166E-04   11.66     200.9  T
     SCC iter.                  ...        0 min,  0.001 sec
     gradient                   ...        0 min,  0.001 sec
 * total energy  :   -15.1287724 Eh     change       -0.3559168E-04 Eh
   gradient norm :     0.0028630 Eh/α   predicted    -0.3381473E-04 (  -4.99%)
   displ. norm   :     0.0690707 α      lambda       -0.2176801E-04
   maximum displ.:     0.0376657 α      in ANC's #2, #1, #3, ...

........................................................................
.............................. CYCLE   14 ..............................
........................................................................

 iter      E             dE          RMSdq      gap      omega  full diag
   1    -15.2180614 -0.152181E+02  0.627E-02   11.65       0.0  T
   2    -15.2180762 -0.147364E-04  0.335E-02   11.64       1.0  T
   3    -15.2180770 -0.882003E-06  0.180E-02   11.64       1.9  T
   4    -15.2180771 -0.492723E-07  0.188E-03   11.64      17.7  T
   5    -15.2180771 -0.600612E-08  0.104E-03   11.64      32.0  T
   6    -15.2180771 -0.737719E-09  0.212E-04   11.64     157.1  T
   7    -15.2180771 -0.196074E-10  0.472E-05   11.64     706.3  T
     SCC iter.                  ...        0 min,  0.001 sec
     gradient                   ...        0 min,  0.001 sec
 * total energy  :   -15.1287809 Eh     change       -0.8411007E-05 Eh
   gradient norm :     0.0024274 Eh/α   predicted    -0.1093686E-04 (  30.03%)
   displ. norm   :     0.0095961 α      lambda       -0.7853474E-05
   maximum displ.:     0.0081002 α      in ANC's #1, #3, #6, ...

........................................................................
.............................. CYCLE   15 ..............................
........................................................................

 iter      E             dE          RMSdq      gap      omega  full diag
   1    -15.2184452 -0.152184E+02  0.102E-02   11.64       0.0  T
   2    -15.2184454 -0.191041E-06  0.618E-03   11.64       5.4  T
   3    -15.2184454 -0.116628E-07  0.276E-03   11.64      12.1  T
   4    -15.2184454 -0.676799E-08  0.640E-04   11.64      52.1  T
   5    -15.2184454 -0.633786E-09  0.165E-04   11.64     202.2  T
     SCC iter.                  ...        0 min,  0.001 sec
     gradient                   ...        0 min,  0.001 sec
 * total energy  :   -15.1287852 Eh     change       -0.4332096E-05 Eh
   gradient norm :     0.0011141 Eh/α   predicted    -0.3926963E-05 (  -9.35%)
   displ. norm   :     0.0064336 α      lambda       -0.2441430E-05
   maximum displ.:     0.0032200 α      in ANC's #2, #4, #6, ...

........................................................................
.............................. CYCLE   16 ..............................
........................................................................

 iter      E             dE          RMSdq      gap      omega  full diag
   1    -15.2184284 -0.152184E+02  0.120E-02   11.63       0.0  T
   2    -15.2184286 -0.173715E-06  0.644E-03   11.63       5.2  T
   3    -15.2184286 -0.114773E-07  0.308E-03   11.63      10.8  T
   4    -15.2184286 -0.114620E-07  0.562E-04   11.63      59.3  T
   5    -15.2184286 -0.307235E-09  0.204E-04   11.63     163.5  T
     SCC iter.                  ...        0 min,  0.001 sec
     gradient                   ...        0 min,  0.001 sec
 * total energy  :   -15.1287859 Eh     change       -0.6668992E-06 Eh
   gradient norm :     0.0008612 Eh/α   predicted    -0.1219252E-05 (  82.82%)
   displ. norm   :     0.0058922 α      lambda       -0.1879766E-05
   maximum displ.:     0.0032361 α      in ANC's #1, #2, #6, ...

   *** GEOMETRY OPTIMIZATION CONVERGED AFTER 16 ITERATIONS ***

------------------------------------------------------------------------
 total energy gain   :        -0.0148669 Eh       -9.3291 kcal/mol
 total RMSD          :         0.8657913 a0        0.4582 Å
 total power (kW/mol):        -2.4395614 (step)-1145.8380 (real)
------------------------------------------------------------------------

 ANCopt (total)                0 d,  0 h,  0 min,  0.034 sec
 optimizer setup                ...        0 min,  0.000 sec (  0.583%)
 model hessian                  ...        0 min,  0.001 sec (  3.518%)
 ANC generation                 ...        0 min,  0.000 sec (  0.490%)
 coordinate transformation      ...        0 min,  0.000 sec (  0.315%)
 single point calculation       ...        0 min,  0.030 sec ( 89.030%)
 optimization log               ...        0 min,  0.001 sec (  2.025%)
 hessian update                 ...        0 min,  0.000 sec (  0.413%)
 rational function              ...        0 min,  0.001 sec (  1.907%)

================
 final structure:
================
9
 xtb: 6.7.1 (edcfbbe)
C           -5.85979656665319       -3.97912889552320        1.21564542644046
C           -6.73019704412383       -5.29092978883214        0.99244101868854
O           -6.73106256538346       -3.01087554527791        1.60402301507714
H           -5.07612654705699       -4.17469171097426        1.98028090935298
H           -5.33090567748840       -3.71731010523213        0.27206641555915
H           -6.36443581244718       -6.09358313430034        1.67442155401837
O           -8.01628933020399       -4.94629913127716        1.23960818320425
H           -6.57726163113728       -5.66405766139334       -0.04643817178763
H           -7.69342982550568       -3.75745402718952        1.52353364944679
 
 Bond Distances (Angstroems)
 ---------------------------
C1-C2=1.5900         C1-O3=1.3592         C1-H4=1.1122         C1-H5=1.1129         C2-C1=1.5900         C2-H6=1.1150         
C2-O7=1.3542         C2-H8=1.1144         O3-C1=1.3592         O3-H9=1.2207         H4-C1=1.1122         H5-C1=1.1129         
H6-C2=1.1150         O7-C2=1.3542         H8-C2=1.1144         H9-O3=1.2207         
 C  H  Rav=1.1136 sigma=0.0011  Rmin=1.1122  Rmax=1.1150     4
 C  C  Rav=1.5900 sigma=0.0000  Rmin=1.5900  Rmax=1.5900     1
 O  H  Rav=1.2207 sigma=0.0000  Rmin=1.2207  Rmax=1.2207     1
 O  C  Rav=1.3567 sigma=0.0025  Rmin=1.3542  Rmax=1.3592     2
 
 selected bond angles (degree)
 --------------------
O3-C1-C2=106.08                H4-C1-C2=109.70                H4-C1-O3=112.36                H5-C1-C2=109.59                
H5-C1-O3=112.29                H5-C1-H4=106.82                H6-C2-C1=109.18                O7-C2-C1=106.52                
O7-C2-H6=112.53                H8-C2-C1=109.39                H8-C2-H6=106.51                H8-C2-O7=112.69                
H9-O3-C1= 92.91                
 
 selected dihedral angles (degree)
 ---------------------------------
H6-C2-C1-O3=239.74            H6-C2-C1-H4=  1.32            H6-C2-C1-H5=118.30            O7-C2-C1-O3=  1.49            
O7-C2-C1-H4=123.07            O7-C2-C1-H5=240.05            H8-C2-C1-O3=123.55            H8-C2-C1-H4=245.14            
H8-C2-C1-H5=  2.12            H9-O3-C1-C2=358.99            H9-O3-C1-H4=239.13            H9-O3-C1-H5=118.67            
           -------------------------------------------------
          |                Final Singlepoint                |
           -------------------------------------------------

          ...................................................
          :                      SETUP                      :
          :.................................................:
          :  # basis functions                  21          :
          :  # atomic orbitals                  21          :
          :  # shells                           13          :
          :  # electrons                        26          :
          :  max. iterations                   250          :
          :  Hamiltonian                  GFN2-xTB          :
          :  restarted?                      false          :
          :  GBSA solvation                  false          :
          :  PC potential                    false          :
          :  electronic temp.          300.0000000     K    :
          :  accuracy                    1.0000000          :
          :  -> integral cutoff          0.2500000E+02      :
          :  -> integral neglect         0.1000000E-07      :
          :  -> SCF convergence          0.1000000E-05 Eh   :
          :  -> wf. convergence          0.1000000E-03 e    :
          :  Broyden damping             0.4000000          :
          :  net charge                         -1          :
          :  unpaired electrons                  0          :
          ...................................................

 iter      E             dE          RMSdq      gap      omega  full diag
   1    -15.2184286 -0.152184E+02  0.349E-05   11.63       0.0  T
   2    -15.2184286 -0.667910E-12  0.198E-05   11.63    1681.3  T
   3    -15.2184286 -0.161648E-12  0.524E-06   11.63    6362.8  T

   *** convergence criteria satisfied after 3 iterations ***

         #    Occupation            Energy/Eh            Energy/eV
      -------------------------------------------------------------
         1        2.0000           -0.4512185             -12.2783
       ...           ...                  ...                  ...
         7        2.0000           -0.3016434              -8.2081
         8        2.0000           -0.2852661              -7.7625
         9        2.0000           -0.2676022              -7.2818
        10        2.0000           -0.2119108              -5.7664
        11        2.0000           -0.1737429              -4.7278
        12        2.0000           -0.1716781              -4.6716
        13        2.0000           -0.1570790              -4.2743 (HOMO)
        14                          0.2702951               7.3551 (LUMO)
        15                          0.3004583               8.1759
        16                          0.3034420               8.2571
        17                          0.3246198               8.8334
        18                          0.3499034               9.5214
       ...                                ...                  ...
        21                          0.4900932              13.3361
      -------------------------------------------------------------
                  HL-Gap            0.4273741 Eh           11.6294 eV
             Fermi-level            0.0566081 Eh            1.5404 eV

 SCC (total)                   0 d,  0 h,  0 min,  0.002 sec
 SCC setup                      ...        0 min,  0.000 sec (  4.622%)
 Dispersion                     ...        0 min,  0.000 sec (  1.879%)
 classical contributions        ...        0 min,  0.000 sec (  0.626%)
 integral evaluation            ...        0 min,  0.000 sec ( 20.710%)
 iterations                     ...        0 min,  0.000 sec ( 27.523%)
 molecular gradient             ...        0 min,  0.001 sec ( 39.198%)
 printout                       ...        0 min,  0.000 sec (  3.877%)

         :::::::::::::::::::::::::::::::::::::::::::::::::::::
         ::                     SUMMARY                     ::
         :::::::::::::::::::::::::::::::::::::::::::::::::::::
         :: total energy             -15.128785856943 Eh    ::
         :: gradient norm              0.000868470458 Eh/a0 ::
         :: HOMO-LUMO gap             11.629442349791 eV    ::
         ::.................................................::
         :: SCC energy               -15.218428010438 Eh    ::
         :: -> isotropic ES            0.202452181884 Eh    ::
         :: -> anisotropic ES         -0.000614310664 Eh    ::
         :: -> anisotropic XC         -0.005513034845 Eh    ::
         :: -> dispersion             -0.004445145469 Eh    ::
         :: repulsion energy           0.089642153495 Eh    ::
         :: add. restraining           0.000000000000 Eh    ::
         :: total charge              -1.000000000000 e     ::
         :::::::::::::::::::::::::::::::::::::::::::::::::::::

           ------------------------------------------------- 
          |                Numerical Hessian                |
           ------------------------------------------------- 
step length          :   0.00500
SCC accuracy         :   0.30000
Hessian scale factor :   1.00000
frozen atoms in %    :   0.00000    0
RMS gradient         :   0.00087
estimated CPU  time      0.00 min
estimated wall time      0.00 min

writing file <hessian>.

 projected vibrational frequencies (cm⁻¹)
eigval :       -0.00    -0.00     0.00     0.00     0.00     0.00
eigval :      118.40   399.63   673.63   727.24   856.51   857.12
eigval :     1105.69  1120.74  1130.54  1206.61  1207.66  1227.67
eigval :     1307.79  1377.71  1524.81  1529.74  1712.50  2592.81
eigval :     2643.44  2705.76  2736.99
           -------------------------------------------------
          |                Property Printout                |
           -------------------------------------------------

    * Orbital Energies and Occupations

         #    Occupation            Energy/Eh            Energy/eV
      -------------------------------------------------------------
         1        2.0000           -0.4512185             -12.2783
         2        2.0000           -0.4359593             -11.8631
         3        2.0000           -0.4047192             -11.0130
         4        2.0000           -0.3704181             -10.0796
         5        2.0000           -0.3381000              -9.2002
         6        2.0000           -0.3323855              -9.0447
         7        2.0000           -0.3016434              -8.2081
         8        2.0000           -0.2852660              -7.7625
         9        2.0000           -0.2676022              -7.2818
        10        2.0000           -0.2119108              -5.7664
        11        2.0000           -0.1737428              -4.7278
        12        2.0000           -0.1716781              -4.6716
        13        2.0000           -0.1570790              -4.2743 (HOMO)
        14                          0.2702951               7.3551 (LUMO)
        15                          0.3004583               8.1759
        16                          0.3034420               8.2571
        17                          0.3246199               8.8334
        18                          0.3499034               9.5214
        19                          0.3880968              10.5607
        20                          0.4367387              11.8843
        21                          0.4900932              13.3361
      -------------------------------------------------------------
                  HL-Gap            0.4273741 Eh           11.6294 eV
             Fermi-level            0.0566081 Eh            1.5404 eV

     #   Z          covCN         q      C6AA      α(0)
     1   6 C        3.663     0.117    18.917     6.239
     2   6 C        3.663     0.123    18.825     6.224
     3   8 O        1.381    -0.621    26.047     6.871
     4   1 H        0.921    -0.070     4.626     3.364
     5   1 H        0.921    -0.070     4.629     3.365
     6   1 H        0.921    -0.075     4.764     3.414
     7   8 O        1.266    -0.642    26.793     6.956
     8   1 H        0.921    -0.075     4.764     3.413
     9   1 H        0.938     0.314     0.668     1.278

 Mol. C6AA /au·bohr⁶  :        804.269686
 Mol. C8AA /au·bohr⁸  :      15754.494290
 Mol. α(0) /au        :         41.123772


Wiberg/Mayer (AO) data.
largest (>0.10) Wiberg bond orders for each atom

 ---------------------------------------------------------------------------
     #   Z sym  total        # sym  WBO       # sym  WBO       # sym  WBO
 ---------------------------------------------------------------------------
     1   6 C    3.980 --     3 O    1.095     4 H    0.960     5 H    0.960
                             2 C    0.923
     2   6 C    3.982 --     7 O    1.106     8 H    0.958     6 H    0.957
                             1 C    0.923
     3   8 O    1.754 --     1 C    1.095     9 H    0.470
     4   1 H    0.995 --     1 C    0.960
     5   1 H    0.995 --     1 C    0.960
     6   1 H    0.994 --     2 C    0.957
     7   8 O    1.719 --     2 C    1.106     9 H    0.416
     8   1 H    0.994 --     2 C    0.958
     9   1 H    0.901 --     3 O    0.470     7 O    0.416
 ---------------------------------------------------------------------------

Topologies differ in total number of bonds
Writing topology from bond orders to xtbtopo.mol

molecular dipole:
                 x           y           z       tot (Debye)
 q only:       13.421       7.912      -2.514
   full:       13.876       7.633      -2.648      40.812
molecular quadrupole (traceless):
                xx          xy          yy          xz          yz          zz
 q only:     -145.684    -163.091      27.461      50.017      28.526     118.223
  q+dip:     -160.415    -163.003      37.628      54.683      28.478     122.787
   full:     -159.866    -163.305      37.792      54.422      28.785     122.074

           -------------------------------------------------
          |                Geometry Summary                 |
           -------------------------------------------------

      molecular mass/u    :       61.0599854
   center of mass at/Å    :       -6.8531582      -4.2948086       1.2686844
  moments of inertia/u·Å² :        0.3388254E+02   0.6812439E+02   0.9556705E+02
rotational constants/cm⁻¹ :        0.4975315E+00   0.2474537E+00   0.1763959E+00

 * 6 selected distances

     #   Z          #   Z                                           value/Å
     1   6 C        3   8 O                                       1.3592117 (max)
     1   6 C        4   1 H                                       1.1122280 (min)
     1   6 C        5   1 H                                       1.1129314
     2   6 C        6   1 H                                       1.1149580
     2   6 C        7   8 O                                       1.3542140
     2   6 C        8   1 H                                       1.1143984

 * 2 distinct bonds (by element types)

   Z      Z             #   av. dist./Å        max./Å        min./Å
   1 H    6 C           4     1.1136290     1.1149580     1.1122280
   6 C    8 O           2     1.3567129     1.3592117     1.3542140

           -------------------------------------------------
          |               Frequency Printout                |
           -------------------------------------------------
 projected vibrational frequencies (cm⁻¹)
eigval :       -0.00    -0.00     0.00     0.00     0.00     0.00
eigval :      118.40   399.63   673.63   727.24   856.51   857.12
eigval :     1105.69  1120.74  1130.54  1206.61  1207.66  1227.67
eigval :     1307.79  1377.71  1524.81  1529.74  1712.50  2592.81
eigval :     2643.44  2705.76  2736.99
 reduced masses (amu)
   1: 11.39   2: 12.97   3: 12.73   4: 11.02   5: 14.26   6: 13.47   7:  7.94   8:  4.24
   9: 15.61  10: 12.58  11:  9.97  12:  2.90  13:  1.62  14:  6.79  15: 13.16  16:  1.63
  17:  7.86  18:  2.75  19:  2.84  20:  5.62  21:  2.13  22:  1.85  23:  1.25  24:  1.88
  25:  1.99  26:  1.37  27:  1.36
 IR intensities (km·mol⁻¹)
   1:  0.41   2: 10.04   3:  8.68   4:  2.43   5: 17.22   6: 21.65   7:  0.01   8:******
   9: 28.96  10:  3.45  11:  1.06  12:  6.39  13:105.98  14:  9.58  15:287.00  16:  2.89
  17: 93.90  18: 23.60  19:  3.36  20:641.33  21: 31.22  22: 69.47  23: 59.34  24: 78.65
  25:568.16  26:127.29  27:302.85
 Raman intensities (Ä⁴*amu⁻¹)
   1:  0.00   2:  0.00   3:  0.00   4:  0.00   5:  0.00   6:  0.00   7:  0.00   8:  0.00
   9:  0.00  10:  0.00  11:  0.00  12:  0.00  13:  0.00  14:  0.00  15:  0.00  16:  0.00
  17:  0.00  18:  0.00  19:  0.00  20:  0.00  21:  0.00  22:  0.00  23:  0.00  24:  0.00
  25:  0.00  26:  0.00  27:  0.00
 output can be read by thermo (or use thermo option).
 writing <g98.out> molden fake output.
 recommended (thermochemical) frequency scaling factor: 1.0
           -------------------------------------------------
          |             Thermodynamic Functions             |
           -------------------------------------------------

Refinement of some symmetry elements was terminated before convergence was reached.
Some symmetry elements may remain unidentified.
Molecule has the following symmetry elements: (C2) 2*(sigma) 
It seems to be the C2v point group
c2v symmetry found (for desy threshold:  0.10E+00) used in thermo

          ...................................................
          :                      SETUP                      :
          :.................................................:
          :  # frequencies                          21      :
          :  # imaginary freq.                       0      :
          :  linear?                             false      :
          :  only rotor calc.                    false      :
          :  symmetry                              c2v      :
          :  rotational number                       2      :
          :  scaling factor                  1.0000000      :
          :  rotor cutoff                   50.0000000 cm⁻¹ :
          :  imag. cutoff                  -20.0000000 cm⁻¹ :
          :.................................................:

    mode    ω/cm⁻¹     T·S(HO)/kcal·mol⁻¹    T·S(FR)/kcal·mol⁻¹   T·S(vib)
   ------------------------------------------------------------------------
       1    118.40    -0.93209 ( 96.92%)    -0.80053 (  3.08%)    -0.92803
   ------------------------------------------------------------------------

   temp. (K)  partition function   enthalpy   heat capacity  entropy
                                   cal/mol     cal/K/mol   cal/K/mol   J/K/mol
 298.15  VIB   3.06                  947.270      7.972      5.385
         ROT  0.179E+05              888.752      2.981     22.446
         INT  0.549E+05             1836.022     10.952     27.831
         TR   0.462E+27             1481.254      4.968     38.230
         TOT                        3317.2759    15.9206    66.0611   276.3995

       T/K    H(0)-H(T)+PV         H(T)/Eh          T*S/Eh         G(T)/Eh
   ------------------------------------------------------------------------
    298.15    0.528642E-02    0.708134E-01    0.313877E-01    0.394256E-01
   ------------------------------------------------------------------------

         :::::::::::::::::::::::::::::::::::::::::::::::::::::
         ::                  THERMODYNAMIC                  ::
         :::::::::::::::::::::::::::::::::::::::::::::::::::::
         :: total free energy         -15.089360250829 Eh   ::
         ::.................................................::
         :: total energy              -15.128785856943 Eh   ::
         :: zero point energy           0.065526936353 Eh   ::
         :: G(RRHO) w/o ZPVE           -0.026101330239 Eh   ::
         :: G(RRHO) contrib.            0.039425606114 Eh   ::
         :::::::::::::::::::::::::::::::::::::::::::::::::::::

optimized geometry written to: xtbopt.xyz


           -------------------------------------------------
          | TOTAL ENERGY              -15.128785856943 Eh   |
          | TOTAL ENTHALPY            -15.057972504994 Eh   |
          | TOTAL FREE ENERGY         -15.089360250829 Eh   |
          | GRADIENT NORM               0.000868483527 Eh/α |
          | HOMO-LUMO GAP              11.629441866761 eV   |
           -------------------------------------------------

------------------------------------------------------------------------
 * finished run on 2025/10/18 at 02:53:35.848     
------------------------------------------------------------------------
 total:
 * wall-time:     0 d,  0 h,  0 min,  0.539 sec
 *  cpu-time:     0 d,  0 h,  0 min,  0.651 sec
 * ratio c/w:     1.207 speedup
 SCF:
 * wall-time:     0 d,  0 h,  0 min,  0.031 sec
 *  cpu-time:     0 d,  0 h,  0 min,  0.037 sec
 * ratio c/w:     1.185 speedup
 ANC optimizer:
 * wall-time:     0 d,  0 h,  0 min,  0.204 sec
 *  cpu-time:     0 d,  0 h,  0 min,  0.241 sec
 * ratio c/w:     1.179 speedup
 analytical hessian:
 * wall-time:     0 d,  0 h,  0 min,  0.139 sec
 *  cpu-time:     0 d,  0 h,  0 min,  0.206 sec
 * ratio c/w:     1.483 speedup

