9
 energy: -15.113918979158 gnorm: 0.051843196425 xtb: 6.7.1 (edcfbbe)
C           -5.80162600000000       -3.94222200000000        1.25480700000000
C           -6.67114600000000       -5.21484600000000        1.06148800000000
O           -6.40131200000000       -3.19171800000000        2.17591200000000
H           -4.78474200000000       -4.31474500000000        1.45128800000000
H           -5.69299400000000       -3.51586900000000        0.24444200000000
H           -6.67430600000000       -5.84395800000000        1.95981600000000
O           -8.01725800000000       -4.82026500000000        0.78514800000000
H           -6.30403100000000       -5.81387600000000        0.22192700000000
H           -8.03209000000000       -3.97683100000000        1.30075400000000
9
 energy: -15.119132469241 gnorm: 0.021347919946 xtb: 6.7.1 (edcfbbe)
C           -5.82822702290827       -3.95242983462998        1.25947401077939
C           -6.66957614809842       -5.24778402202969        1.03033430981545
O           -6.43255834692771       -3.14773392481602        2.12597676454017
H           -4.79182213432171       -4.30063232122742        1.53619119534973
H           -5.70192503764124       -3.50374962998439        0.23521299255951
H           -6.64915856191829       -5.86090396172216        1.94364424023624
O           -8.00231840303368       -4.80521459751708        0.81878694898443
H           -6.34260880739895       -5.85545436342070        0.17290275187587
H           -7.96131053775172       -3.96042734465255        1.33305878585922
9
 energy: -15.121506019822 gnorm: 0.022664650698 xtb: 6.7.1 (edcfbbe)
C           -5.83739998040130       -3.96090075474412        1.24958476243990
C           -6.67648911638533       -5.26255288729569        1.01572102749329
O           -6.50309700006221       -3.13604435899602        2.04588155761329
H           -4.79553315086131       -4.28218351021096        1.62548816502557
H           -5.66075985142670       -3.51331827733068        0.21200994074003
H           -6.61629434786357       -5.89526463297343        1.91981861593624
O           -8.00430655633037       -4.79538596249258        0.87317239242912
H           -6.37935233537666       -5.84883716069621        0.13290363477663
H           -7.90627266129255       -3.93984245526031        1.38100190354593
9
 energy: -15.123283817779 gnorm: 0.033935349799 xtb: 6.7.1 (edcfbbe)
C           -5.85716724572838       -3.96480146398325        1.24085500243690
C           -6.68767904843008       -5.27632280515562        1.00477021931942
O           -6.59278639083516       -3.12094448568263        1.95739036464046
H           -4.82696391516809       -4.26215078929721        1.71370479936368
H           -5.60023157366777       -3.53535819904562        0.19376325789625
H           -6.56774858286075       -5.94554560990544        1.88552939736417
O           -8.01086077632535       -4.80064691382567        0.95258040412146
H           -6.42349042010524       -5.82727799589820        0.08881659331409
H           -7.81257704687917       -3.90128173720637        1.41817196154360
9
 energy: -15.124755096422 gnorm: 0.026195182941 xtb: 6.7.1 (edcfbbe)
C           -5.85683977713399       -3.96344778756448        1.24007679641732
C           -6.70126477644046       -5.26936877799461        1.00594315523495
O           -6.60806047861576       -3.09810301338052        1.91355262892304
H           -4.85097910527147       -4.25759782607660        1.74283469244364
H           -5.55477332998417       -3.55697348905185        0.19597789522631
H           -6.55089301873993       -5.96970396479703        1.86073196081074
O           -8.02365103709218       -4.82475030477105        0.98433206474798
H           -6.43742049497226       -5.79340954877902        0.07618344737045
H           -7.79562298174976       -3.90097528758484        1.43594935882559
9
 energy: -15.126564575965 gnorm: 0.016603495748 xtb: 6.7.1 (edcfbbe)
C           -5.85708325423138       -3.96443141774884        1.23915694219508
C           -6.71070376447560       -5.26681666448299        1.00772505501928
O           -6.64784488287395       -3.08275047529243        1.84702551429239
H           -4.90279641433366       -4.23967094566522        1.77456946652886
H           -5.50667965422850       -3.60898645347473        0.20815509100458
H           -6.52277549143167       -6.00425703555963        1.82297113623453
O           -8.02129264204464       -4.83785175443543        1.03116949784126
H           -6.44683620972533       -5.75381692053937        0.05680327153180
H           -7.76349268665527       -3.87574833280135        1.46800602535225
9
 energy: -15.127550916235 gnorm: 0.014806636267 xtb: 6.7.1 (edcfbbe)
C           -5.85523033422839       -3.96511010662542        1.23396026596335
C           -6.71872515237867       -5.26990001588347        0.99907269181721
O           -6.67366939584254       -3.04908254008741        1.77838044072954
H           -4.95056033707544       -4.22554573597880        1.83725637297215
H           -5.44839870234755       -3.64840781904867        0.21968714978044
H           -6.47988834457764       -6.03217844982740        1.78420387341863
O           -8.03215737181249       -4.86544152498396        1.09047729576739
H           -6.47445176459292       -5.72550825818846        0.01844520193875
H           -7.74642359714435       -3.85315554937641        1.49409870761257
9
 energy: -15.127974613427 gnorm: 0.017429768382 xtb: 6.7.1 (edcfbbe)
C           -5.85473191156204       -3.96769804628280        1.22176042232848
C           -6.72237395567409       -5.28246190007416        0.99661228000928
O           -6.67990042525124       -3.04392037667522        1.73021143913553
H           -5.00544892122518       -4.19745062074715        1.88447639305984
H           -5.41758554499527       -3.66497480563471        0.24693627678196
H           -6.43917891318129       -6.05330950255775        1.75153339458203
O           -8.02767796490098       -4.89924481263589        1.14537988356018
H           -6.51250577488369       -5.71702059195093       -0.00671481432176
H           -7.72010158832621       -3.80824934344139        1.48538672486451
9
 energy: -15.128102721538 gnorm: 0.018061694373 xtb: 6.7.1 (edcfbbe)
C           -5.85409264636494       -3.97180247060980        1.20232841653459
C           -6.72762246047807       -5.29231300158128        0.98598838405713
O           -6.72774781019142       -3.00987710174564        1.62351495321058
H           -5.06102753788315       -4.17204853557554        1.97918910089095
H           -5.34053976344603       -3.70293751880532        0.25346793607517
H           -6.39715294681172       -6.08798871231886        1.69814663532748
O           -8.01705638501446       -4.91581795769176        1.20526991124234
H           -6.55994618878753       -5.69109079178460       -0.04793040159515
H           -7.69431926102268       -3.79045390988720        1.55560706425696
9
 energy: -15.128621103206 gnorm: 0.005006050600 xtb: 6.7.1 (edcfbbe)
C           -5.85472549269254       -3.97220088749266        1.21448714286493
C           -6.72560718971070       -5.28533897127385        0.99097046069943
O           -6.70650513437065       -3.02235397289123        1.67076231032250
H           -5.03499567770674       -4.19060039213104        1.93258815568658
H           -5.37058003617939       -3.68583726139689        0.25259319794824
H           -6.40982776238877       -6.06877649192569        1.71940469929341
O           -8.02164973886646       -4.91195488744633        1.17869242920666
H           -6.54037785113086       -5.69791679111411       -0.02580093624708
H           -7.71523611695390       -3.79935034432820        1.52188454022537
9
 energy: -15.128653238481 gnorm: 0.006346817740 xtb: 6.7.1 (edcfbbe)
C           -5.85894005674267       -3.97453831109348        1.21511320000001
C           -6.72754641207072       -5.28816215606744        0.99069584387460
O           -6.71827497649658       -3.02247409048924        1.65653144498154
H           -5.04699907276605       -4.18653012249567        1.94596404531022
H           -5.36320780136313       -3.69249694167196        0.25653190001976
H           -6.39247050216424       -6.07715673001922        1.70972853659902
O           -8.02262600741685       -4.92156791538597        1.20063847458252
H           -6.55183968656067       -5.69005728962412       -0.03301162383404
H           -7.69760048441908       -3.78134644315290        1.51339017846640
9
 energy: -15.128736855237 gnorm: 0.004075909741 xtb: 6.7.1 (edcfbbe)
C           -5.85825347640723       -3.97639526173500        1.21453054073267
C           -6.72843796736299       -5.28856198982347        0.99110660735336
O           -6.72098014620706       -3.01518022780949        1.63814555701503
H           -5.05759363047299       -4.18350127449906        1.95918217660841
H           -5.35115105302817       -3.70182258285398        0.26144988321578
H           -6.38349113173359       -6.08254480975953        1.69733154990488
O           -8.01972386264185       -4.93049480809738        1.21234522827350
H           -6.56080153970576       -5.67978251200025       -0.03811606703774
H           -7.69907219244035       -3.77604653342185        1.51960652393416
9
 energy: -15.128772446913 gnorm: 0.002892029279 xtb: 6.7.1 (edcfbbe)
C           -5.85875493912159       -3.97915012688306        1.21423436890356
C           -6.72925674005716       -5.29005627105730        0.99164285018095
O           -6.72786512313788       -3.01303704937311        1.61772104080892
H           -5.06875181073206       -4.17731268003064        1.97161022729645
H           -5.33898303269037       -3.71112024562032        0.26742958024041
H           -6.37360257057836       -6.08837359449439        1.68328178669974
O           -8.01584335952017       -4.93922485452740        1.22734114906458
H           -6.57058776230488       -5.67060051417641       -0.04211884333270
H           -7.69585966185752       -3.76545466383738        1.52443984013813
9
 energy: -15.128780857919 gnorm: 0.002463655729 xtb: 6.7.1 (edcfbbe)
C           -5.85989071814132       -3.97983496103785        1.21444974475213
C           -6.73049464841780       -5.29107182601261        0.99248587093537
O           -6.73112821754821       -3.00840009162837        1.60325878497640
H           -5.07850953715146       -4.17503242955408        1.98218884235655
H           -5.32896980682067       -3.71768579480504        0.27158014063224
H           -6.36340910987548       -6.09516207080615        1.67364066579457
O           -8.01595506184610       -4.94761377220145        1.24077331521569
H           -6.57793837096769       -5.66235701424746       -0.04714609742890
H           -7.69320952923126       -3.75717203970701        1.52435073276598
9
 energy: -15.128785190015 gnorm: 0.001127462196 xtb: 6.7.1 (edcfbbe)
C           -5.86018845652832       -3.97959358425061        1.21540640404061
C           -6.73012482059468       -5.29130285318091        0.99290532541109
O           -6.73088093491912       -3.00952223746761        1.60449751133444
H           -5.07724266233967       -4.17461198086576        1.98047520134179
H           -5.33182231880626       -3.71776090891457        0.27183537439512
H           -6.36447525857245       -6.09497765624122        1.67428226742678
O           -8.01539317034076       -4.94664761971883        1.23960396305331
H           -6.57734927743068       -5.66316584619403       -0.04656494725842
H           -7.69202810046806       -3.75674731316648        1.52314090025533
9
 energy: -15.128785856914 gnorm: 0.000869097770 xtb: 6.7.1 (edcfbbe)
C           -5.85979656665319       -3.97912889552320        1.21564542644046
C           -6.73019704412383       -5.29092978883214        0.99244101868854
O           -6.73106256538346       -3.01087554527791        1.60402301507714
H           -5.07612654705699       -4.17469171097426        1.98028090935298
H           -5.33090567748840       -3.71731010523213        0.27206641555915
H           -6.36443581244718       -6.09358313430034        1.67442155401837
O           -8.01628933020399       -4.94629913127716        1.23960818320425
H           -6.57726163113728       -5.66405766139334       -0.04643817178763
H           -7.69342982550568       -3.75745402718952        1.52353364944679
