 Entering Gaussian System
 *********************************************
 Gaussian 98:
 frequency output generated by the xtb code
 *********************************************
                         Standard orientation:
 --------------------------------------------------------------------
  Center     Atomic     Atomic              Coordinates (Angstroms)
  Number     Number      Type              X           Y           Z
 --------------------------------------------------------------------
    1          6             0       -5.341533   -3.656942    0.551237
    2          6             0       -6.348536   -4.225666    1.186956
    3          8             0       -8.296361   -5.553506    1.232812
    4          1             0       -5.229485   -3.811117   -0.511410
    5          8             0       -7.246250   -5.309988   -0.731984
    6          6             0       -7.401774   -5.120608    0.484812
    7          1             0       -4.599376   -3.024577    1.030200
    8          1             0       -6.499171   -4.090854    2.254197
 --------------------------------------------------------------------
     1 basis functions        1 primitive gaussians
     1 alpha electrons        1 beta electrons
 
 Harmonic frequencies (cm**-1), IR intensities (km*mol⁻¹),
 Raman scattering activities (A**4/amu), Raman depolarization ratios,
 reduced masses (AMU), force constants (mDyne/A) and normal coordinates:
                      1                      2                      3
                        a                      a                      a 
 Frequencies --    41.6576               233.3929               410.0748
 Red. masses --     9.2698                11.0058                 5.1725
 Frc consts  --     0.0000                 0.0000                 0.0000
 IR Inten    --     1.0514                 0.6242                 7.1547
 Raman Activ --     0.0000                 0.0000                 0.0000
 Depolar     --     0.0000                 0.0000                 0.0000
 Atom AN      X      Y      Z        X      Y      Z        X      Y      Z
   1   6     0.23  -0.32   0.07    -0.26  -0.27  -0.38    -0.07   0.07  -0.01
   2   6    -0.30   0.43  -0.10    -0.02   0.03   0.25     0.19  -0.28   0.08
   3   8     0.22  -0.34   0.08    -0.15  -0.14  -0.15    -0.07   0.15  -0.02
   4   1     0.22  -0.31   0.07    -0.26  -0.21  -0.11     0.23  -0.35   0.08
   5   8    -0.12   0.18  -0.04     0.41   0.34   0.20    -0.13   0.18  -0.06
   6   6    -0.05   0.08  -0.02     0.03   0.06   0.18     0.21  -0.29   0.06
   7   1     0.05  -0.06   0.01     0.02  -0.05  -0.30    -0.32   0.45  -0.10
   8   1    -0.24   0.34  -0.08     0.08   0.07   0.07    -0.23   0.31  -0.07
                      4                      5                      6
                        a                      a                      a 
 Frequencies --   504.2019               615.6988               776.3004
 Red. masses --    12.7379                11.7986                11.3136
 Frc consts  --     0.0000                 0.0000                 0.0000
 IR Inten    --     1.8921                 9.1567                48.8758
 Raman Activ --     0.0000                 0.0000                 0.0000
 Depolar     --     0.0000                 0.0000                 0.0000
 Atom AN      X      Y      Z        X      Y      Z        X      Y      Z
   1   6    -0.36  -0.24   0.10    -0.03  -0.04  -0.09     0.05  -0.07   0.01
   2   6    -0.30  -0.16   0.12    -0.18  -0.25  -0.49    -0.22   0.30  -0.07
   3   8     0.46   0.37   0.26    -0.11   0.01   0.37    -0.12   0.19  -0.05
   4   1    -0.20  -0.11   0.02     0.23   0.15  -0.02    -0.13   0.19  -0.04
   5   8     0.08  -0.02  -0.27     0.43   0.31   0.06    -0.13   0.18  -0.04
   6   6     0.16   0.08  -0.21    -0.17  -0.11   0.06     0.45  -0.65   0.16
   7   1    -0.05  -0.08  -0.04    -0.15  -0.04   0.23     0.11  -0.15   0.04
   8   1    -0.18  -0.13   0.03    -0.02  -0.04  -0.14     0.06  -0.08   0.02
                      7                      8                      9
                        a                      a                      a 
 Frequencies --   804.1309               878.6910              1012.5938
 Red. masses --    12.0654                 3.9747                 4.5183
 Frc consts  --     0.0000                 0.0000                 0.0000
 IR Inten    --   143.3154                14.8658                 3.8741
 Raman Activ --     0.0000                 0.0000                 0.0000
 Depolar     --     0.0000                 0.0000                 0.0000
 Atom AN      X      Y      Z        X      Y      Z        X      Y      Z
   1   6    -0.15  -0.12  -0.08     0.27  -0.38   0.08     0.19   0.19   0.21
   2   6    -0.17  -0.17  -0.22    -0.11   0.15  -0.03    -0.05  -0.10  -0.35
   3   8     0.14   0.00  -0.38     0.01  -0.02   0.00    -0.06  -0.04  -0.02
   4   1     0.14   0.10  -0.01    -0.21   0.30  -0.07    -0.33  -0.25   0.04
   5   8    -0.21  -0.06   0.36     0.01  -0.02   0.01     0.01   0.05   0.16
   6   6     0.42   0.36   0.29    -0.05   0.07  -0.02     0.06   0.05   0.10
   7   1    -0.17  -0.07   0.21    -0.41   0.59  -0.13     0.25   0.10  -0.35
   8   1    -0.04  -0.04  -0.07     0.14  -0.20   0.04    -0.43  -0.36  -0.11
                     10                     11                     12
                        a                      a                      a 
 Frequencies --  1032.4065              1240.0086              1293.8341
 Red. masses --     1.7850                 4.9440                13.4396
 Frc consts  --     0.0000                 0.0000                 0.0000
 IR Inten    --    11.1780                21.9977               294.2156
 Raman Activ --     0.0000                 0.0000                 0.0000
 Depolar     --     0.0000                 0.0000                 0.0000
 Atom AN      X      Y      Z        X      Y      Z        X      Y      Z
   1   6    -0.08   0.10  -0.03    -0.05   0.04   0.34    -0.03  -0.03  -0.07
   2   6    -0.13   0.19  -0.03    -0.15  -0.17  -0.30     0.02   0.03   0.07
   3   8    -0.00   0.01  -0.00     0.15   0.08  -0.11     0.39   0.20  -0.29
   4   1     0.37  -0.50   0.11    -0.25  -0.16   0.08     0.14   0.10  -0.02
   5   8    -0.01   0.01  -0.01    -0.02   0.02   0.13    -0.03   0.10   0.53
   6   6     0.01  -0.02   0.00    -0.09  -0.07  -0.03    -0.41  -0.34  -0.26
   7   1    -0.07   0.08  -0.01     0.09   0.03  -0.14     0.02   0.01  -0.04
   8   1     0.42  -0.57   0.13     0.60   0.42  -0.03    -0.17  -0.11   0.01
                     13                     14                     15
                        a                      a                      a 
 Frequencies --  1401.3650              1684.9183              1743.8989
 Red. masses --     2.3474                11.4002                13.0777
 Frc consts  --     0.0000                 0.0000                 0.0000
 IR Inten    --     7.6204                11.2688               564.7733
 Raman Activ --     0.0000                 0.0000                 0.0000
 Depolar     --     0.0000                 0.0000                 0.0000
 Atom AN      X      Y      Z        X      Y      Z        X      Y      Z
   1   6     0.06   0.03  -0.07     0.51   0.29  -0.31    -0.07  -0.04   0.04
   2   6     0.25   0.15  -0.09    -0.54  -0.32   0.28     0.09   0.05  -0.06
   3   8     0.04   0.02  -0.03     0.09   0.05  -0.05     0.26   0.13  -0.23
   4   1    -0.52  -0.36   0.00    -0.09  -0.09  -0.09     0.03   0.02   0.02
   5   8    -0.00   0.01   0.05     0.00  -0.01  -0.04     0.05  -0.05  -0.38
   6   6    -0.09  -0.07  -0.03    -0.06  -0.02   0.09    -0.38  -0.09   0.73
   7   1    -0.33  -0.10   0.60     0.02   0.04   0.13     0.01  -0.00  -0.04
   8   1    -0.05  -0.04  -0.03     0.04   0.05   0.12    -0.05  -0.04  -0.01
                     16                     17                     18
                        a                      a                      a 
 Frequencies --  2964.5149              3002.3922              3081.7237
 Red. masses --     1.7050                 1.8698                 1.8089
 Frc consts  --     0.0000                 0.0000                 0.0000
 IR Inten    --   164.0855               141.7880                45.5784
 Raman Activ --     0.0000                 0.0000                 0.0000
 Depolar     --     0.0000                 0.0000                 0.0000
 Atom AN      X      Y      Z        X      Y      Z        X      Y      Z
   1   6     0.17   0.14   0.10    -0.07  -0.06  -0.02     0.02  -0.04  -0.27
   2   6     0.02  -0.00  -0.07     0.05  -0.02  -0.26    -0.00  -0.01  -0.01
   3   8     0.00   0.00  -0.00    -0.00  -0.00   0.01    -0.00  -0.00   0.00
   4   1     0.03   0.03   0.05    -0.00  -0.01  -0.05    -0.10   0.14   0.95
   5   8    -0.00  -0.00   0.00    -0.00  -0.00  -0.00    -0.00   0.00   0.00
   6   6    -0.00  -0.00  -0.01     0.01   0.01  -0.01     0.00  -0.00  -0.00
   7   1    -0.62  -0.53  -0.42     0.20   0.17   0.14     0.04   0.03  -0.01
   8   1    -0.05   0.03   0.30    -0.14   0.11   0.90    -0.00   0.00   0.03
