      -----------------------------------------------------------      
     |                   =====================                   |     
     |                           x T B                           |     
     |                   =====================                   |     
     |                         S. Grimme                         |     
     |          Mulliken Center for Theoretical Chemistry        |     
     |                    University of Bonn                     |     
      -----------------------------------------------------------      

   * xtb version 6.7.1 (edcfbbe) compiled by 'albert@albert-system' on 2024-07-22

   xtb is free software: you can redistribute it and/or modify it under
   the terms of the GNU Lesser General Public License as published by
   the Free Software Foundation, either version 3 of the License, or
   (at your option) any later version.
   
   xtb is distributed in the hope that it will be useful,
   but WITHOUT ANY WARRANTY; without even the implied warranty of
   MERCHANTABILITY or FITNESS FOR A PARTICULAR PURPOSE.  See the
   GNU Lesser General Public License for more details.
   
   Cite this work as:
   * C. Bannwarth, E. Caldeweyher, S. Ehlert, A. Hansen, P. Pracht,
     J. Seibert, S. Spicher, S. Grimme, WIREs Comput. Mol. Sci., 2020, 11,
     e01493. DOI: 10.1002/wcms.1493
   
   for GFN2-xTB:
   * C. Bannwarth, S. Ehlert and S. Grimme., J. Chem. Theory Comput., 2019,
     15, 1652-1671. DOI: 10.1021/acs.jctc.8b01176
   for GFN1-xTB:
   * S. Grimme, C. Bannwarth, P. Shushkov, J. Chem. Theory Comput., 2017,
     13, 1989-2009. DOI: 10.1021/acs.jctc.7b00118
   for GFN0-xTB:
   * P. Pracht, E. Caldeweyher, S. Ehlert, S. Grimme, ChemRxiv, 2019, preprint.
     DOI: 10.26434/chemrxiv.8326202.v1
   for GFN-FF:
   * S. Spicher and S. Grimme, Angew. Chem. Int. Ed., 2020, 59, 15665-15673.
     DOI: 10.1002/anie.202004239
   
   for ALPB and GBSA implicit solvation:
   * S. Ehlert, M. Stahn, S. Spicher, S. Grimme, J. Chem. Theory Comput.,
     2021, 17, 4250-4261. DOI: 10.1021/acs.jctc.1c00471
   
   for ddCOSMO and CPCM-X implicit solvation:
   * M. Stahn, S. Ehlert, S. Grimme, J. Phys. Chem. A,
     2023, XX, XXXX-XXXX. DOI: 10.1021/acs.jpca.3c04382
   
   for DFT-D4:
   * E. Caldeweyher, C. Bannwarth and S. Grimme, J. Chem. Phys., 2017,
     147, 034112. DOI: 10.1063/1.4993215
   * E. Caldeweyher, S. Ehlert, A. Hansen, H. Neugebauer, S. Spicher,
     C. Bannwarth and S. Grimme, J. Chem. Phys., 2019, 150, 154122.
     DOI: 10.1063/1.5090222
   * E. Caldeweyher, J.-M. Mewes, S. Ehlert and S. Grimme, Phys. Chem. Chem. Phys.
     2020, 22, 8499-8512. DOI: 10.1039/D0CP00502A
   
   for sTDA-xTB:
   * S. Grimme and C. Bannwarth, J. Chem. Phys., 2016, 145, 054103.
     DOI: 10.1063/1.4959605
   
   in the mass-spec context:
   * V. Asgeirsson, C. Bauer and S. Grimme, Chem. Sci., 2017, 8, 4879.
     DOI: 10.1039/c7sc00601b
   * J. Koopman and S. Grimme, ACS Omega 2019, 4, 12, 15120-15133.
     DOI: 10.1021/acsomega.9b02011
   
   for metadynamics refer to:
   * S. Grimme, J. Chem. Theory Comput., 2019, 155, 2847-2862
     DOI: 10.1021/acs.jctc.9b00143
   
   for SPH calculations refer to:
   * S. Spicher and S. Grimme, J. Chem. Theory Comput., 2021, 17, 1701-1714
     DOI: 10.1021/acs.jctc.0c01306
   
   for ONIOM refer to:
   * C. Plett, A. Katbashev, S. Ehlert, S. Grimme, M. Bursch,
     Phys. Chem. Chem. Phys., 2023, 25, 17860-17868. DOI: 10.1039/D3CP02178E
   
   for DIPRO refer to:
   * J. Kohn, N. Gildemeister, S. Grimme, D. Fazzi, A. Hansen,
     J. Chem. Phys., 2023, just accepted.
   
   for PTB refer to:
   * S. Grimme, M. Mueller, A. Hansen, J. Chem. Phys., 2023, 158, 124111.
     DOI: 10.1063/5.0137838
   
   with help from (in alphabetical order)
   P. Atkinson, C. Bannwarth, F. Bohle, G. Brandenburg, E. Caldeweyher
   M. Checinski, S. Dohm, S. Ehlert, S. Ehrlich, I. Gerasimov, C. Hölzer
   A. Katbashev, J. Kohn, J. Koopman, C. Lavigne, S. Lehtola, F. März, M. Müller,
   F. Musil, H. Neugebauer, J. Pisarek, C. Plett, P. Pracht, F. Pultar,
   J. Seibert, P. Shushkov, S. Spicher, M. Stahn, M. Steiner, T. Strunk,
   J. Stückrath, T. Rose, and J. Unsleber
   
 * started run on 2025/10/18 at 03:39:01.002     
   ID    Z sym.   atoms
    1    6 C      1, 2, 6
    2    8 O      3, 5
    3    1 H      4, 7, 8

           -------------------------------------------------
          |                Calculation Setup                |
           -------------------------------------------------

          program call               : xtb xyz.xyz --charge -1 --ohess
          hostname                   : m003
          coordinate file            : xyz.xyz
          omp threads                :                     2


           -------------------------------------------------
          |                 G F N 2 - x T B                 |
           -------------------------------------------------

        Reference                      10.1021/acs.jctc.8b01176
      * Hamiltonian:
        H0-scaling (s, p, d)           1.850000    2.230000    2.230000
        zeta-weighting                 0.500000
      * Dispersion:
        s8                             2.700000
        a1                             0.520000
        a2                             5.000000
        s9                             5.000000
      * Repulsion:
        kExp                           1.500000    1.000000
        rExp                           1.000000
      * Coulomb:
        alpha                          2.000000
        third order                    shell-resolved
        anisotropic                    true
        a3                             3.000000
        a5                             4.000000
        cn-shift                       1.200000
        cn-exp                         4.000000
        max-rad                        5.000000


          ...................................................
          :                      SETUP                      :
          :.................................................:
          :  # basis functions                  23          :
          :  # atomic orbitals                  23          :
          :  # shells                           13          :
          :  # electrons                        28          :
          :  max. iterations                   250          :
          :  Hamiltonian                  GFN2-xTB          :
          :  restarted?                      false          :
          :  GBSA solvation                  false          :
          :  PC potential                    false          :
          :  electronic temp.          300.0000000     K    :
          :  accuracy                    1.0000000          :
          :  -> integral cutoff          0.2500000E+02      :
          :  -> integral neglect         0.1000000E-07      :
          :  -> SCF convergence          0.1000000E-05 Eh   :
          :  -> wf. convergence          0.1000000E-03 e    :
          :  Broyden damping             0.4000000          :
          :  net charge                         -1          :
          :  unpaired electrons                  0          :
          ...................................................

 iter      E             dE          RMSdq      gap      omega  full diag
   1    -16.3528159 -0.163528E+02  0.615E+00    4.07       0.0  T
   2    -16.4202660 -0.674501E-01  0.297E+00    2.63       1.0  T
   3    -16.4188015  0.146452E-02  0.195E+00    2.74       1.0  T
   4    -16.4255724 -0.677089E-02  0.899E-01    2.54       1.0  T
   5    -16.4288374 -0.326508E-02  0.186E-01    2.61       1.0  T
   6    -16.4290216 -0.184141E-03  0.743E-02    2.63       1.0  T
   7    -16.4290235 -0.194558E-05  0.109E-02    2.64       3.2  T
   8    -16.4290236 -0.113563E-06  0.561E-03    2.65       6.3  T
   9    -16.4290237 -0.621209E-07  0.162E-03    2.64      21.8  T
  10    -16.4290237 -0.714245E-08  0.555E-04    2.64      63.7  T
  11    -16.4290237 -0.257522E-09  0.737E-05    2.64     479.7  T

   *** convergence criteria satisfied after 11 iterations ***

         #    Occupation            Energy/Eh            Energy/eV
      -------------------------------------------------------------
         1        2.0000           -0.4604575             -12.5297
       ...           ...                  ...                  ...
         8        2.0000           -0.3040128              -8.2726
         9        2.0000           -0.2874919              -7.8231
        10        2.0000           -0.2715117              -7.3882
        11        2.0000           -0.2398831              -6.5276
        12        2.0000           -0.1887319              -5.1357
        13        2.0000           -0.1762693              -4.7965
        14        2.0000           -0.1616299              -4.3982 (HOMO)
        15                         -0.0644474              -1.7537 (LUMO)
        16                          0.0578446               1.5740
        17                          0.2729774               7.4281
        18                          0.3084536               8.3935
        19                          0.3390771               9.2268
       ...                                ...                  ...
        23                          0.8652967              23.5459
      -------------------------------------------------------------
                  HL-Gap            0.0971825 Eh            2.6445 eV
             Fermi-level           -0.1130387 Eh           -3.0759 eV

 SCC (total)                   0 d,  0 h,  0 min,  0.044 sec
 SCC setup                      ...        0 min,  0.000 sec (  0.440%)
 Dispersion                     ...        0 min,  0.000 sec (  0.163%)
 classical contributions        ...        0 min,  0.000 sec (  0.066%)
 integral evaluation            ...        0 min,  0.001 sec (  1.202%)
 iterations                     ...        0 min,  0.042 sec ( 95.601%)
 molecular gradient             ...        0 min,  0.001 sec (  2.140%)
 printout                       ...        0 min,  0.000 sec (  0.312%)

         :::::::::::::::::::::::::::::::::::::::::::::::::::::
         ::                     SUMMARY                     ::
         :::::::::::::::::::::::::::::::::::::::::::::::::::::
         :: total energy             -16.269484710076 Eh    ::
         :: gradient norm              0.051004082612 Eh/a0 ::
         :: HOMO-LUMO gap              2.644470080530 eV    ::
         ::.................................................::
         :: SCC energy               -16.429023044409 Eh    ::
         :: -> isotropic ES            0.202828433883 Eh    ::
         :: -> anisotropic ES          0.006593724464 Eh    ::
         :: -> anisotropic XC          0.002253985785 Eh    ::
         :: -> dispersion             -0.004425497945 Eh    ::
         :: repulsion energy           0.159538334333 Eh    ::
         :: add. restraining           0.000000000000 Eh    ::
         :: total charge              -1.000000000000 e     ::
         :::::::::::::::::::::::::::::::::::::::::::::::::::::

      ----------------------------------------------------------- 
     |                   =====================                   |
     |                        A N C O P T                        |
     |                   =====================                   |
     |               Approximate Normal Coordinate               |
     |                Rational Function Optimizer                |
      ----------------------------------------------------------- 
      ----------------------------------------------------------- 
     |                   =====================                   |
     |                        A N C O P T                        |
     |                   =====================                   |
     |               Approximate Normal Coordinate               |
     |                Rational Function Optimizer                |
      ----------------------------------------------------------- 

          ...................................................
          :                      SETUP                      :
          :.................................................:
          :   optimization level            normal          :
          :   max. optcycles                   200          :
          :   ANC micro-cycles                  20          :
          :   degrees of freedom                18          :
          :.................................................:
          :   RF solver                   davidson          :
          :   write xtbopt.log                true          :
          :   linear?                        false          :
          :   energy convergence         0.5000000E-05 Eh   :
          :   grad. convergence          0.1000000E-02 Eh/α :
          :   maxmium RF displ.          1.0000000          :
          :   Hlow (freq-cutoff)         0.1000000E-01      :
          :   Hmax (freq-cutoff)         5.0000000          :
          :   S6 in model hess.         20.0000000          :
          ...................................................

generating ANC from exact Hessian ...
Using Lindh-Hessian (1995)
 Shifting diagonal of input Hessian by   5.720768826247748E-004
 Lowest  eigenvalues of input Hessian
    0.000000    0.000000    0.000000    0.000000    0.000000    0.000000
    0.010000    0.013549    0.024341    0.037824    0.050627    0.090016
    0.108971    0.125549    0.128014    0.201036    0.290035    0.503695
 Highest eigenvalues
    0.717681    0.994434    1.337086    1.600540    1.861887    2.295848
 

........................................................................
.............................. CYCLE    1 ..............................
........................................................................

 iter      E             dE          RMSdq      gap      omega  full diag
   1    -16.4290237 -0.164290E+02  0.394E-05    2.64       0.0  T
   2    -16.4290237 -0.818190E-11  0.154E-05    2.64    2300.4  T
   3    -16.4290237 -0.139977E-11  0.664E-06    2.64    5328.2  T
     SCC iter.                  ...        0 min,  0.001 sec
     gradient                   ...        0 min,  0.001 sec
 * total energy  :   -16.2694847 Eh     change       -0.2177458E-10 Eh
   gradient norm :     0.0510041 Eh/α   predicted     0.0000000E+00 (-100.00%)
   displ. norm   :     0.0698569 α      lambda       -0.2601824E-02
   maximum displ.:     0.0451451 α      in ANC's #12, #3, #9, ...

........................................................................
.............................. CYCLE    2 ..............................
........................................................................

 iter      E             dE          RMSdq      gap      omega  full diag
   1    -16.4423919 -0.164424E+02  0.161E-01    2.75       0.0  T
   2    -16.4424541 -0.622195E-04  0.101E-01    2.76       1.0  T
   3    -16.4424643 -0.102000E-04  0.569E-02    2.77       1.0  T
   4    -16.4424635  0.810521E-06  0.214E-02    2.77       1.7  T
   5    -16.4424666 -0.305395E-05  0.518E-03    2.77       6.8  T
   6    -16.4424666 -0.317585E-07  0.231E-03    2.77      15.3  T
   7    -16.4424666 -0.285153E-08  0.617E-04    2.77      57.3  T
   8    -16.4424666 -0.140485E-09  0.698E-05    2.77     506.8  T
     SCC iter.                  ...        0 min,  0.001 sec
     gradient                   ...        0 min,  0.001 sec
 * total energy  :   -16.2711101 Eh     change       -0.1625385E-02 Eh
   gradient norm :     0.0138896 Eh/α   predicted    -0.1307258E-02 ( -19.57%)
   displ. norm   :     0.0459399 α      lambda       -0.3230406E-03
   maximum displ.:     0.0220388 α      in ANC's #9, #7, #3, ...

........................................................................
.............................. CYCLE    3 ..............................
........................................................................

 iter      E             dE          RMSdq      gap      omega  full diag
   1    -16.4453839 -0.164454E+02  0.740E-02    2.81       0.0  T
   2    -16.4453925 -0.865352E-05  0.473E-02    2.82       1.0  T
   3    -16.4453935 -0.102751E-05  0.284E-02    2.83       1.2  T
   4    -16.4453945 -0.956567E-06  0.109E-02    2.83       3.2  T
   5    -16.4453952 -0.696266E-06  0.210E-03    2.83      16.8  T
   6    -16.4453952 -0.101420E-07  0.103E-03    2.83      34.4  T
   7    -16.4453952 -0.811227E-09  0.305E-04    2.83     116.0  T
   8    -16.4453952 -0.290576E-10  0.139E-04    2.83     253.6  T
     SCC iter.                  ...        0 min,  0.001 sec
     gradient                   ...        0 min,  0.001 sec
 * total energy  :   -16.2712839 Eh     change       -0.1738278E-03 Eh
   gradient norm :     0.0042965 Eh/α   predicted    -0.1618628E-03 (  -6.88%)
   displ. norm   :     0.0478086 α      lambda       -0.1084755E-03
   maximum displ.:     0.0308274 α      in ANC's #5, #3, #7, ...

........................................................................
.............................. CYCLE    4 ..............................
........................................................................

 iter      E             dE          RMSdq      gap      omega  full diag
   1    -16.4454774 -0.164455E+02  0.992E-02    2.85       0.0  T
   2    -16.4454787 -0.129775E-05  0.597E-02    2.85       1.0  T
   3    -16.4454731  0.564203E-05  0.334E-02    2.86       1.1  T
   4    -16.4454796 -0.651152E-05  0.315E-03    2.86      11.2  T
   5    -16.4454796 -0.449726E-07  0.118E-03    2.86      30.0  T
   6    -16.4454796 -0.185569E-08  0.583E-04    2.86      60.7  T
   7    -16.4454796 -0.245617E-09  0.145E-04    2.86     244.1  T
     SCC iter.                  ...        0 min,  0.001 sec
     gradient                   ...        0 min,  0.001 sec
 * total energy  :   -16.2712297 Eh     change        0.5417775E-04 Eh
   gradient norm :     0.0074569 Eh/α   predicted    -0.5436134E-04 (-200.34%)
   displ. norm   :     0.0281281 α      lambda       -0.1765396E-03
   maximum displ.:     0.0233934 α      in ANC's #5, #2, #4, ...

........................................................................
.............................. CYCLE    5 ..............................
........................................................................

 iter      E             dE          RMSdq      gap      omega  full diag
   1    -16.4448454 -0.164448E+02  0.722E-02    2.85       0.0  T
   2    -16.4448456 -0.273232E-06  0.432E-02    2.85       1.0  T
   3    -16.4448455  0.149805E-06  0.577E-03    2.85       6.1  T
   4    -16.4448457 -0.209497E-06  0.118E-03    2.85      30.0  T
   5    -16.4448457  0.122828E-08  0.847E-04    2.85      41.7  T
   6    -16.4448457 -0.288416E-08  0.108E-04    2.85     328.5  T
     SCC iter.                  ...        0 min,  0.001 sec
     gradient                   ...        0 min,  0.001 sec
 * total energy  :   -16.2713223 Eh     change       -0.9255129E-04 Eh
   gradient norm :     0.0015136 Eh/α   predicted    -0.8834008E-04 (  -4.55%)
   displ. norm   :     0.0136266 α      lambda       -0.4884866E-05
   maximum displ.:     0.0100365 α      in ANC's #3, #1, #4, ...

........................................................................
.............................. CYCLE    6 ..............................
........................................................................

 iter      E             dE          RMSdq      gap      omega  full diag
   1    -16.4446781 -0.164447E+02  0.159E-02    2.85       0.0  T
   2    -16.4446782 -0.752295E-07  0.954E-03    2.85       3.7  T
   3    -16.4446780  0.158462E-06  0.663E-03    2.85       5.3  T
   4    -16.4446782 -0.218040E-06  0.823E-04    2.85      42.9  T
   5    -16.4446782 -0.268469E-08  0.276E-04    2.85     128.0  T
     SCC iter.                  ...        0 min,  0.001 sec
     gradient                   ...        0 min,  0.001 sec
 * total energy  :   -16.2713253 Eh     change       -0.2960548E-05 Eh
   gradient norm :     0.0007368 Eh/α   predicted    -0.2442941E-05 ( -17.48%)
   displ. norm   :     0.0175664 α      lambda       -0.3680142E-05
   maximum displ.:     0.0100650 α      in ANC's #3, #1, #4, ...

   *** GEOMETRY OPTIMIZATION CONVERGED AFTER 6 ITERATIONS ***

------------------------------------------------------------------------
 total energy gain   :        -0.0018405 Eh       -1.1550 kcal/mol
 total RMSD          :         0.0479878 a0        0.0254 Å
 total power (kW/mol):        -0.8053927 (step) -314.6481 (real)
------------------------------------------------------------------------

 ANCopt (total)                0 d,  0 h,  0 min,  0.015 sec
 optimizer setup                ...        0 min,  0.000 sec (  1.529%)
 model hessian                  ...        0 min,  0.001 sec (  5.711%)
 ANC generation                 ...        0 min,  0.000 sec (  0.892%)
 coordinate transformation      ...        0 min,  0.000 sec (  0.296%)
 single point calculation       ...        0 min,  0.013 sec ( 85.733%)
 optimization log               ...        0 min,  0.000 sec (  1.731%)
 hessian update                 ...        0 min,  0.000 sec (  0.295%)
 rational function              ...        0 min,  0.000 sec (  1.733%)

================
 final structure:
================
8
 xtb: 6.7.1 (edcfbbe)
C           -5.34151518428163       -3.65697025372075        0.55121186289433
C           -6.34851752797266       -4.22570089835052        1.18692679604983
O           -8.29633504443297       -5.55355078703328        1.23277282117665
H           -5.22946276845939       -3.81114352154819       -0.51143451034693
O           -7.24621898095850       -5.31002420494869       -0.73201819687024
C           -7.40174801620933       -5.12064667947982        0.48477674133563
H           -4.59936311365066       -3.02460242738757        1.03017821884381
H           -6.49915636403486       -4.09089122753119        2.25416726691693
 
 Bond Distances (Angstroems)
 ---------------------------
C1-C2=1.3197         C1-H4=1.0796         C1-H7=1.0863         C2-C1=1.3197         C2-C6=1.5502         C2-H8=1.0862         
O3-C6=1.2439         H4-C1=1.0796         O5-C6=1.2412         C6-C2=1.5502         C6-O3=1.2439         C6-O5=1.2412         
H7-C1=1.0863         H8-C2=1.0862         
 C  H  Rav=1.0840 sigma=0.0031  Rmin=1.0796  Rmax=1.0863     3
 C  C  Rav=1.4350 sigma=0.1153  Rmin=1.3197  Rmax=1.5502     2
 O  C  Rav=1.2425 sigma=0.0013  Rmin=1.2412  Rmax=1.2439     2
 
 selected bond angles (degree)
 --------------------
H4-C1-C2=119.46                H7-C1-C2=124.04                H7-C1-H4=116.50                C6-C2-C1=123.30                
H8-C2-C1=121.71                H8-C2-C6=114.99                O3-C6-C2=114.66                O5-C6-C2=116.55                
O5-C6-O3=128.79                
 
 selected dihedral angles (degree)
 ---------------------------------
C6-C2-C1-H4=  0.00            C6-C2-C1-H7=179.73            H8-C2-C1-H4=180.34            H8-C2-C1-H7=  0.06            
O3-C6-C2-C1=181.31            O3-C6-C2-H8=  1.01            O5-C6-C2-C1=  1.31            O5-C6-C2-H8=181.01            
           -------------------------------------------------
          |                Final Singlepoint                |
           -------------------------------------------------

          ...................................................
          :                      SETUP                      :
          :.................................................:
          :  # basis functions                  23          :
          :  # atomic orbitals                  23          :
          :  # shells                           13          :
          :  # electrons                        28          :
          :  max. iterations                   250          :
          :  Hamiltonian                  GFN2-xTB          :
          :  restarted?                      false          :
          :  GBSA solvation                  false          :
          :  PC potential                    false          :
          :  electronic temp.          300.0000000     K    :
          :  accuracy                    1.0000000          :
          :  -> integral cutoff          0.2500000E+02      :
          :  -> integral neglect         0.1000000E-07      :
          :  -> SCF convergence          0.1000000E-05 Eh   :
          :  -> wf. convergence          0.1000000E-03 e    :
          :  Broyden damping             0.4000000          :
          :  net charge                         -1          :
          :  unpaired electrons                  0          :
          ...................................................

 iter      E             dE          RMSdq      gap      omega  full diag
   1    -16.4446782 -0.164447E+02  0.155E-04    2.85       0.0  T
   2    -16.4446782 -0.859046E-11  0.898E-05    2.85     393.5  T
   3    -16.4446782  0.915179E-11  0.648E-05    2.85     545.6  T

   *** convergence criteria satisfied after 3 iterations ***

         #    Occupation            Energy/Eh            Energy/eV
      -------------------------------------------------------------
         1        2.0000           -0.4639803             -12.6255
       ...           ...                  ...                  ...
         8        2.0000           -0.3077987              -8.3756
         9        2.0000           -0.2861085              -7.7854
        10        2.0000           -0.2710460              -7.3755
        11        2.0000           -0.2417763              -6.5791
        12        2.0000           -0.1896521              -5.1607
        13        2.0000           -0.1748773              -4.7587
        14        2.0000           -0.1610154              -4.3815 (HOMO)
        15                         -0.0562188              -1.5298 (LUMO)
        16                          0.0669820               1.8227
        17                          0.2676138               7.2821
        18                          0.3084931               8.3945
        19                          0.3473748               9.4525
       ...                                ...                  ...
        23                          0.9222802              25.0965
      -------------------------------------------------------------
                  HL-Gap            0.1047966 Eh            2.8517 eV
             Fermi-level           -0.1086171 Eh           -2.9556 eV

 SCC (total)                   0 d,  0 h,  0 min,  0.002 sec
 SCC setup                      ...        0 min,  0.000 sec (  3.903%)
 Dispersion                     ...        0 min,  0.000 sec (  1.680%)
 classical contributions        ...        0 min,  0.000 sec (  0.491%)
 integral evaluation            ...        0 min,  0.000 sec ( 20.755%)
 iterations                     ...        0 min,  0.000 sec ( 25.588%)
 molecular gradient             ...        0 min,  0.001 sec ( 42.763%)
 printout                       ...        0 min,  0.000 sec (  3.476%)

         :::::::::::::::::::::::::::::::::::::::::::::::::::::
         ::                     SUMMARY                     ::
         :::::::::::::::::::::::::::::::::::::::::::::::::::::
         :: total energy             -16.271325257434 Eh    ::
         :: gradient norm              0.000737013008 Eh/a0 ::
         :: HOMO-LUMO gap              2.851660076631 eV    ::
         ::.................................................::
         :: SCC energy               -16.444677602665 Eh    ::
         :: -> isotropic ES            0.201819757772 Eh    ::
         :: -> anisotropic ES          0.005968234011 Eh    ::
         :: -> anisotropic XC          0.001562026732 Eh    ::
         :: -> dispersion             -0.004445616054 Eh    ::
         :: repulsion energy           0.173352345231 Eh    ::
         :: add. restraining           0.000000000000 Eh    ::
         :: total charge              -1.000000000000 e     ::
         :::::::::::::::::::::::::::::::::::::::::::::::::::::

           ------------------------------------------------- 
          |                Numerical Hessian                |
           ------------------------------------------------- 
step length          :   0.00500
SCC accuracy         :   0.30000
Hessian scale factor :   1.00000
frozen atoms in %    :   0.00000    0
RMS gradient         :   0.00074
estimated CPU  time      0.00 min
estimated wall time      0.00 min

writing file <hessian>.

 projected vibrational frequencies (cm⁻¹)
eigval :       -0.00    -0.00     0.00     0.00     0.00     0.00
eigval :       41.66   233.39   410.07   504.20   615.70   776.30
eigval :      804.13   878.69  1012.59  1032.41  1240.01  1293.83
eigval :     1401.37  1684.92  1743.90  2964.51  3002.39  3081.72
           -------------------------------------------------
          |                Property Printout                |
           -------------------------------------------------

    * Orbital Energies and Occupations

         #    Occupation            Energy/Eh            Energy/eV
      -------------------------------------------------------------
         1        2.0000           -0.4639802             -12.6255
         2        2.0000           -0.4508484             -12.2682
         3        2.0000           -0.4442134             -12.0877
         4        2.0000           -0.3944619             -10.7339
         5        2.0000           -0.3563740              -9.6974
         6        2.0000           -0.3363810              -9.1534
         7        2.0000           -0.3138648              -8.5407
         8        2.0000           -0.3077986              -8.3756
         9        2.0000           -0.2861083              -7.7854
        10        2.0000           -0.2710459              -7.3755
        11        2.0000           -0.2417762              -6.5791
        12        2.0000           -0.1896519              -5.1607
        13        2.0000           -0.1748771              -4.7586
        14        2.0000           -0.1610154              -4.3815 (HOMO)
        15                         -0.0562187              -1.5298 (LUMO)
        16                          0.0669821               1.8227
        17                          0.2676139               7.2821
        18                          0.3084931               8.3945
        19                          0.3473748               9.4526
        20                          0.5542106              15.0808
        21                          0.6242641              16.9871
        22                          0.7162950              19.4914
        23                          0.9222803              25.0965
      -------------------------------------------------------------
                  HL-Gap            0.1047966 Eh            2.8517 eV
             Fermi-level           -0.1086171 Eh           -2.9556 eV

     #   Z          covCN         q      C6AA      α(0)
     1   6 C        2.834    -0.088    30.196     9.005
     2   6 C        2.880    -0.073    29.821     8.952
     3   8 O        0.857    -0.602    26.172     6.859
     4   1 H        0.926     0.025     2.656     2.549
     5   8 O        0.856    -0.597    26.038     6.841
     6   6 C        2.686     0.364    20.823     7.468
     7   1 H        0.925    -0.024     3.518     2.933
     8   1 H        0.925    -0.005     3.145     2.773

 Mol. C6AA /au·bohr⁶  :        954.988128
 Mol. C8AA /au·bohr⁸  :      21669.224315
 Mol. α(0) /au        :         47.380574


Wiberg/Mayer (AO) data.
largest (>0.10) Wiberg bond orders for each atom

 ---------------------------------------------------------------------------
     #   Z sym  total        # sym  WBO       # sym  WBO       # sym  WBO
 ---------------------------------------------------------------------------
     1   6 C    3.988 --     2 C    1.977     4 H    0.974     7 H    0.974
     2   6 C    3.957 --     1 C    1.977     8 H    0.971     6 C    0.902
     3   8 O    1.836 --     6 C    1.507     5 O    0.239
     4   1 H    0.999 --     1 C    0.974
     5   8 O    1.843 --     6 C    1.516     3 O    0.239
     6   6 C    3.947 --     5 O    1.516     3 O    1.507     2 C    0.902
     7   1 H    0.999 --     1 C    0.974
     8   1 H    1.000 --     2 C    0.971
 ---------------------------------------------------------------------------

Topologies differ in total number of bonds
Writing topology from bond orders to xtbtopo.mol

molecular dipole:
                 x           y           z       tot (Debye)
 q only:       14.307       9.972      -0.592
   full:       14.542      10.173      -0.441      45.123
molecular quadrupole (traceless):
                xx          xy          yy          xz          yz          zz
 q only:     -155.430    -217.215       5.543      14.745       8.647     149.887
  q+dip:     -159.806    -223.677       4.790      12.613       7.313     155.016
   full:     -159.928    -224.802       5.523      12.921       7.024     154.405

           -------------------------------------------------
          |                Geometry Summary                 |
           -------------------------------------------------

      molecular mass/u    :       71.0548398
   center of mass at/Å    :       -6.9585308      -4.7991232       0.5278723
  moments of inertia/u·Å² :        0.4460616E+02   0.1141697E+03   0.1587679E+03
rotational constants/cm⁻¹ :        0.3779216E+00   0.1476542E+00   0.1061778E+00

 * 6 selected distances

     #   Z          #   Z                                           value/Å
     1   6 C        2   6 C                                       1.3197129 (max)
     1   6 C        4   1 H                                       1.0796030 (min)
     3   8 O        6   6 C                                       1.2438611
     5   8 O        6   6 C                                       1.2412265
     1   6 C        7   1 H                                       1.0863184
     2   6 C        8   1 H                                       1.0862174

 * 3 distinct bonds (by element types)

   Z      Z             #   av. dist./Å        max./Å        min./Å
   1 H    6 C           3     1.0840463     1.0863184     1.0796030
   6 C    6 C           1     1.3197129     1.3197129     1.3197129
   6 C    8 O           2     1.2425438     1.2438611     1.2412265

           -------------------------------------------------
          |               Frequency Printout                |
           -------------------------------------------------
 projected vibrational frequencies (cm⁻¹)
eigval :       -0.00    -0.00     0.00     0.00     0.00     0.00
eigval :       41.66   233.39   410.07   504.20   615.70   776.30
eigval :      804.13   878.69  1012.59  1032.41  1240.01  1293.83
eigval :     1401.37  1684.92  1743.90  2964.51  3002.39  3081.72
 reduced masses (amu)
   1: 14.70   2: 13.48   3: 14.22   4: 13.39   5: 11.32   6: 11.82   7:  9.27   8: 11.01
   9:  5.17  10: 12.74  11: 11.80  12: 11.31  13: 12.07  14:  3.97  15:  4.52  16:  1.79
  17:  4.94  18: 13.44  19:  2.35  20: 11.40  21: 13.08  22:  1.70  23:  1.87  24:  1.81
 IR intensities (km·mol⁻¹)
   1: 20.67   2:  8.20   3: 13.97   4:  7.71   5:  0.86   6:  5.03   7:  1.05   8:  0.62
   9:  7.15  10:  1.89  11:  9.16  12: 48.88  13:143.32  14: 14.87  15:  3.87  16: 11.18
  17: 22.00  18:294.22  19:  7.62  20: 11.27  21:564.77  22:164.09  23:141.79  24: 45.58
 Raman intensities (Ä⁴*amu⁻¹)
   1:  0.00   2:  0.00   3:  0.00   4:  0.00   5:  0.00   6:  0.00   7:  0.00   8:  0.00
   9:  0.00  10:  0.00  11:  0.00  12:  0.00  13:  0.00  14:  0.00  15:  0.00  16:  0.00
  17:  0.00  18:  0.00  19:  0.00  20:  0.00  21:  0.00  22:  0.00  23:  0.00  24:  0.00
 output can be read by thermo (or use thermo option).
 writing <g98.out> molden fake output.
 recommended (thermochemical) frequency scaling factor: 1.0
           -------------------------------------------------
          |             Thermodynamic Functions             |
           -------------------------------------------------

Molecule has the following symmetry elements: (sigma) 
It seems to be the Cs point group
cs  symmetry found (for desy threshold:  0.10E+00) used in thermo

          ...................................................
          :                      SETUP                      :
          :.................................................:
          :  # frequencies                          18      :
          :  # imaginary freq.                       0      :
          :  linear?                             false      :
          :  only rotor calc.                    false      :
          :  symmetry                               cs      :
          :  rotational number                       1      :
          :  scaling factor                  1.0000000      :
          :  rotor cutoff                   50.0000000 cm⁻¹ :
          :  imag. cutoff                  -20.0000000 cm⁻¹ :
          :.................................................:

    mode    ω/cm⁻¹     T·S(HO)/kcal·mol⁻¹    T·S(FR)/kcal·mol⁻¹   T·S(vib)
   ------------------------------------------------------------------------
       1     41.66    -1.54401 ( 32.52%)    -1.10950 ( 67.48%)    -1.25078
       2    233.39    -0.55238 ( 99.79%)    -0.59993 (  0.21%)    -0.55248
   ------------------------------------------------------------------------

   temp. (K)  partition function   enthalpy   heat capacity  entropy
                                   cal/mol     cal/K/mol   cal/K/mol   J/K/mol
 298.15  VIB   11.8                 1481.541      9.869      8.891
         ROT  0.687E+05              888.752      2.981     25.114
         INT  0.811E+06             2370.293     12.850     34.005
         TR   0.579E+27             1481.254      4.968     38.682
         TOT                        3851.5468    17.8177    72.6866   304.1206

       T/K    H(0)-H(T)+PV         H(T)/Eh          T*S/Eh         G(T)/Eh
   ------------------------------------------------------------------------
    298.15    0.613783E-02    0.579019E-01    0.345357E-01    0.233662E-01
   ------------------------------------------------------------------------

         :::::::::::::::::::::::::::::::::::::::::::::::::::::
         ::                  THERMODYNAMIC                  ::
         :::::::::::::::::::::::::::::::::::::::::::::::::::::
         :: total free energy         -16.247959078533 Eh   ::
         ::.................................................::
         :: total energy              -16.271325257448 Eh   ::
         :: zero point energy           0.051764078973 Eh   ::
         :: G(RRHO) w/o ZPVE           -0.028397900057 Eh   ::
         :: G(RRHO) contrib.            0.023366178915 Eh   ::
         :::::::::::::::::::::::::::::::::::::::::::::::::::::

optimized geometry written to: xtbopt.xyz


           -------------------------------------------------
          | TOTAL ENERGY              -16.271325257448 Eh   |
          | TOTAL ENTHALPY            -16.213423347887 Eh   |
          | TOTAL FREE ENERGY         -16.247959078533 Eh   |
          | GRADIENT NORM               0.000737117324 Eh/α |
          | HOMO-LUMO GAP               2.851661475789 eV   |
           -------------------------------------------------

------------------------------------------------------------------------
 * finished run on 2025/10/18 at 03:39:01.455     
------------------------------------------------------------------------
 total:
 * wall-time:     0 d,  0 h,  0 min,  0.452 sec
 *  cpu-time:     0 d,  0 h,  0 min,  0.552 sec
 * ratio c/w:     1.221 speedup
 SCF:
 * wall-time:     0 d,  0 h,  0 min,  0.044 sec
 *  cpu-time:     0 d,  0 h,  0 min,  0.051 sec
 * ratio c/w:     1.167 speedup
 ANC optimizer:
 * wall-time:     0 d,  0 h,  0 min,  0.082 sec
 *  cpu-time:     0 d,  0 h,  0 min,  0.100 sec
 * ratio c/w:     1.220 speedup
 analytical hessian:
 * wall-time:     0 d,  0 h,  0 min,  0.110 sec
 *  cpu-time:     0 d,  0 h,  0 min,  0.182 sec
 * ratio c/w:     1.655 speedup

