8
 energy: -16.269484710098 gnorm: 0.051004096868 xtb: 6.7.1 (edcfbbe)
C           -5.33524000000000       -3.65373200000000        0.53690200000000
C           -6.35913700000000       -4.23331300000000        1.17783900000000
O           -8.30152400000000       -5.54816600000000        1.26739100000000
H           -5.20735200000000       -3.79996400000000       -0.53233100000000
O           -7.24431200000000       -5.31528400000000       -0.74988000000000
C           -7.40341300000000       -5.12117600000000        0.48665900000000
H           -4.62218700000000       -3.03440300000000        1.06458600000000
H           -6.48915200000000       -4.08749200000000        2.24541500000000
8
 energy: -16.271110095486 gnorm: 0.013889607355 xtb: 6.7.1 (edcfbbe)
C           -5.34110001467354       -3.65626090262817        0.54307923087560
C           -6.35270146212094       -4.23062979154613        1.17575721476562
O           -8.29475875577393       -5.54794006166036        1.24739410002439
H           -5.21654375585096       -3.80569368315279       -0.51816974612809
O           -7.24969189825495       -5.31282013227860       -0.73423842108687
C           -7.40031907713310       -5.12012365038772        0.48713589380777
H           -4.61743283702102       -3.03128085148975        1.05277097394158
H           -6.48976919917156       -4.08878092685649        2.24285175379999
8
 energy: -16.271283923239 gnorm: 0.004296551855 xtb: 6.7.1 (edcfbbe)
C           -5.34126895068229       -3.65671548011204        0.54788674708203
C           -6.34994478637839       -4.22765813044523        1.17968642143097
O           -8.29404437923468       -5.55268483912585        1.23723678879825
H           -5.22174610036704       -3.80686826509409       -0.51266687391246
O           -7.25111600901874       -5.31481673363733       -0.72993585757629
C           -7.40354864020013       -5.11744376688838        0.48548894996200
H           -4.60665585749163       -3.02742995393872        1.04124054347743
H           -6.49399227662710       -4.08991283075836        2.24764428073806
8
 energy: -16.271229745486 gnorm: 0.007456919904 xtb: 6.7.1 (edcfbbe)
C           -5.34352014766513       -3.65361507841175        0.55018612239876
C           -6.34786868411404       -4.22674343099795        1.18446755502570
O           -8.29957053405819       -5.54875020717720        1.23057043050095
H           -5.22432084918234       -3.81130116389118       -0.50997606776213
O           -7.25363291276606       -5.30844481259155       -0.73114811808410
C           -7.39541087741193       -5.13064854428465        0.48776226124227
H           -4.60104322661280       -3.02253695065221        1.03213690862824
H           -6.49694976818952       -4.09148981199350        2.25258190805032
8
 energy: -16.271322296779 gnorm: 0.001513620285 xtb: 6.7.1 (edcfbbe)
C           -5.34226871154938       -3.65528556253353        0.55035124624649
C           -6.34895705060514       -4.22571380733777        1.18499955376611
O           -8.29629335709803       -5.55383357194742        1.23317540964239
H           -5.22512919409202       -3.81152656812096       -0.51094577718886
O           -7.24960376090676       -5.31089553855143       -0.73158935943488
C           -7.40200756681749       -5.12089526974472        0.48525555215177
H           -4.60071250534741       -3.02386789940987        1.03229429407246
H           -6.49734485358377       -4.09151178235430        2.25304008074451
8
 energy: -16.271325257327 gnorm: 0.000736844001 xtb: 6.7.1 (edcfbbe)
C           -5.34151518428163       -3.65697025372075        0.55121186289433
C           -6.34851752797266       -4.22570089835052        1.18692679604983
O           -8.29633504443297       -5.55355078703328        1.23277282117665
H           -5.22946276845939       -3.81114352154819       -0.51143451034693
O           -7.24621898095850       -5.31002420494869       -0.73201819687024
C           -7.40174801620933       -5.12064667947982        0.48477674133563
H           -4.59936311365066       -3.02460242738757        1.03017821884381
H           -6.49915636403486       -4.09089122753119        2.25416726691693
