 Entering Gaussian System
 *********************************************
 Gaussian 98:
 frequency output generated by the xtb code
 *********************************************
                         Standard orientation:
 --------------------------------------------------------------------
  Center     Atomic     Atomic              Coordinates (Angstroms)
  Number     Number      Type              X           Y           Z
 --------------------------------------------------------------------
    1          6             0       -5.835882   -3.969033    1.221243
    2          6             0       -6.702237   -5.273551    0.990389
    3          8             0       -6.652543   -2.970812    1.608851
    4          1             0       -5.049149   -4.191004    1.981340
    5          1             0       -5.295956   -3.726609    0.274323
    6          1             0       -6.390918   -6.071489    1.678170
    7          8             0       -8.018392   -4.905152    1.244800
    8          1             0       -6.599822   -5.630436   -0.043192
    9          1             0       -7.834786   -3.895924    1.499934
 --------------------------------------------------------------------
     1 basis functions        1 primitive gaussians
     1 alpha electrons        1 beta electrons
 
 Harmonic frequencies (cm**-1), IR intensities (km*mol⁻¹),
 Raman scattering activities (A**4/amu), Raman depolarization ratios,
 reduced masses (AMU), force constants (mDyne/A) and normal coordinates:
                      1                      2                      3
                        a                      a                      a 
 Frequencies --    73.3853               408.6725               700.2406
 Red. masses --     7.8881                13.1480                12.5097
 Frc consts  --     0.0000                 0.0000                 0.0000
 IR Inten    --     0.2911               377.3924                16.2937
 Raman Activ --     0.0000                 0.0000                 0.0000
 Depolar     --     0.0000                 0.0000                 0.0000
 Atom AN      X      Y      Z        X      Y      Z        X      Y      Z
   1   6     0.05  -0.09   0.33    -0.09   0.11   0.05    -0.46  -0.13   0.03
   2   6    -0.04   0.09  -0.34    -0.02   0.05   0.01    -0.00  -0.48  -0.12
   3   8    -0.06   0.10  -0.36     0.49   0.43   0.05     0.05   0.49   0.12
   4   1    -0.18  -0.07   0.29     0.01  -0.05  -0.01    -0.13  -0.04  -0.01
   5   1     0.26  -0.07   0.23     0.02  -0.04  -0.01    -0.15  -0.06   0.00
   6   1     0.04  -0.13  -0.31     0.01   0.03  -0.00    -0.01  -0.15  -0.05
   7   8     0.04  -0.09   0.36    -0.33  -0.50  -0.09     0.38   0.12  -0.02
   8   1    -0.10   0.26  -0.19     0.01   0.03   0.00     0.00  -0.12  -0.04
   9   1     0.01  -0.00   0.03    -0.34  -0.25  -0.02     0.13   0.04  -0.01
                      4                      5                      6
                        a                      a                      a 
 Frequencies --   844.0482               867.8713               941.3304
 Red. masses --     2.2658                10.5312                 2.0149
 Frc consts  --     0.0000                 0.0000                 0.0000
 IR Inten    --     1.9343                44.0280               169.2336
 Raman Activ --     0.0000                 0.0000                 0.0000
 Depolar     --     0.0000                 0.0000                 0.0000
 Atom AN      X      Y      Z        X      Y      Z        X      Y      Z
   1   6    -0.04   0.05  -0.21    -0.48  -0.46  -0.06    -0.01   0.01  -0.05
   2   6    -0.03   0.04  -0.23     0.23   0.55   0.11    -0.02   0.03  -0.08
   3   8     0.01   0.00   0.08     0.06  -0.09  -0.03     0.02  -0.03   0.13
   4   1    -0.30  -0.24   0.20    -0.09  -0.15  -0.04    -0.06  -0.08   0.01
   5   1     0.35   0.13   0.20    -0.08  -0.15  -0.01     0.06   0.07   0.03
   6   1     0.12   0.35   0.30     0.11   0.15   0.01     0.04   0.09   0.04
   7   8     0.02  -0.01   0.04     0.17   0.02  -0.02     0.03  -0.06   0.19
   8   1    -0.07  -0.47   0.11     0.12   0.15   0.03    -0.03  -0.10   0.00
   9   1     0.03  -0.06   0.23    -0.11  -0.01   0.02    -0.10   0.26  -0.90
                      7                      8                      9
                        a                      a                      a 
 Frequencies --  1070.8393              1086.5390              1112.9757
 Red. masses --    12.2009                13.1381                 6.6069
 Frc consts  --     0.0000                 0.0000                 0.0000
 IR Inten    --   153.8197               522.2927                 6.9618
 Raman Activ --     0.0000                 0.0000                 0.0000
 Depolar     --     0.0000                 0.0000                 0.0000
 Atom AN      X      Y      Z        X      Y      Z        X      Y      Z
   1   6    -0.18   0.04   0.04     0.39  -0.53  -0.17    -0.05   0.10  -0.49
   2   6     0.66  -0.25  -0.15     0.23   0.07  -0.03     0.07  -0.12   0.43
   3   8     0.04  -0.15  -0.04    -0.30   0.47   0.16     0.00  -0.02   0.15
   4   1     0.01   0.08   0.01     0.03   0.02  -0.02    -0.31  -0.08   0.18
   5   1     0.01   0.07   0.02    -0.01   0.01   0.00     0.36   0.01   0.11
   6   1     0.02  -0.06  -0.01    -0.01  -0.01  -0.01     0.06  -0.27  -0.20
   7   8    -0.40   0.35   0.15    -0.29  -0.08   0.02    -0.03   0.03  -0.10
   8   1     0.01  -0.07  -0.03    -0.01  -0.04   0.01    -0.08   0.32  -0.03
   9   1    -0.26  -0.11  -0.01     0.21   0.06   0.00     0.00   0.01  -0.03
                     10                     11                     12
                        a                      a                      a 
 Frequencies --  1195.7532              1217.4507              1240.8159
 Red. masses --     1.8126                 3.3963                 2.0907
 Frc consts  --     0.0000                 0.0000                 0.0000
 IR Inten    --    11.4596               198.5956                10.8603
 Raman Activ --     0.0000                 0.0000                 0.0000
 Depolar     --     0.0000                 0.0000                 0.0000
 Atom AN      X      Y      Z        X      Y      Z        X      Y      Z
   1   6     0.03  -0.04   0.12     0.13  -0.02  -0.04     0.02  -0.03   0.13
   2   6     0.02  -0.00   0.11     0.11   0.14   0.01     0.02  -0.05   0.17
   3   8    -0.02   0.00   0.02    -0.16   0.05   0.03    -0.03   0.05  -0.17
   4   1     0.06   0.15   0.02     0.02  -0.13  -0.03     0.12  -0.61  -0.24
   5   1    -0.05  -0.16  -0.05     0.03  -0.07  -0.03    -0.13   0.63   0.13
   6   1     0.58   0.10  -0.11    -0.58  -0.20   0.02     0.13  -0.05  -0.06
   7   8     0.02   0.04  -0.17     0.31   0.02  -0.01    -0.01   0.02  -0.05
   8   1    -0.72  -0.11  -0.01    -0.42  -0.18   0.02    -0.11   0.07  -0.00
   9   1    -0.06  -0.01  -0.02    -0.45  -0.14   0.01     0.00  -0.00   0.02
                     13                     14                     15
                        a                      a                      a 
 Frequencies --  1324.3256              1352.0685              1490.6729
 Red. masses --     2.9382                 4.8295                 1.7454
 Frc consts  --     0.0000                 0.0000                 0.0000
 IR Inten    --    15.1539               665.9484                17.5957
 Raman Activ --     0.0000                 0.0000                 0.0000
 Depolar     --     0.0000                 0.0000                 0.0000
 Atom AN      X      Y      Z        X      Y      Z        X      Y      Z
   1   6    -0.16  -0.23  -0.04    -0.17   0.25   0.09    -0.07   0.01   0.01
   2   6    -0.04   0.08   0.03     0.27   0.21   0.03     0.11  -0.20  -0.06
   3   8     0.21  -0.06  -0.05     0.13  -0.07  -0.04    -0.01   0.02   0.01
   4   1    -0.00   0.59   0.15    -0.11  -0.16   0.02     0.10  -0.03  -0.11
   5   1    -0.00   0.61   0.18    -0.12  -0.13  -0.06     0.12  -0.08   0.04
   6   1    -0.19  -0.04   0.03    -0.27  -0.16  -0.08    -0.20   0.37   0.50
   7   8     0.05  -0.09  -0.03    -0.19  -0.19  -0.03     0.01  -0.06  -0.02
   8   1    -0.18  -0.02   0.00    -0.26  -0.19   0.05    -0.29   0.55  -0.20
   9   1     0.09   0.02  -0.00     0.62   0.12  -0.04     0.15   0.00  -0.02
                     16                     17                     18
                        a                      a                      a 
 Frequencies --  1511.8675              2041.9722              2527.1609
 Red. masses --     1.7624                 1.7268                 1.8736
 Frc consts  --     0.0000                 0.0000                 0.0000
 IR Inten    --    45.8490               982.5527               518.5388
 Raman Activ --     0.0000                 0.0000                 0.0000
 Depolar     --     0.0000                 0.0000                 0.0000
 Atom AN      X      Y      Z        X      Y      Z        X      Y      Z
   1   6    -0.23  -0.01   0.03    -0.01   0.03   0.01    -0.04   0.07  -0.27
   2   6    -0.04   0.05   0.02     0.08  -0.05  -0.02    -0.00   0.00  -0.00
   3   8    -0.06   0.04   0.02     0.05  -0.00  -0.01     0.00  -0.00  -0.01
   4   1     0.50   0.08  -0.43     0.00   0.00  -0.06     0.49  -0.11   0.43
   5   1     0.60  -0.10   0.26     0.02  -0.03   0.05    -0.36  -0.16   0.57
   6   1     0.01  -0.11  -0.12    -0.01  -0.02   0.02    -0.00   0.03  -0.01
   7   8    -0.02  -0.01   0.00    -0.04  -0.18  -0.05     0.00   0.00   0.00
   8   1     0.03  -0.15   0.05    -0.01  -0.02  -0.02    -0.00  -0.02  -0.02
   9   1     0.11  -0.01  -0.02    -0.28   0.88   0.28    -0.00   0.00  -0.01
                     19                     20                     21
                        a                      a                      a 
 Frequencies --  2664.6807              2826.3849              2879.7494
 Red. masses --     1.3395                 1.9930                 1.3994
 Frc consts  --     0.0000                 0.0000                 0.0000
 IR Inten    --   305.0514               257.7637               143.2573
 Raman Activ --     0.0000                 0.0000                 0.0000
 Depolar     --     0.0000                 0.0000                 0.0000
 Atom AN      X      Y      Z        X      Y      Z        X      Y      Z
   1   6    -0.15  -0.04   0.00     0.00  -0.00   0.02     0.01  -0.00  -0.00
   2   6    -0.00  -0.01  -0.00     0.04  -0.08   0.29     0.04  -0.17  -0.06
   3   8    -0.04   0.04   0.02     0.00   0.00  -0.00    -0.00  -0.00  -0.00
   4   1     0.44  -0.15   0.53    -0.02   0.01  -0.02    -0.02   0.00  -0.02
   5   1     0.26   0.16  -0.61     0.01   0.00  -0.02    -0.01  -0.01   0.02
   6   1    -0.01   0.02  -0.02    -0.20   0.52  -0.42    -0.19   0.45  -0.46
   7   8    -0.00  -0.01  -0.00     0.00  -0.00   0.00     0.02  -0.01  -0.01
   8   1    -0.00   0.00   0.02     0.07  -0.23  -0.61    -0.06   0.18   0.69
   9   1     0.02   0.07   0.02     0.00  -0.00   0.02     0.00   0.02   0.00
