      -----------------------------------------------------------      
     |                   =====================                   |     
     |                           x T B                           |     
     |                   =====================                   |     
     |                         S. Grimme                         |     
     |          Mulliken Center for Theoretical Chemistry        |     
     |                    University of Bonn                     |     
      -----------------------------------------------------------      

   * xtb version 6.7.1 (edcfbbe) compiled by 'albert@albert-system' on 2024-07-22

   xtb is free software: you can redistribute it and/or modify it under
   the terms of the GNU Lesser General Public License as published by
   the Free Software Foundation, either version 3 of the License, or
   (at your option) any later version.
   
   xtb is distributed in the hope that it will be useful,
   but WITHOUT ANY WARRANTY; without even the implied warranty of
   MERCHANTABILITY or FITNESS FOR A PARTICULAR PURPOSE.  See the
   GNU Lesser General Public License for more details.
   
   Cite this work as:
   * C. Bannwarth, E. Caldeweyher, S. Ehlert, A. Hansen, P. Pracht,
     J. Seibert, S. Spicher, S. Grimme, WIREs Comput. Mol. Sci., 2020, 11,
     e01493. DOI: 10.1002/wcms.1493
   
   for GFN2-xTB:
   * C. Bannwarth, S. Ehlert and S. Grimme., J. Chem. Theory Comput., 2019,
     15, 1652-1671. DOI: 10.1021/acs.jctc.8b01176
   for GFN1-xTB:
   * S. Grimme, C. Bannwarth, P. Shushkov, J. Chem. Theory Comput., 2017,
     13, 1989-2009. DOI: 10.1021/acs.jctc.7b00118
   for GFN0-xTB:
   * P. Pracht, E. Caldeweyher, S. Ehlert, S. Grimme, ChemRxiv, 2019, preprint.
     DOI: 10.26434/chemrxiv.8326202.v1
   for GFN-FF:
   * S. Spicher and S. Grimme, Angew. Chem. Int. Ed., 2020, 59, 15665-15673.
     DOI: 10.1002/anie.202004239
   
   for ALPB and GBSA implicit solvation:
   * S. Ehlert, M. Stahn, S. Spicher, S. Grimme, J. Chem. Theory Comput.,
     2021, 17, 4250-4261. DOI: 10.1021/acs.jctc.1c00471
   
   for ddCOSMO and CPCM-X implicit solvation:
   * M. Stahn, S. Ehlert, S. Grimme, J. Phys. Chem. A,
     2023, XX, XXXX-XXXX. DOI: 10.1021/acs.jpca.3c04382
   
   for DFT-D4:
   * E. Caldeweyher, C. Bannwarth and S. Grimme, J. Chem. Phys., 2017,
     147, 034112. DOI: 10.1063/1.4993215
   * E. Caldeweyher, S. Ehlert, A. Hansen, H. Neugebauer, S. Spicher,
     C. Bannwarth and S. Grimme, J. Chem. Phys., 2019, 150, 154122.
     DOI: 10.1063/1.5090222
   * E. Caldeweyher, J.-M. Mewes, S. Ehlert and S. Grimme, Phys. Chem. Chem. Phys.
     2020, 22, 8499-8512. DOI: 10.1039/D0CP00502A
   
   for sTDA-xTB:
   * S. Grimme and C. Bannwarth, J. Chem. Phys., 2016, 145, 054103.
     DOI: 10.1063/1.4959605
   
   in the mass-spec context:
   * V. Asgeirsson, C. Bauer and S. Grimme, Chem. Sci., 2017, 8, 4879.
     DOI: 10.1039/c7sc00601b
   * J. Koopman and S. Grimme, ACS Omega 2019, 4, 12, 15120-15133.
     DOI: 10.1021/acsomega.9b02011
   
   for metadynamics refer to:
   * S. Grimme, J. Chem. Theory Comput., 2019, 155, 2847-2862
     DOI: 10.1021/acs.jctc.9b00143
   
   for SPH calculations refer to:
   * S. Spicher and S. Grimme, J. Chem. Theory Comput., 2021, 17, 1701-1714
     DOI: 10.1021/acs.jctc.0c01306
   
   for ONIOM refer to:
   * C. Plett, A. Katbashev, S. Ehlert, S. Grimme, M. Bursch,
     Phys. Chem. Chem. Phys., 2023, 25, 17860-17868. DOI: 10.1039/D3CP02178E
   
   for DIPRO refer to:
   * J. Kohn, N. Gildemeister, S. Grimme, D. Fazzi, A. Hansen,
     J. Chem. Phys., 2023, just accepted.
   
   for PTB refer to:
   * S. Grimme, M. Mueller, A. Hansen, J. Chem. Phys., 2023, 158, 124111.
     DOI: 10.1063/5.0137838
   
   with help from (in alphabetical order)
   P. Atkinson, C. Bannwarth, F. Bohle, G. Brandenburg, E. Caldeweyher
   M. Checinski, S. Dohm, S. Ehlert, S. Ehrlich, I. Gerasimov, C. Hölzer
   A. Katbashev, J. Kohn, J. Koopman, C. Lavigne, S. Lehtola, F. März, M. Müller,
   F. Musil, H. Neugebauer, J. Pisarek, C. Plett, P. Pracht, F. Pultar,
   J. Seibert, P. Shushkov, S. Spicher, M. Stahn, M. Steiner, T. Strunk,
   J. Stückrath, T. Rose, and J. Unsleber
   
 * started run on 2025/10/18 at 02:53:53.009     
   ID    Z sym.   atoms
    1    6 C      1, 2
    2    8 O      3, 7
    3    1 H      4-6, 8, 9

           -------------------------------------------------
          |                Calculation Setup                |
           -------------------------------------------------

          program call               : xtb xyz.xyz --alpb water --charge -1 --ohess
          hostname                   : m003
          coordinate file            : xyz.xyz
          omp threads                :                     2


           -------------------------------------------------
          |                 G F N 2 - x T B                 |
           -------------------------------------------------

        Reference                      10.1021/acs.jctc.8b01176
      * Hamiltonian:
        H0-scaling (s, p, d)           1.850000    2.230000    2.230000
        zeta-weighting                 0.500000
      * Dispersion:
        s8                             2.700000
        a1                             0.520000
        a2                             5.000000
        s9                             5.000000
      * Repulsion:
        kExp                           1.500000    1.000000
        rExp                           1.000000
      * Coulomb:
        alpha                          2.000000
        third order                    shell-resolved
        anisotropic                    true
        a3                             3.000000
        a5                             4.000000
        cn-shift                       1.200000
        cn-exp                         4.000000
        max-rad                        5.000000

      * Solvation model:               ALPB
        Solvent                        water
        Parameter file                 internal GFN2-xTB/ALPB
        Dielectric constant                8.0200E+01
        Reference state                gsolv [1 M gas/solution]
        Free energy shift                  1.0808E-03 Eh       6.7819E-01 kcal/mol
        Temperature                        2.9815E+02 K
        Density                            1.0000E+00 kg/L
        Solvent mass                       1.8000E+01 g/mol
        Interaction kernel             P16
        Born radius scaling (c1)           1.4744E+00
        Born radii integrator          GBOBC
        Born offset                        0.0000E+00 a0       0.0000E+00 AA
        H-bond correction              true
        Ion screening                  false
        Surface tension                    1.0000E-05 Eh       1.5569E+01 dyn/cm
        Grid points                               230 per atom

          ...................................................
          :                      SETUP                      :
          :.................................................:
          :  # basis functions                  21          :
          :  # atomic orbitals                  21          :
          :  # shells                           13          :
          :  # electrons                        26          :
          :  max. iterations                   250          :
          :  Hamiltonian                  GFN2-xTB          :
          :  restarted?                      false          :
          :  GBSA solvation                   true          :
          :  PC potential                    false          :
          :  electronic temp.          300.0000000     K    :
          :  accuracy                    1.0000000          :
          :  -> integral cutoff          0.2500000E+02      :
          :  -> integral neglect         0.1000000E-07      :
          :  -> SCF convergence          0.1000000E-05 Eh   :
          :  -> wf. convergence          0.1000000E-03 e    :
          :  Broyden damping             0.4000000          :
          :  net charge                         -1          :
          :  unpaired electrons                  0          :
          ...................................................

 iter      E             dE          RMSdq      gap      omega  full diag
   1    -15.2703303 -0.152703E+02  0.527E+00   12.54       0.0  T
   2    -15.3287934 -0.584631E-01  0.252E+00   11.29       1.0  T
   3    -15.3316809 -0.288752E-02  0.106E+00   10.61       1.0  T
   4    -15.3320607 -0.379777E-03  0.330E-01   10.36       1.0  T
   5    -15.3321268 -0.661317E-04  0.117E-01   10.50       1.0  T
   6    -15.3321429 -0.160313E-04  0.427E-02   10.53       1.0  T
   7    -15.3321447 -0.181192E-05  0.880E-03   10.52       3.8  T
   8    -15.3321448 -0.690302E-07  0.266E-03   10.52      12.5  T
   9    -15.3321448 -0.143325E-07  0.802E-04   10.52      41.5  T
  10    -15.3321448 -0.194531E-09  0.345E-04   10.52      96.6  T

   *** convergence criteria satisfied after 10 iterations ***

         #    Occupation            Energy/Eh            Energy/eV
      -------------------------------------------------------------
         1        2.0000           -0.6730191             -18.3138
       ...           ...                  ...                  ...
         7        2.0000           -0.5005981             -13.6220
         8        2.0000           -0.4712626             -12.8237
         9        2.0000           -0.4540072             -12.3542
        10        2.0000           -0.4307460             -11.7212
        11        2.0000           -0.4041548             -10.9976
        12        2.0000           -0.3197396              -8.7006
        13        2.0000           -0.3151656              -8.5761 (HOMO)
        14                          0.0715717               1.9476 (LUMO)
        15                          0.1142829               3.1098
        16                          0.1555069               4.2316
        17                          0.1603427               4.3631
        18                          0.1777665               4.8373
       ...                                ...                  ...
        21                          0.3565633               9.7026
      -------------------------------------------------------------
                  HL-Gap            0.3867373 Eh           10.5237 eV
             Fermi-level           -0.1217969 Eh           -3.3143 eV

 SCC (total)                   0 d,  0 h,  0 min,  0.038 sec
 SCC setup                      ...        0 min,  0.000 sec (  0.871%)
 Dispersion                     ...        0 min,  0.000 sec (  0.203%)
 classical contributions        ...        0 min,  0.000 sec (  0.079%)
 integral evaluation            ...        0 min,  0.000 sec (  1.170%)
 iterations                     ...        0 min,  0.036 sec ( 94.561%)
 molecular gradient             ...        0 min,  0.001 sec (  2.599%)
 printout                       ...        0 min,  0.000 sec (  0.414%)

         :::::::::::::::::::::::::::::::::::::::::::::::::::::
         ::                     SUMMARY                     ::
         :::::::::::::::::::::::::::::::::::::::::::::::::::::
         :: total energy             -15.224819295838 Eh    ::
         :: total w/o Gsasa/hb       -15.222525658215 Eh    ::
         :: gradient norm              0.052006786308 Eh/a0 ::
         :: HOMO-LUMO gap             10.523658303728 eV    ::
         ::.................................................::
         :: SCC energy               -15.332144149793 Eh    ::
         :: -> isotropic ES            0.241775762759 Eh    ::
         :: -> anisotropic ES         -0.000373996274 Eh    ::
         :: -> anisotropic XC         -0.004107648440 Eh    ::
         :: -> dispersion             -0.004339449530 Eh    ::
         :: -> Gsolv                  -0.113598012051 Eh    ::
         ::    -> Gelec               -0.111304374428 Eh    ::
         ::    -> Gsasa                0.003330683819 Eh    ::
         ::    -> Ghb                 -0.006705081140 Eh    ::
         ::    -> Gshift               0.001080759698 Eh    ::
         :: repulsion energy           0.107324853954 Eh    ::
         :: add. restraining           0.000000000000 Eh    ::
         :: total charge              -1.000000000000 e     ::
         :::::::::::::::::::::::::::::::::::::::::::::::::::::

      ----------------------------------------------------------- 
     |                   =====================                   |
     |                        A N C O P T                        |
     |                   =====================                   |
     |               Approximate Normal Coordinate               |
     |                Rational Function Optimizer                |
      ----------------------------------------------------------- 
      ----------------------------------------------------------- 
     |                   =====================                   |
     |                        A N C O P T                        |
     |                   =====================                   |
     |               Approximate Normal Coordinate               |
     |                Rational Function Optimizer                |
      ----------------------------------------------------------- 

          ...................................................
          :                      SETUP                      :
          :.................................................:
          :   optimization level            normal          :
          :   max. optcycles                   200          :
          :   ANC micro-cycles                  20          :
          :   degrees of freedom                21          :
          :.................................................:
          :   RF solver                   davidson          :
          :   write xtbopt.log                true          :
          :   linear?                        false          :
          :   energy convergence         0.5000000E-05 Eh   :
          :   grad. convergence          0.1000000E-02 Eh/α :
          :   maxmium RF displ.          1.0000000          :
          :   Hlow (freq-cutoff)         0.1000000E-01      :
          :   Hmax (freq-cutoff)         5.0000000          :
          :   S6 in model hess.         20.0000000          :
          ...................................................

generating ANC from exact Hessian ...
Using Lindh-Hessian (1995)
 Shifting diagonal of input Hessian by   0.000000000000000E+000
 Lowest  eigenvalues of input Hessian
    0.000000    0.000000    0.000000    0.000000    0.000000    0.000000
    0.012269    0.026043    0.032995    0.043525    0.051745    0.065859
    0.084490    0.104850    0.128714    0.144203    0.175867    0.199121
 Highest eigenvalues
    1.041929    1.100676    1.122963    1.217482    1.330760    1.688183
 

........................................................................
.............................. CYCLE    1 ..............................
........................................................................

 iter      E             dE          RMSdq      gap      omega  full diag
   1    -15.3321448 -0.153321E+02  0.833E-05   10.52       0.0  T
   2    -15.3321448 -0.143920E-10  0.497E-05   10.52     670.0  T
   3    -15.3321448 -0.154188E-11  0.263E-05   10.52    1268.3  T
     SCC iter.                  ...        0 min,  0.001 sec
     gradient                   ...        0 min,  0.001 sec
 * total energy  :   -15.2248193 Eh     change       -0.5646257E-09 Eh
   gradient norm :     0.0520065 Eh/α   predicted     0.0000000E+00 (-100.00%)
   displ. norm   :     0.2673911 α      lambda       -0.7977442E-02
   maximum displ.:     0.1345089 α      in ANC's #2, #1, #7, ...

........................................................................
.............................. CYCLE    2 ..............................
........................................................................

 iter      E             dE          RMSdq      gap      omega  full diag
   1    -15.3318813 -0.153319E+02  0.354E-01   10.61       0.0  T
   2    -15.3318879 -0.659497E-05  0.210E-01   10.63       1.0  T
   3    -15.3318907 -0.281584E-05  0.156E-02   10.64       2.1  T
   4    -15.3318909 -0.131304E-06  0.325E-03   10.63      10.3  T
   5    -15.3318909 -0.542746E-08  0.128E-03   10.63      26.1  T
   6    -15.3318909 -0.143153E-08  0.332E-04   10.63     100.5  T
   7    -15.3318909 -0.119169E-09  0.157E-04   10.63     212.0  T
     SCC iter.                  ...        0 min,  0.001 sec
     gradient                   ...        0 min,  0.001 sec
 * total energy  :   -15.2295312 Eh     change       -0.4711881E-02 Eh
   gradient norm :     0.0149534 Eh/α   predicted    -0.4273906E-02 (  -9.30%)
   displ. norm   :     0.2198143 α      lambda       -0.1412240E-02
   maximum displ.:     0.1796416 α      in ANC's #1, #2, #10, ...

........................................................................
.............................. CYCLE    3 ..............................
........................................................................

 iter      E             dE          RMSdq      gap      omega  full diag
   1    -15.3308229 -0.153308E+02  0.182E-01   10.71       0.0  T
   2    -15.3308300 -0.716386E-05  0.109E-01   10.71       1.0  T
   3    -15.3308305 -0.415695E-06  0.156E-02   10.72       2.1  T
   4    -15.3308310 -0.567946E-06  0.533E-03   10.72       6.3  T
   5    -15.3308310 -0.170611E-07  0.239E-03   10.72      13.9  T
   6    -15.3308310 -0.236783E-08  0.732E-04   10.72      45.6  T
   7    -15.3308310 -0.349544E-09  0.120E-04   10.72     276.9  T
     SCC iter.                  ...        0 min,  0.001 sec
     gradient                   ...        0 min,  0.001 sec
 * total energy  :   -15.2303965 Eh     change       -0.8653528E-03 Eh
   gradient norm :     0.0088268 Eh/α   predicted    -0.7402383E-03 ( -14.46%)
   displ. norm   :     0.2056161 α      lambda       -0.5961353E-03
   maximum displ.:     0.1419017 α      in ANC's #1, #2, #3, ...

........................................................................
.............................. CYCLE    4 ..............................
........................................................................

 iter      E             dE          RMSdq      gap      omega  full diag
   1    -15.3302141 -0.153302E+02  0.144E-01   10.83       0.0  T
   2    -15.3302189 -0.484295E-05  0.869E-02   10.84       1.0  T
   3    -15.3302194 -0.529378E-06  0.151E-02   10.86       2.2  T
   4    -15.3302199 -0.464224E-06  0.566E-03   10.86       5.9  T
   5    -15.3302199 -0.318929E-07  0.149E-03   10.85      22.4  T
   6    -15.3302199 -0.168277E-08  0.325E-04   10.85     102.7  T
   7    -15.3302199 -0.936833E-10  0.147E-04   10.85     226.7  T
     SCC iter.                  ...        0 min,  0.001 sec
     gradient                   ...        0 min,  0.001 sec
 * total energy  :   -15.2308924 Eh     change       -0.4958493E-03 Eh
   gradient norm :     0.0125192 Eh/α   predicted    -0.3106716E-03 ( -37.35%)
   displ. norm   :     0.4698964 α      lambda       -0.1328839E-02
   maximum displ.:     0.3443279 α      in ANC's #2, #1, #3, ...

........................................................................
.............................. CYCLE    5 ..............................
........................................................................

 iter      E             dE          RMSdq      gap      omega  full diag
   1    -15.3266272 -0.153266E+02  0.343E-01   11.03       0.0  T
   2    -15.3266841 -0.568419E-04  0.203E-01   11.10       1.0  T
   3    -15.3266922 -0.812929E-05  0.501E-02   11.15       1.0  T
   4    -15.3266944 -0.223265E-05  0.172E-02   11.14       1.9  T
   5    -15.3266949 -0.468055E-06  0.447E-03   11.14       7.5  T
   6    -15.3266949 -0.113820E-07  0.190E-03   11.14      17.6  T
   7    -15.3266949 -0.328586E-08  0.449E-04   11.14      74.2  T
   8    -15.3266949 -0.178501E-09  0.807E-05   11.14     413.1  T
     SCC iter.                  ...        0 min,  0.001 sec
     gradient                   ...        0 min,  0.001 sec
 * total energy  :   -15.2317531 Eh     change       -0.8607700E-03 Eh
   gradient norm :     0.0210555 Eh/α   predicted    -0.8111301E-03 (  -5.77%)
   displ. norm   :     0.2150401 α      lambda       -0.8575257E-03
   maximum displ.:     0.1714662 α      in ANC's #2, #1, #3, ...

........................................................................
.............................. CYCLE    6 ..............................
........................................................................

 iter      E             dE          RMSdq      gap      omega  full diag
   1    -15.3273456 -0.153273E+02  0.175E-01   11.38       0.0  T
   2    -15.3273777 -0.320674E-04  0.103E-01   11.43       1.0  T
   3    -15.3273833 -0.563351E-05  0.347E-02   11.47       1.0  T
   4    -15.3273838 -0.539174E-06  0.730E-03   11.46       4.6  T
   5    -15.3273839 -0.442251E-07  0.356E-03   11.46       9.4  T
   6    -15.3273839 -0.943455E-08  0.516E-04   11.46      64.6  T
   7    -15.3273839 -0.258119E-09  0.258E-04   11.46     129.0  T
     SCC iter.                  ...        0 min,  0.001 sec
     gradient                   ...        0 min,  0.001 sec
 * total energy  :   -15.2323803 Eh     change       -0.6271360E-03 Eh
   gradient norm :     0.0163220 Eh/α   predicted    -0.4485896E-03 ( -28.47%)
   displ. norm   :     0.3443134 α      lambda       -0.1222310E-02
   maximum displ.:     0.2610669 α      in ANC's #1, #2, #14, ...

........................................................................
.............................. CYCLE    7 ..............................
........................................................................

 iter      E             dE          RMSdq      gap      omega  full diag
   1    -15.3286650 -0.153287E+02  0.251E-01   11.50       0.0  T
   2    -15.3287243 -0.592935E-04  0.143E-01   11.57       1.0  T
   3    -15.3287322 -0.787373E-05  0.506E-02   11.59       1.0  T
   4    -15.3287330 -0.806746E-06  0.145E-02   11.59       2.3  T
   5    -15.3287333 -0.359269E-06  0.466E-03   11.59       7.2  T
   6    -15.3287333 -0.138191E-07  0.263E-03   11.58      12.7  T
   7    -15.3287333 -0.447434E-08  0.263E-04   11.58     126.6  T
   8    -15.3287333 -0.287184E-10  0.302E-05   11.58    1105.5  T
     SCC iter.                  ...        0 min,  0.001 sec
     gradient                   ...        0 min,  0.001 sec
 * total energy  :   -15.2329748 Eh     change       -0.5944750E-03 Eh
   gradient norm :     0.0124130 Eh/α   predicted    -0.6836066E-03 (  14.99%)
   displ. norm   :     0.0788070 α      lambda       -0.5741309E-03
   maximum displ.:     0.0490701 α      in ANC's #3, #14, #15, ...

........................................................................
.............................. CYCLE    8 ..............................
........................................................................

 iter      E             dE          RMSdq      gap      omega  full diag
   1    -15.3310656 -0.153311E+02  0.106E-01   11.49       0.0  T
   2    -15.3310743 -0.871444E-05  0.668E-02   11.51       1.0  T
   3    -15.3310747 -0.397699E-06  0.209E-02   11.51       1.6  T
   4    -15.3310754 -0.654053E-06  0.392E-03   11.52       8.5  T
   5    -15.3310754 -0.227031E-07  0.163E-03   11.51      20.5  T
   6    -15.3310754 -0.144237E-08  0.740E-04   11.51      45.0  T
   7    -15.3310754 -0.460320E-09  0.150E-04   11.51     222.8  T
     SCC iter.                  ...        0 min,  0.001 sec
     gradient                   ...        0 min,  0.001 sec
 * total energy  :   -15.2331656 Eh     change       -0.1908879E-03 Eh
   gradient norm :     0.0083401 Eh/α   predicted    -0.2888478E-03 (  51.32%)
   displ. norm   :     0.2561150 α      lambda       -0.4253576E-03
   maximum displ.:     0.1724648 α      in ANC's #2, #1, #3, ...

........................................................................
.............................. CYCLE    9 ..............................
........................................................................

 iter      E             dE          RMSdq      gap      omega  full diag
   1    -15.3250318 -0.153250E+02  0.227E-01   11.36       0.0  T
   2    -15.3250966 -0.647461E-04  0.128E-01   11.43       1.0  T
   3    -15.3251058 -0.924185E-05  0.461E-02   11.47       1.0  T
   4    -15.3251064 -0.547370E-06  0.898E-03   11.46       3.7  T
   5    -15.3251066 -0.214357E-06  0.350E-03   11.46       9.5  T
   6    -15.3251066 -0.642360E-08  0.157E-03   11.46      21.2  T
   7    -15.3251066 -0.169941E-08  0.310E-04   11.46     107.7  T
   8    -15.3251066 -0.606182E-10  0.631E-05   11.46     528.7  T
     SCC iter.                  ...        0 min,  0.001 sec
     gradient                   ...        0 min,  0.001 sec
 * total energy  :   -15.2332391 Eh     change       -0.7341317E-04 Eh
   gradient norm :     0.0109332 Eh/α   predicted    -0.2266300E-03 ( 208.70%)
   displ. norm   :     0.0818309 α      lambda       -0.2976205E-03
   maximum displ.:     0.0611078 α      in ANC's #2, #3, #1, ...

........................................................................
.............................. CYCLE   10 ..............................
........................................................................

 iter      E             dE          RMSdq      gap      omega  full diag
   1    -15.3283801 -0.153284E+02  0.987E-02   11.49       0.0  T
   2    -15.3283956 -0.155129E-04  0.560E-02   11.46       1.0  T
   3    -15.3283979 -0.232303E-05  0.219E-02   11.44       1.5  T
   4    -15.3283980 -0.122711E-06  0.344E-03   11.44       9.7  T
   5    -15.3283980 -0.106254E-07  0.163E-03   11.44      20.4  T
   6    -15.3283980 -0.135447E-08  0.312E-04   11.44     106.8  T
   7    -15.3283980 -0.178629E-09  0.143E-04   11.44     232.4  T
     SCC iter.                  ...        0 min,  0.001 sec
     gradient                   ...        0 min,  0.001 sec
 * total energy  :   -15.2333781 Eh     change       -0.1390853E-03 Eh
   gradient norm :     0.0031108 Eh/α   predicted    -0.1498055E-03 (   7.71%)
   displ. norm   :     0.0607687 α      lambda       -0.7151942E-04
   maximum displ.:     0.0460644 α      in ANC's #1, #3, #14, ...

........................................................................
.............................. CYCLE   11 ..............................
........................................................................

 iter      E             dE          RMSdq      gap      omega  full diag
   1    -15.3285515 -0.153286E+02  0.439E-02   11.44       0.0  T
   2    -15.3285519 -0.455834E-06  0.262E-02   11.44       1.3  T
   3    -15.3285520 -0.339069E-07  0.434E-03   11.44       7.7  T
   4    -15.3285520 -0.341309E-07  0.126E-03   11.44      26.4  T
   5    -15.3285520 -0.181204E-08  0.506E-04   11.44      65.9  T
   6    -15.3285520 -0.891855E-10  0.199E-04   11.44     167.2  T
     SCC iter.                  ...        0 min,  0.001 sec
     gradient                   ...        0 min,  0.001 sec
 * total energy  :   -15.2334267 Eh     change       -0.4854347E-04 Eh
   gradient norm :     0.0039249 Eh/α   predicted    -0.3589150E-04 ( -26.06%)
   displ. norm   :     0.1457596 α      lambda       -0.9709220E-04
   maximum displ.:     0.0948693 α      in ANC's #1, #2, #3, ...

........................................................................
.............................. CYCLE   12 ..............................
........................................................................

 iter      E             dE          RMSdq      gap      omega  full diag
   1    -15.3283794 -0.153284E+02  0.107E-01   11.42       0.0  T
   2    -15.3283857 -0.632958E-05  0.639E-02   11.44       1.0  T
   3    -15.3283866 -0.905881E-06  0.147E-02   11.45       2.3  T
   4    -15.3283868 -0.155267E-06  0.253E-03   11.45      13.2  T
   5    -15.3283868 -0.118092E-07  0.123E-03   11.45      27.1  T
   6    -15.3283868 -0.792062E-09  0.533E-04   11.45      62.5  T
   7    -15.3283868 -0.249084E-09  0.114E-04   11.45     291.4  T
     SCC iter.                  ...        0 min,  0.001 sec
     gradient                   ...        0 min,  0.001 sec
 * total energy  :   -15.2334937 Eh     change       -0.6704845E-04 Eh
   gradient norm :     0.0044243 Eh/α   predicted    -0.4957734E-04 ( -26.06%)
   displ. norm   :     0.1667604 α      lambda       -0.7344387E-04
   maximum displ.:     0.1149811 α      in ANC's #1, #2, #3, ...

........................................................................
.............................. CYCLE   13 ..............................
........................................................................

 iter      E             dE          RMSdq      gap      omega  full diag
   1    -15.3274745 -0.153275E+02  0.110E-01   11.41       0.0  T
   2    -15.3274783 -0.378850E-05  0.664E-02   11.42       1.0  T
   3    -15.3274789 -0.603144E-06  0.116E-02   11.43       2.9  T
   4    -15.3274790 -0.145556E-06  0.361E-03   11.43       9.2  T
   5    -15.3274791 -0.272518E-07  0.126E-03   11.43      26.5  T
   6    -15.3274791 -0.818627E-09  0.509E-04   11.43      65.5  T
   7    -15.3274791 -0.190679E-09  0.120E-04   11.43     277.2  T
     SCC iter.                  ...        0 min,  0.001 sec
     gradient                   ...        0 min,  0.001 sec
 * total energy  :   -15.2335359 Eh     change       -0.4212552E-04 Eh
   gradient norm :     0.0055684 Eh/α   predicted    -0.3774389E-04 ( -10.40%)
   displ. norm   :     0.0847645 α      lambda       -0.6189782E-04
   maximum displ.:     0.0503394 α      in ANC's #1, #2, #14, ...

........................................................................
.............................. CYCLE   14 ..............................
........................................................................

 iter      E             dE          RMSdq      gap      omega  full diag
   1    -15.3283325 -0.153283E+02  0.581E-02   11.46       0.0  T
   2    -15.3283333 -0.776260E-06  0.355E-02   11.46       1.0  T
   3    -15.3283334 -0.884168E-07  0.517E-03   11.47       6.4  T
   4    -15.3283335 -0.570606E-07  0.175E-03   11.47      19.0  T
   5    -15.3283335 -0.598352E-08  0.507E-04   11.46      65.8  T
   6    -15.3283335 -0.752554E-10  0.218E-04   11.46     152.8  T
     SCC iter.                  ...        0 min,  0.001 sec
     gradient                   ...        0 min,  0.001 sec
 * total energy  :   -15.2335772 Eh     change       -0.4129181E-04 Eh
   gradient norm :     0.0040180 Eh/α   predicted    -0.3117348E-04 ( -24.50%)
   displ. norm   :     0.1221704 α      lambda       -0.4772589E-04
   maximum displ.:     0.0846533 α      in ANC's #1, #2, #14, ...

........................................................................
.............................. CYCLE   15 ..............................
........................................................................

 iter      E             dE          RMSdq      gap      omega  full diag
   1    -15.3283696 -0.153284E+02  0.755E-02   11.46       0.0  T
   2    -15.3283698 -0.195738E-06  0.465E-02   11.46       1.0  T
   3    -15.3283699 -0.117622E-06  0.204E-03   11.46      16.4  T
   4    -15.3283699 -0.491053E-09  0.101E-03   11.46      33.1  T
   5    -15.3283699 -0.164324E-09  0.106E-04   11.46     313.0  T
   6    -15.3283699 -0.266329E-10  0.549E-05   11.46     607.3  T
     SCC iter.                  ...        0 min,  0.001 sec
     gradient                   ...        0 min,  0.001 sec
 * total energy  :   -15.2336141 Eh     change       -0.3695148E-04 Eh
   gradient norm :     0.0033391 Eh/α   predicted    -0.2421966E-04 ( -34.46%)
   displ. norm   :     0.1293356 α      lambda       -0.6407134E-04
   maximum displ.:     0.0892638 α      in ANC's #1, #14, #3, ...

........................................................................
.............................. CYCLE   16 ..............................
........................................................................

 iter      E             dE          RMSdq      gap      omega  full diag
   1    -15.3291244 -0.153291E+02  0.875E-02   11.46       0.0  T
   2    -15.3291294 -0.498993E-05  0.513E-02   11.45       1.0  T
   3    -15.3291302 -0.752827E-06  0.141E-02   11.44       2.4  T
   4    -15.3291303 -0.128948E-06  0.415E-03   11.44       8.0  T
   5    -15.3291303 -0.400182E-07  0.128E-03   11.44      26.0  T
   6    -15.3291303 -0.947432E-09  0.228E-04   11.44     146.5  T
   7    -15.3291303 -0.379181E-10  0.103E-04   11.44     324.0  T
     SCC iter.                  ...        0 min,  0.001 sec
     gradient                   ...        0 min,  0.001 sec
 * total energy  :   -15.2336537 Eh     change       -0.3956023E-04 Eh
   gradient norm :     0.0022117 Eh/α   predicted    -0.3257027E-04 ( -17.67%)
   displ. norm   :     0.0839919 α      lambda       -0.1547341E-04
   maximum displ.:     0.0605691 α      in ANC's #1, #2, #14, ...

........................................................................
.............................. CYCLE   17 ..............................
........................................................................

 iter      E             dE          RMSdq      gap      omega  full diag
   1    -15.3286941 -0.153287E+02  0.554E-02   11.40       0.0  T
   2    -15.3286947 -0.626410E-06  0.335E-02   11.40       1.0  T
   3    -15.3286948 -0.124553E-06  0.484E-03   11.40       6.9  T
   4    -15.3286948 -0.331985E-07  0.183E-03   11.40      18.2  T
   5    -15.3286949 -0.552301E-08  0.688E-04   11.40      48.4  T
   6    -15.3286949 -0.320462E-09  0.187E-04   11.40     178.4  T
     SCC iter.                  ...        0 min,  0.001 sec
     gradient                   ...        0 min,  0.001 sec
 * total energy  :   -15.2336593 Eh     change       -0.5653774E-05 Eh
   gradient norm :     0.0013449 Eh/α   predicted    -0.7792735E-05 (  37.83%)
   displ. norm   :     0.0507823 α      lambda       -0.7869627E-05
   maximum displ.:     0.0324853 α      in ANC's #1, #2, #3, ...

........................................................................
.............................. CYCLE   18 ..............................
........................................................................

 iter      E             dE          RMSdq      gap      omega  full diag
   1    -15.3298506 -0.153299E+02  0.397E-02   11.40       0.0  T
   2    -15.3298521 -0.153067E-05  0.229E-02   11.39       1.5  T
   3    -15.3298524 -0.232690E-06  0.811E-03   11.38       4.1  T
   4    -15.3298524 -0.356006E-07  0.273E-03   11.38      12.2  T
   5    -15.3298524 -0.123059E-07  0.721E-04   11.38      46.2  T
   6    -15.3298524 -0.308097E-09  0.198E-04   11.38     168.6  T
     SCC iter.                  ...        0 min,  0.001 sec
     gradient                   ...        0 min,  0.001 sec
 * total energy  :   -15.2336576 Eh     change        0.1730731E-05 Eh
   gradient norm :     0.0020448 Eh/α   predicted    -0.3939885E-05 (-327.64%)
   displ. norm   :     0.0067072 α      lambda       -0.7437350E-05
   maximum displ.:     0.0048135 α      in ANC's #2, #3, #19, ...

........................................................................
.............................. CYCLE   19 ..............................
........................................................................

 iter      E             dE          RMSdq      gap      omega  full diag
   1    -15.3294229 -0.153294E+02  0.116E-02   11.38       0.0  T
   2    -15.3294232 -0.289379E-06  0.594E-03   11.38       5.6  T
   3    -15.3294233 -0.466890E-07  0.309E-03   11.39      10.8  T
   4    -15.3294233 -0.488306E-08  0.125E-03   11.39      26.6  T
   5    -15.3294233 -0.185883E-08  0.352E-04   11.39      94.6  T
   6    -15.3294233 -0.674980E-10  0.134E-04   11.39     249.6  T
     SCC iter.                  ...        0 min,  0.001 sec
     gradient                   ...        0 min,  0.001 sec
 * total energy  :   -15.2336623 Eh     change       -0.4703302E-05 Eh
   gradient norm :     0.0009442 Eh/α   predicted    -0.3717125E-05 ( -20.97%)
   displ. norm   :     0.0159309 α      lambda       -0.1969420E-05
   maximum displ.:     0.0117830 α      in ANC's #1, #2, #3, ...

   *** GEOMETRY OPTIMIZATION CONVERGED AFTER 19 ITERATIONS ***

------------------------------------------------------------------------
 total energy gain   :        -0.0088430 Eh       -5.5491 kcal/mol
 total RMSD          :         0.8264264 a0        0.4373 Å
 total power (kW/mol):        -1.2219626 (step) -423.0710 (real)
------------------------------------------------------------------------

 ANCopt (total)                0 d,  0 h,  0 min,  0.055 sec
 optimizer setup                ...        0 min,  0.000 sec (  0.510%)
 model hessian                  ...        0 min,  0.002 sec (  3.368%)
 ANC generation                 ...        0 min,  0.000 sec (  0.499%)
 coordinate transformation      ...        0 min,  0.000 sec (  0.334%)
 single point calculation       ...        0 min,  0.049 sec ( 88.948%)
 optimization log               ...        0 min,  0.001 sec (  2.114%)
 hessian update                 ...        0 min,  0.000 sec (  0.392%)
 rational function              ...        0 min,  0.001 sec (  2.004%)

================
 final structure:
================
9
 xtb: 6.7.1 (edcfbbe)
C           -5.83586536989767       -3.96906544775056        1.22121589719587
C           -6.70221223542111       -5.27358773344340        0.99035654297012
O           -6.65253276227758       -2.97084905010671        1.60882210811970
H           -5.04913399782095       -4.19103319794683        1.98131439775250
H           -5.29593670218222       -3.72663637721457        0.27429782174197
H           -6.39089159274478       -6.07152479851993        1.67813652636008
O           -8.01837017592890       -4.90519607953611        1.24476377298059
H           -6.59979212329097       -5.63047045789270       -0.04322479832993
H           -7.83477004043579       -3.89596685758919        1.49989973120914
 
 Bond Distances (Angstroems)
 ---------------------------
C1-C2=1.5829         C1-O3=1.3467         C1-H4=1.1162         C1-H5=1.1167         C2-C1=1.5829         C2-H6=1.0985         
C2-O7=1.3902         C2-H8=1.0982         O3-C1=1.3467         H4-C1=1.1162         H5-C1=1.1167         H6-C2=1.0985         
O7-C2=1.3902         O7-H9=1.0570         H8-C2=1.0982         H9-O7=1.0570         
 C  H  Rav=1.1074 sigma=0.0090  Rmin=1.0982  Rmax=1.1167     4
 C  C  Rav=1.5829 sigma=0.0000  Rmin=1.5829  Rmax=1.5829     1
 O  H  Rav=1.0570 sigma=0.0000  Rmin=1.0570  Rmax=1.0570     1
 O  C  Rav=1.3685 sigma=0.0218  Rmin=1.3467  Rmax=1.3902     2
 
 selected bond angles (degree)
 --------------------
O3-C1-C2=108.72                H4-C1-C2=108.73                H4-C1-O3=112.26                H5-C1-C2=108.66                
H5-C1-O3=112.11                H5-C1-H4=106.25                H6-C2-C1=110.62                O7-C2-C1=105.85                
O7-C2-H6=110.26                H8-C2-C1=110.73                H8-C2-H6=109.07                H8-C2-O7=110.28                
H9-O7-C2= 97.63                
 
 selected dihedral angles (degree)
 ---------------------------------
H6-C2-C1-O3=241.93            H6-C2-C1-H4=  4.43            H6-C2-C1-H5=119.67            O7-C2-C1-O3=  1.36            
O7-C2-C1-H4=123.86            O7-C2-C1-H5=239.10            H8-C2-C1-O3=120.88            H8-C2-C1-H4=243.38            
H8-C2-C1-H5=358.62            H9-O7-C2-C1=359.08            H9-O7-C2-H6=118.75            H9-O7-C2-H8=239.26            
           -------------------------------------------------
          |                Final Singlepoint                |
           -------------------------------------------------

          ...................................................
          :                      SETUP                      :
          :.................................................:
          :  # basis functions                  21          :
          :  # atomic orbitals                  21          :
          :  # shells                           13          :
          :  # electrons                        26          :
          :  max. iterations                   250          :
          :  Hamiltonian                  GFN2-xTB          :
          :  restarted?                      false          :
          :  GBSA solvation                   true          :
          :  PC potential                    false          :
          :  electronic temp.          300.0000000     K    :
          :  accuracy                    1.0000000          :
          :  -> integral cutoff          0.2500000E+02      :
          :  -> integral neglect         0.1000000E-07      :
          :  -> SCF convergence          0.1000000E-05 Eh   :
          :  -> wf. convergence          0.1000000E-03 e    :
          :  Broyden damping             0.4000000          :
          :  net charge                         -1          :
          :  unpaired electrons                  0          :
          ...................................................

 iter      E             dE          RMSdq      gap      omega  full diag
   1    -15.3294233 -0.153294E+02  0.282E-05   11.39       0.0  T
   2    -15.3294233 -0.310862E-12  0.170E-05   11.39    1962.6  T
   3    -15.3294233 -0.149214E-12  0.394E-06   11.39    8467.5  T

   *** convergence criteria satisfied after 3 iterations ***

         #    Occupation            Energy/Eh            Energy/eV
      -------------------------------------------------------------
         1        2.0000           -0.6608474             -17.9826
       ...           ...                  ...                  ...
         7        2.0000           -0.5020861             -13.6625
         8        2.0000           -0.4716684             -12.8348
         9        2.0000           -0.4510043             -12.2725
        10        2.0000           -0.4218055             -11.4779
        11        2.0000           -0.3875367             -10.5454
        12        2.0000           -0.3472660              -9.4496
        13        2.0000           -0.3332457              -9.0681 (HOMO)
        14                          0.0851590               2.3173 (LUMO)
        15                          0.1139652               3.1012
        16                          0.1281040               3.4859
        17                          0.1340865               3.6487
        18                          0.1829691               4.9788
       ...                                ...                  ...
        21                          0.2998308               8.1588
      -------------------------------------------------------------
                  HL-Gap            0.4184048 Eh           11.3854 eV
             Fermi-level           -0.1240433 Eh           -3.3754 eV

 SCC (total)                   0 d,  0 h,  0 min,  0.002 sec
 SCC setup                      ...        0 min,  0.000 sec (  9.925%)
 Dispersion                     ...        0 min,  0.000 sec (  1.616%)
 classical contributions        ...        0 min,  0.000 sec (  0.582%)
 integral evaluation            ...        0 min,  0.000 sec ( 17.692%)
 iterations                     ...        0 min,  0.001 sec ( 25.133%)
 molecular gradient             ...        0 min,  0.001 sec ( 39.809%)
 printout                       ...        0 min,  0.000 sec (  3.804%)

         :::::::::::::::::::::::::::::::::::::::::::::::::::::
         ::                     SUMMARY                     ::
         :::::::::::::::::::::::::::::::::::::::::::::::::::::
         :: total energy             -15.233662294165 Eh    ::
         :: total w/o Gsasa/hb       -15.232439784268 Eh    ::
         :: gradient norm              0.000953672213 Eh/a0 ::
         :: HOMO-LUMO gap             11.385373332440 eV    ::
         ::.................................................::
         :: SCC energy               -15.329422660859 Eh    ::
         :: -> isotropic ES            0.229958427279 Eh    ::
         :: -> anisotropic ES         -0.001906263484 Eh    ::
         :: -> anisotropic XC         -0.004250639051 Eh    ::
         :: -> dispersion             -0.004301120248 Eh    ::
         :: -> Gsolv                  -0.109057142474 Eh    ::
         ::    -> Gelec               -0.107834632577 Eh    ::
         ::    -> Gsasa                0.003190025856 Eh    ::
         ::    -> Ghb                 -0.005493295451 Eh    ::
         ::    -> Gshift               0.001080759698 Eh    ::
         :: repulsion energy           0.095760366694 Eh    ::
         :: add. restraining           0.000000000000 Eh    ::
         :: total charge              -1.000000000000 e     ::
         :::::::::::::::::::::::::::::::::::::::::::::::::::::

           ------------------------------------------------- 
          |                Numerical Hessian                |
           ------------------------------------------------- 
step length          :   0.00500
SCC accuracy         :   0.30000
Hessian scale factor :   1.00000
frozen atoms in %    :   0.00000    0
RMS gradient         :   0.00095
estimated CPU  time      0.01 min
estimated wall time      0.00 min

writing file <hessian>.

 projected vibrational frequencies (cm⁻¹)
eigval :       -0.00    -0.00     0.00     0.00     0.00     0.00
eigval :       73.39   408.67   700.24   844.05   867.87   941.33
eigval :     1070.84  1086.54  1112.98  1195.75  1217.45  1240.82
eigval :     1324.33  1352.07  1490.67  1511.87  2041.97  2527.16
eigval :     2664.68  2826.38  2879.75
           -------------------------------------------------
          |                Property Printout                |
           -------------------------------------------------

    * Orbital Energies and Occupations

         #    Occupation            Energy/Eh            Energy/eV
      -------------------------------------------------------------
         1        2.0000           -0.6608474             -17.9826
         2        2.0000           -0.6221700             -16.9301
         3        2.0000           -0.5970706             -16.2471
         4        2.0000           -0.5607809             -15.2596
         5        2.0000           -0.5325895             -14.4925
         6        2.0000           -0.5203078             -14.1583
         7        2.0000           -0.5020861             -13.6625
         8        2.0000           -0.4716684             -12.8348
         9        2.0000           -0.4510043             -12.2725
        10        2.0000           -0.4218054             -11.4779
        11        2.0000           -0.3875367             -10.5454
        12        2.0000           -0.3472660              -9.4496
        13        2.0000           -0.3332457              -9.0681 (HOMO)
        14                          0.0851591               2.3173 (LUMO)
        15                          0.1139652               3.1012
        16                          0.1281040               3.4859
        17                          0.1340865               3.6487
        18                          0.1829691               4.9788
        19                          0.1944802               5.2921
        20                          0.2672512               7.2723
        21                          0.2998308               8.1588
      -------------------------------------------------------------
                  HL-Gap            0.4184048 Eh           11.3854 eV
             Fermi-level           -0.1240433 Eh           -3.3754 eV

     #   Z          covCN         q      C6AA      α(0)
     1   6 C        3.663     0.143    18.511     6.172
     2   6 C        3.667     0.083    19.442     6.322
     3   8 O        0.873    -0.801    31.607     7.538
     4   1 H        0.920    -0.079     4.871     3.452
     5   1 H        0.920    -0.079     4.881     3.455
     6   1 H        0.923    -0.015     3.332     2.855
     7   8 O        1.630    -0.568    24.422     6.671
     8   1 H        0.923    -0.014     3.321     2.850
     9   1 H        0.797     0.330     0.639     1.256

 Mol. C6AA /au·bohr⁶  :        786.762900
 Mol. C8AA /au·bohr⁸  :      15568.494363
 Mol. α(0) /au        :         40.570601


Wiberg/Mayer (AO) data.
largest (>0.10) Wiberg bond orders for each atom

 ---------------------------------------------------------------------------
     #   Z sym  total        # sym  WBO       # sym  WBO       # sym  WBO
 ---------------------------------------------------------------------------
     1   6 C    3.984 --     3 O    1.124     4 H    0.953     5 H    0.953
                             2 C    0.932
     2   6 C    3.965 --     7 O    1.034     8 H    0.974     6 H    0.974
                             1 C    0.932
     3   8 O    1.484 --     1 C    1.124     9 H    0.179
     4   1 H    0.994 --     1 C    0.953
     5   1 H    0.994 --     1 C    0.953
     6   1 H    1.000 --     2 C    0.974
     7   8 O    1.853 --     2 C    1.034     9 H    0.700
     8   1 H    1.000 --     2 C    0.974
     9   1 H    0.891 --     7 O    0.700     3 O    0.179
 ---------------------------------------------------------------------------

Topologies differ in total number of bonds
Writing topology from bond orders to xtbtopo.mol

molecular dipole:
                 x           y           z       tot (Debye)
 q only:       13.065       6.937      -2.732
   full:       13.433       6.788      -2.820      38.920
molecular quadrupole (traceless):
                xx          xy          yy          xz          yz          zz
 q only:     -143.258    -140.312      38.469      52.779      27.450     104.789
  q+dip:     -154.694    -141.651      45.105      56.222      27.208     109.589
   full:     -154.128    -142.014      45.292      55.941      27.545     108.836

           -------------------------------------------------
          |                Geometry Summary                 |
           -------------------------------------------------

      molecular mass/u    :       61.0599854
   center of mass at/Å    :       -6.8250332      -4.2699514       1.2717565
  moments of inertia/u·Å² :        0.3402699E+02   0.6970305E+02   0.9728275E+02
rotational constants/cm⁻¹ :        0.4954195E+00   0.2418493E+00   0.1732849E+00

 * 5 selected distances

     #   Z          #   Z                                           value/Å
     1   6 C        4   1 H                                       1.1162284
     1   6 C        5   1 H                                       1.1166687
     2   6 C        6   1 H                                       1.0984833
     2   6 C        7   8 O                                       1.3902185 (max)
     2   6 C        8   1 H                                       1.0982467 (min)

 * 2 distinct bonds (by element types)

   Z      Z             #   av. dist./Å        max./Å        min./Å
   1 H    6 C           4     1.1074068     1.1166687     1.0982467
   6 C    8 O           1     1.3902185     1.3902185     1.3902185

           -------------------------------------------------
          |               Frequency Printout                |
           -------------------------------------------------
 projected vibrational frequencies (cm⁻¹)
eigval :       -0.00    -0.00     0.00     0.00     0.00     0.00
eigval :       73.39   408.67   700.24   844.05   867.87   941.33
eigval :     1070.84  1086.54  1112.98  1195.75  1217.45  1240.82
eigval :     1324.33  1352.07  1490.67  1511.87  2041.97  2527.16
eigval :     2664.68  2826.38  2879.75
 reduced masses (amu)
   1: 13.57   2: 13.56   3: 10.06   4: 13.18   5: 12.76   6: 12.84   7:  7.89   8: 13.15
   9: 12.51  10:  2.27  11: 10.53  12:  2.01  13: 12.20  14: 13.14  15:  6.61  16:  1.81
  17:  3.40  18:  2.09  19:  2.94  20:  4.83  21:  1.75  22:  1.76  23:  1.73  24:  1.87
  25:  1.34  26:  1.99  27:  1.40
 IR intensities (km·mol⁻¹)
   1: 23.74   2: 16.11   3:  2.56   4:  6.16   5: 14.78   6:  4.51   7:  0.29   8:377.39
   9: 16.29  10:  1.93  11: 44.03  12:169.23  13:153.82  14:522.29  15:  6.96  16: 11.46
  17:198.60  18: 10.86  19: 15.15  20:665.95  21: 17.60  22: 45.85  23:982.55  24:518.54
  25:305.05  26:257.76  27:143.26
 Raman intensities (Ä⁴*amu⁻¹)
   1:  0.00   2:  0.00   3:  0.00   4:  0.00   5:  0.00   6:  0.00   7:  0.00   8:  0.00
   9:  0.00  10:  0.00  11:  0.00  12:  0.00  13:  0.00  14:  0.00  15:  0.00  16:  0.00
  17:  0.00  18:  0.00  19:  0.00  20:  0.00  21:  0.00  22:  0.00  23:  0.00  24:  0.00
  25:  0.00  26:  0.00  27:  0.00
 output can be read by thermo (or use thermo option).
 writing <g98.out> molden fake output.
 recommended (thermochemical) frequency scaling factor: 1.0
           -------------------------------------------------
          |             Thermodynamic Functions             |
           -------------------------------------------------

Refinement of some symmetry elements was terminated before convergence was reached.
Some symmetry elements may remain unidentified.
Molecule has the following symmetry elements: (sigma) 
It seems to be the Cs point group
cs  symmetry found (for desy threshold:  0.10E+00) used in thermo

          ...................................................
          :                      SETUP                      :
          :.................................................:
          :  # frequencies                          21      :
          :  # imaginary freq.                       0      :
          :  linear?                             false      :
          :  only rotor calc.                    false      :
          :  symmetry                               cs      :
          :  rotational number                       1      :
          :  scaling factor                  1.0000000      :
          :  rotor cutoff                   50.0000000 cm⁻¹ :
          :  imag. cutoff                  -20.0000000 cm⁻¹ :
          :.................................................:

    mode    ω/cm⁻¹     T·S(HO)/kcal·mol⁻¹    T·S(FR)/kcal·mol⁻¹   T·S(vib)
   ------------------------------------------------------------------------
       1     73.39    -1.21062 ( 82.27%)    -0.94187 ( 17.73%)    -1.16297
   ------------------------------------------------------------------------

   temp. (K)  partition function   enthalpy   heat capacity  entropy
                                   cal/mol     cal/K/mol   cal/K/mol   J/K/mol
 298.15  VIB   4.33                  959.190      7.518      5.972
         ROT  0.367E+05              888.752      2.981     23.868
         INT  0.159E+06             1847.943     10.499     29.839
         TR   0.462E+27             1481.254      4.968     38.230
         TOT                        3329.1968    15.4669    68.0695   284.8027

       T/K    H(0)-H(T)+PV         H(T)/Eh          T*S/Eh         G(T)/Eh
   ------------------------------------------------------------------------
    298.15    0.530541E-02    0.722353E-01    0.323420E-01    0.398933E-01
   ------------------------------------------------------------------------

         :::::::::::::::::::::::::::::::::::::::::::::::::::::
         ::                  THERMODYNAMIC                  ::
         :::::::::::::::::::::::::::::::::::::::::::::::::::::
         :: total free energy         -15.193769041294 Eh   ::
         ::.................................................::
         :: total energy              -15.233662293784 Eh   ::
         :: zero point energy           0.066929841821 Eh   ::
         :: G(RRHO) w/o ZPVE           -0.027036589331 Eh   ::
         :: G(RRHO) contrib.            0.039893252491 Eh   ::
         :::::::::::::::::::::::::::::::::::::::::::::::::::::

optimized geometry written to: xtbopt.xyz


           -------------------------------------------------
          | TOTAL ENERGY              -15.233662293784 Eh   |
          | TOTAL ENTHALPY            -15.161427039217 Eh   |
          | TOTAL FREE ENERGY         -15.193769041294 Eh   |
          | GRADIENT NORM               0.000953640279 Eh/α |
          | HOMO-LUMO GAP              11.385372787569 eV   |
           -------------------------------------------------

------------------------------------------------------------------------
 * finished run on 2025/10/18 at 02:53:53.670     
------------------------------------------------------------------------
 total:
 * wall-time:     0 d,  0 h,  0 min,  0.660 sec
 *  cpu-time:     0 d,  0 h,  0 min,  0.748 sec
 * ratio c/w:     1.134 speedup
 SCF:
 * wall-time:     0 d,  0 h,  0 min,  0.038 sec
 *  cpu-time:     0 d,  0 h,  0 min,  0.046 sec
 * ratio c/w:     1.208 speedup
 ANC optimizer:
 * wall-time:     0 d,  0 h,  0 min,  0.338 sec
 *  cpu-time:     0 d,  0 h,  0 min,  0.339 sec
 * ratio c/w:     1.005 speedup
 analytical hessian:
 * wall-time:     0 d,  0 h,  0 min,  0.111 sec
 *  cpu-time:     0 d,  0 h,  0 min,  0.188 sec
 * ratio c/w:     1.701 speedup

