9
 energy: -15.224819296403 gnorm: 0.052006496455 xtb: 6.7.1 (edcfbbe)
C           -5.80162600000000       -3.94222200000000        1.25480700000000
C           -6.67114600000000       -5.21484600000000        1.06148800000000
O           -6.40131200000000       -3.19171800000000        2.17591200000000
H           -4.78474200000000       -4.31474500000000        1.45128800000000
H           -5.69299400000000       -3.51586900000000        0.24444200000000
H           -6.67430600000000       -5.84395800000000        1.95981600000000
O           -8.01725800000000       -4.82026500000000        0.78514800000000
H           -6.30403100000000       -5.81387600000000        0.22192700000000
H           -8.03209000000000       -3.97683100000000        1.30075400000000
9
 energy: -15.229531177457 gnorm: 0.014954134226 xtb: 6.7.1 (edcfbbe)
C           -5.81840880866533       -3.96267954241105        1.25419659212926
C           -6.67156674617318       -5.24525872541521        1.03277381966722
O           -6.40279098167620       -3.14290117057678        2.13294246307967
H           -4.78420466405586       -4.30181029705781        1.53012596209452
H           -5.69499321269260       -3.49902641750982        0.24065078488173
H           -6.65297716379347       -5.85148308911064        1.94851209758689
O           -8.00407694208514       -4.81036376015939        0.80705435587700
H           -6.33749872424565       -5.84579686258679        0.17873100943960
H           -8.01298775661258       -3.97501013517252        1.33059491524411
9
 energy: -15.230396530218 gnorm: 0.008827512307 xtb: 6.7.1 (edcfbbe)
C           -5.81490259979257       -3.97358503354388        1.24274855968848
C           -6.67716288975882       -5.24866511134226        1.02617571221927
O           -6.42742127489886       -3.12963177493763        2.08167469045106
H           -4.78236952811465       -4.29734465156767        1.59146643190789
H           -5.65771738497397       -3.50237911123183        0.22554462866862
H           -6.62944732578619       -5.86734994284861        1.93481217607606
O           -8.00815474412506       -4.81124993691817        0.83760893364066
H           -6.36160413061806       -5.82813852646136        0.15502377217235
H           -8.02072512193181       -3.97598591114858        1.36052709517561
9
 energy: -15.230892379535 gnorm: 0.012527280851 xtb: 6.7.1 (edcfbbe)
C           -5.82044891726840       -3.97595366898165        1.23769659146237
C           -6.67903323464027       -5.25161041498863        1.02141503114985
O           -6.46014291647873       -3.11375904984200        2.04186307923520
H           -4.79978113508624       -4.29426601353959        1.63586467822471
H           -5.62190475180580       -3.51719754019257        0.21682366599333
H           -6.60108356326275       -5.88806700476216        1.91776179219669
O           -8.01017293646388       -4.81544965645719        0.87435232339899
H           -6.38470578717233       -5.81254799403187        0.13176943193445
H           -8.00223175782160       -3.96547865720435        1.37803540640442
9
 energy: -15.231753149491 gnorm: 0.021117180140 xtb: 6.7.1 (edcfbbe)
C           -5.83304383891661       -3.97927941829243        1.23157834755216
C           -6.68419286526802       -5.25929769268196        1.01204910162074
O           -6.54008416664218       -3.08457063371185        1.95391115751226
H           -4.84384581954352       -4.27538070385546        1.72426425965183
H           -5.54822435376795       -3.55882339414882        0.20591316897888
H           -6.54156818467754       -5.94042539297809        1.87470541793461
O           -8.01779172317629       -4.82862427422094        0.96435658377460
H           -6.43449032597000       -5.77867730946239        0.08190656745685
H           -7.93626372203790       -3.92925118064806        1.40689739551810
9
 energy: -15.232380285446 gnorm: 0.016397978366 xtb: 6.7.1 (edcfbbe)
C           -5.83930306989591       -3.97808011251869        1.23099047554907
C           -6.68764035221345       -5.26431485115240        1.01109340178842
O           -6.57096322602917       -3.07453379977740        1.91458577315715
H           -4.87455731978216       -4.25957049717646        1.75222300093679
H           -5.52223061814767       -3.57807994386938        0.21102519311672
H           -6.52368173667236       -5.96856877779838        1.85037427000089
O           -8.01855952614719       -4.83925037325886        1.00692531667787
H           -6.45406740857127       -5.76334236092251        0.06640618642111
H           -7.88850174254081       -3.90858928352594        1.41195838235200
9
 energy: -15.232974760456 gnorm: 0.012530308243 xtb: 6.7.1 (edcfbbe)
C           -5.83548066286872       -3.97442893852900        1.22925050598937
C           -6.69321319052520       -5.26597603840766        1.00254401899244
O           -6.61491169469369       -3.04194056322816        1.83036127228818
H           -4.91718344700633       -4.23783653459313        1.80676663863067
H           -5.46991210790094       -3.62629571445132        0.21745958651466
H           -6.51255018229291       -6.00046276746123        1.80509843938991
O           -8.01922612124177       -4.84267625754632        1.05246383019784
H           -6.47109110426660       -5.73441699898521        0.03926518513465
H           -7.84593648920384       -3.91029618679798        1.47237252286232
9
 energy: -15.233165648333 gnorm: 0.008372305364 xtb: 6.7.1 (edcfbbe)
C           -5.83166964248729       -3.97316198467399        1.22739786278834
C           -6.69782518560932       -5.26833245690397        1.00050001869510
O           -6.60509506879962       -3.04392045178999        1.81781288710855
H           -4.93191834048625       -4.23201535265914        1.81802799995937
H           -5.46332574086256       -3.62682383018215        0.23026463365914
H           -6.50093766487496       -5.99830781402195        1.79967355335961
O           -8.02740034440961       -4.85608264627546        1.06574677820396
H           -6.47938478673318       -5.73136345847465        0.03293041167129
H           -7.84194822573721       -3.90432200501870        1.46322785455468
9
 energy: -15.233239061504 gnorm: 0.010935979899 xtb: 6.7.1 (edcfbbe)
C           -5.83622597612904       -3.97389584945829        1.22031879277236
C           -6.70133770297448       -5.27662120527218        0.99441976129211
O           -6.63709471529210       -3.02879550298136        1.76407477691078
H           -4.96098799275126       -4.22058571299941        1.87263492211994
H           -5.42199072553928       -3.64417463714205        0.23073103486283
H           -6.46534177892581       -6.02277523358492        1.77726283075533
O           -8.03296779008591       -4.86506938777927        1.11318341552591
H           -6.50890237236208       -5.71609433402407        0.00308613063888
H           -7.81465594594002       -3.88631813675846        1.47987033512190
9
 energy: -15.233378146837 gnorm: 0.003113942977 xtb: 6.7.1 (edcfbbe)
C           -5.83566275045636       -3.97308941628125        1.22102879674162
C           -6.69827516263139       -5.27532495905720        0.99807148093805
O           -6.62580226261860       -3.02999285627664        1.77573744432054
H           -4.95483407687014       -4.22355796973294        1.85684088371779
H           -5.43047098920881       -3.63958749249971        0.23113214625701
H           -6.47744763868018       -6.01789474076918        1.78227437877081
O           -8.02343965598995       -4.85896599273193        1.09408632231642
H           -6.50309867344450       -5.72002214887597        0.01336932399115
H           -7.83047379010007       -3.89589442377519        1.48304122294665
9
 energy: -15.233426690307 gnorm: 0.003931470677 xtb: 6.7.1 (edcfbbe)
C           -5.83373094715918       -3.97245567677495        1.22190050879943
C           -6.69926084919253       -5.27332079435780        0.99597131922003
O           -6.62669249784286       -3.02288623529772        1.76395383103096
H           -4.96094331583791       -4.22300872907031        1.86643399127236
H           -5.41774874333889       -3.64722821153754        0.23457849746505
H           -6.46997112145620       -6.01969807339165        1.77341967210289
O           -8.02596268074419       -4.86630109365577        1.10493960752600
H           -6.51022163934201       -5.71267126170922        0.00885250312579
H           -7.83497320508624       -3.89675992420506        1.48553206945752
9
 energy: -15.233493738760 gnorm: 0.004432981154 xtb: 6.7.1 (edcfbbe)
C           -5.83406606958243       -3.97220494962650        1.22116966515099
C           -6.69983904195794       -5.27429428984220        0.99265327456380
O           -6.63781341053503       -3.01379786648290        1.73251481366724
H           -4.98030466602470       -4.21635757740554        1.89232202934351
H           -5.39249294101878       -3.66443903913599        0.24165021225019
H           -6.44953429900025       -6.02951652325844        1.75421908367281
O           -8.02553245547542       -4.87608623963741        1.13445235132328
H           -6.52903980562224       -5.69839101042321       -0.00390342850106
H           -7.83088231078320       -3.88924250418781        1.49050399852930
9
 energy: -15.233535864283 gnorm: 0.005603147567 xtb: 6.7.1 (edcfbbe)
C           -5.83608635408600       -3.97126706826340        1.21954277315893
C           -6.70131129968378       -5.27579120547246        0.99146108552707
O           -6.64696005826831       -2.99893110091418        1.69525339430853
H           -5.00344113086792       -4.20940390243294        1.92151144933421
H           -5.36166754527034       -3.68198462921406        0.24897327455855
H           -6.42999930180523       -6.04492829728530        1.73259105605645
O           -8.02405430845072       -4.88732539870938        1.16635997884352
H           -6.55001488133536       -5.67924865638967       -0.01804125484502
H           -7.82597012023235       -3.88544974131862        1.49793024305782
9
 energy: -15.233577156094 gnorm: 0.004031060988 xtb: 6.7.1 (edcfbbe)
C           -5.83717676584393       -3.97152483295647        1.21929084520208
C           -6.70118826791960       -5.27605194378367        0.99122075520965
O           -6.65059254657223       -2.99566039754561        1.67598493676190
H           -5.01465080084924       -4.20390019263646        1.93478449728343
H           -5.34784644070101       -3.69227527596793        0.25497011838385
H           -6.41993504168306       -6.05097300814462        1.72023640423226
O           -8.02106815094963       -4.89186792304357        1.18501154929248
H           -6.56186276223440       -5.66890211369565       -0.02343515715543
H           -7.82518422324691       -3.88317431222602        1.49751805078985
9
 energy: -15.233614107576 gnorm: 0.003356287833 xtb: 6.7.1 (edcfbbe)
C           -5.83737423820213       -3.97122187024694        1.21947656239240
C           -6.70207485055759       -5.27554058465270        0.99066969371850
O           -6.65541450225078       -2.98613444837647        1.64672405368471
H           -5.02962999450077       -4.19765850151710        1.95489588948485
H           -5.32628337310744       -3.70706697652869        0.26252915590251
H           -6.40747013277089       -6.06073255545523        1.70247615864780
O           -8.01959968762284       -4.89819659265499        1.20998523242251
H           -6.57711123903295       -5.65335388407454       -0.03227633773378
H           -7.82454698195460       -3.88442458649335        1.50110159148056
9
 energy: -15.233653667807 gnorm: 0.002213772658 xtb: 6.7.1 (edcfbbe)
C           -5.83690189603957       -3.97013950050678        1.22078117500923
C           -6.70269086355129       -5.27367789749087        0.99098794742924
O           -6.65441510862353       -2.97469962348942        1.61644577223131
H           -5.04470785741320       -4.19278342755062        1.97465697479175
H           -5.30315825886536       -3.72205323834955        0.27216293930835
H           -6.39491183394190       -6.06963281392724        1.68326924441377
O           -8.01843732973451       -4.90461544308268        1.23695795345513
H           -6.59371825602514       -5.63519784133935       -0.04044501901713
H           -7.83056359580551       -3.89153021426349        1.50076501237841
9
 energy: -15.233659321581 gnorm: 0.001348997686 xtb: 6.7.1 (edcfbbe)
C           -5.83628303334683       -3.96927500009300        1.22086232558164
C           -6.70290249787022       -5.27333819285567        0.98984423556564
O           -6.65626355107707       -2.96806468679729        1.59710541603909
H           -5.05468185464635       -4.18852740818163        1.98946903624928
H           -5.28726888121180       -3.73174917790402        0.27686360078345
H           -6.38581588155817       -6.07496814477983        1.67135086644051
O           -8.01815915091515       -4.90813730393904        1.25411907514125
H           -6.60523702840255       -5.62561774082065       -0.04689300097548
H           -7.83289312097185       -3.89465234462887        1.50286044517468
9
 energy: -15.233657590850 gnorm: 0.002059358493 xtb: 6.7.1 (edcfbbe)
C           -5.83556373914581       -3.96899473960374        1.22143692491245
C           -6.70203745009557       -5.27315970120183        0.99027811096002
O           -6.65162196988957       -2.97113444803674        1.60881025387235
H           -5.04826281326021       -4.19091402124868        1.98090787691670
H           -5.29616555034742       -3.72672570520274        0.27445692918616
H           -6.39182100865618       -6.07055471890963        1.67800281027038
O           -8.01811021187984       -4.90414180056756        1.24407076754127
H           -6.59960428180786       -5.63078073261413       -0.04267585130356
H           -7.83631797491753       -3.89792413261497        1.50029417764429
9
 energy: -15.233662294152 gnorm: 0.000953146040 xtb: 6.7.1 (edcfbbe)
C           -5.83586536989767       -3.96906544775056        1.22121589719587
C           -6.70221223542111       -5.27358773344340        0.99035654297012
O           -6.65253276227758       -2.97084905010671        1.60882210811970
H           -5.04913399782095       -4.19103319794683        1.98131439775250
H           -5.29593670218222       -3.72663637721457        0.27429782174197
H           -6.39089159274478       -6.07152479851993        1.67813652636008
O           -8.01837017592890       -4.90519607953611        1.24476377298059
H           -6.59979212329097       -5.63047045789270       -0.04322479832993
H           -7.83477004043579       -3.89596685758919        1.49989973120914
