9
 energy: -15.233662294165 gnorm: 0.000953672213 xtb: 6.7.1 (edcfbbe)
C           -5.83588188887721       -3.96903275976898        1.22124319552568
C           -6.70223639069154       -5.27355091218174        0.99038914224365
O           -6.65254270159374       -2.97081140958649        1.60885051493726
H           -5.04914902578390       -4.19100330266945        1.98133933727277
H           -5.29595525719457       -3.72660816896308        0.27432281225385
H           -6.39091752519388       -6.07148840692723        1.67816943157722
O           -8.01839151423025       -4.90515192287346        1.24480032354535
H           -6.59982175508377       -5.63043597681691       -0.04319193368430
H           -7.83478520384023       -3.89592321697838        1.49993387944931
