 Entering Gaussian System
 *********************************************
 Gaussian 98:
 frequency output generated by the xtb code
 *********************************************
                         Standard orientation:
 --------------------------------------------------------------------
  Center     Atomic     Atomic              Coordinates (Angstroms)
  Number     Number      Type              X           Y           Z
 --------------------------------------------------------------------
    1          6             0       -6.305358   -3.536629    2.039612
    2          6             0       -6.033337   -4.027991    0.786123
    3          8             0       -9.354393   -5.313076    2.906618
    4          1             0       -7.634410   -3.577987    3.743727
    5          6             0       -6.872609   -4.992220    0.163461
    6          1             0       -5.163732   -3.690531    0.233851
    7          6             0       -7.999129   -5.404766    0.923910
    8          8             0       -6.633918   -5.462661   -1.007435
    9          6             0       -8.255015   -4.900926    2.179619
   10          1             0       -8.661770   -6.140332    0.478581
   11          6             0       -7.412943   -3.958161    2.758954
   12          1             0       -5.640329   -2.802772    2.478308
   13          1             0       -9.847001   -5.965437    2.387778
 --------------------------------------------------------------------
     1 basis functions        1 primitive gaussians
     1 alpha electrons        1 beta electrons
 
 Harmonic frequencies (cm**-1), IR intensities (km*mol⁻¹),
 Raman scattering activities (A**4/amu), Raman depolarization ratios,
 reduced masses (AMU), force constants (mDyne/A) and normal coordinates:
                      1                      2                      3
                        a                      a                      a 
 Frequencies --   198.9559               218.2217               328.2706
 Red. masses --    11.9327                11.6256                13.4996
 Frc consts  --     0.0000                 0.0000                 0.0000
 IR Inten    --    16.4941                 0.1087                32.1227
 Raman Activ --     0.0000                 0.0000                 0.0000
 Depolar     --     0.0000                 0.0000                 0.0000
 Atom AN      X      Y      Z        X      Y      Z        X      Y      Z
   1   6    -0.01   0.01  -0.00     0.00  -0.01   0.00    -0.08  -0.06  -0.00
   2   6    -0.21   0.28  -0.16     0.21  -0.29   0.16    -0.12  -0.07   0.02
   3   8     0.06  -0.08   0.04     0.29  -0.39   0.21     0.13   0.36   0.48
   4   1     0.13  -0.18   0.10    -0.07   0.10  -0.05    -0.06  -0.07  -0.04
   5   6    -0.08   0.11  -0.06    -0.03   0.04  -0.02    -0.05  -0.07  -0.05
   6   1    -0.08   0.10  -0.06     0.15  -0.20   0.11    -0.04  -0.03  -0.00
   7   6    -0.27   0.37  -0.20    -0.25   0.34  -0.19    -0.16  -0.21  -0.17
   8   8     0.30  -0.41   0.23     0.03  -0.05   0.03     0.45   0.27  -0.11
   9   6    -0.03   0.04  -0.02    -0.12   0.17  -0.09    -0.08  -0.14  -0.14
  10   1    -0.10   0.14  -0.08    -0.08   0.11  -0.06    -0.04  -0.06  -0.05
  11   6     0.20  -0.27   0.15    -0.22   0.29  -0.16    -0.09  -0.15  -0.14
  12   1     0.01  -0.02   0.01     0.02  -0.03   0.02    -0.03  -0.02   0.01
  13   1    -0.04   0.05  -0.03     0.09  -0.12   0.06    -0.09   0.07   0.26
                      4                      5                      6
                        a                      a                      a 
 Frequencies --   386.0484               421.7349               472.2569
 Red. masses --     3.3655                 8.3316                11.6278
 Frc consts  --     0.0000                 0.0000                 0.0000
 IR Inten    --   141.6619                44.6921                 1.8382
 Raman Activ --     0.0000                 0.0000                 0.0000
 Depolar     --     0.0000                 0.0000                 0.0000
 Atom AN      X      Y      Z        X      Y      Z        X      Y      Z
   1   6    -0.15   0.20  -0.11    -0.26   0.35  -0.19    -0.03   0.01   0.06
   2   6     0.10  -0.14   0.07     0.18  -0.24   0.13    -0.40  -0.25   0.09
   3   8     0.10  -0.13   0.08    -0.12   0.16  -0.09     0.16  -0.02  -0.26
   4   1    -0.01   0.02  -0.01     0.03  -0.04   0.02     0.02   0.06   0.09
   5   6     0.07  -0.10   0.05     0.12  -0.16   0.09    -0.24  -0.24  -0.12
   6   1     0.01  -0.02   0.01     0.02  -0.02   0.01    -0.12  -0.09  -0.00
   7   6    -0.03   0.04  -0.02    -0.12   0.17  -0.09    -0.12  -0.05   0.08
   8   8    -0.04   0.06  -0.03    -0.06   0.08  -0.04     0.30   0.12  -0.19
   9   6     0.10  -0.13   0.07     0.13  -0.18   0.10     0.21   0.21   0.10
  10   1    -0.07   0.09  -0.05    -0.14   0.18  -0.10    -0.13  -0.01   0.16
  11   6     0.03  -0.04   0.02     0.17  -0.24   0.13     0.06   0.21   0.31
  12   1    -0.11   0.15  -0.08    -0.19   0.25  -0.14     0.06   0.00  -0.09
  13   1    -0.47   0.63  -0.35     0.22  -0.30   0.17     0.11  -0.00  -0.14
                      7                      8                      9
                        a                      a                      a 
 Frequencies --   496.8012               517.2490               593.3430
 Red. masses --    12.7611                12.8184                11.5431
 Frc consts  --     0.0000                 0.0000                 0.0000
 IR Inten    --     9.6640                 4.9538                 2.8355
 Raman Activ --     0.0000                 0.0000                 0.0000
 Depolar     --     0.0000                 0.0000                 0.0000
 Atom AN      X      Y      Z        X      Y      Z        X      Y      Z
   1   6    -0.19   0.03   0.32    -0.23  -0.21  -0.07    -0.05   0.07  -0.04
   2   6    -0.11   0.06   0.25     0.06  -0.03  -0.12    -0.00  -0.00   0.00
   3   8     0.39   0.26  -0.06    -0.23  -0.03   0.26     0.10  -0.14   0.08
   4   1    -0.16  -0.09   0.05     0.04   0.06   0.07     0.10  -0.14   0.08
   5   6     0.12   0.01  -0.14     0.22  -0.01  -0.32     0.23  -0.32   0.18
   6   1     0.00   0.09   0.16     0.05   0.07   0.07    -0.09   0.12  -0.06
   7   6     0.14  -0.01  -0.20     0.28   0.28   0.13     0.08  -0.11   0.06
   8   8    -0.32  -0.32  -0.15     0.14  -0.13  -0.42    -0.08   0.11  -0.06
   9   6     0.16  -0.01  -0.24    -0.11   0.06   0.25    -0.42   0.57  -0.31
  10   1     0.04  -0.00  -0.06     0.06   0.08   0.05    -0.01   0.02  -0.01
  11   6    -0.17  -0.03   0.17    -0.13   0.05   0.26     0.13  -0.18   0.10
  12   1    -0.06   0.01   0.09    -0.05  -0.06  -0.03    -0.02   0.03  -0.02
  13   1     0.02   0.06   0.07    -0.05  -0.01   0.06    -0.00   0.00  -0.00
                     10                     11                     12
                        a                      a                      a 
 Frequencies --   653.5695               746.7045               758.4044
 Red. masses --     9.9643                12.8480                 3.7325
 Frc consts  --     0.0000                 0.0000                 0.0000
 IR Inten    --    16.5081                26.9013                56.1684
 Raman Activ --     0.0000                 0.0000                 0.0000
 Depolar     --     0.0000                 0.0000                 0.0000
 Atom AN      X      Y      Z        X      Y      Z        X      Y      Z
   1   6     0.19  -0.25   0.14     0.39   0.45   0.29     0.11  -0.14   0.08
   2   6    -0.15   0.21  -0.11    -0.07   0.07   0.23     0.07  -0.09   0.05
   3   8    -0.00   0.00  -0.00    -0.36  -0.16   0.19     0.03  -0.04   0.02
   4   1    -0.07   0.10  -0.05    -0.01  -0.02  -0.02    -0.37   0.50  -0.28
   5   6     0.34  -0.46   0.25     0.02  -0.08  -0.18    -0.15   0.20  -0.11
   6   1    -0.17   0.22  -0.12    -0.02  -0.00   0.03    -0.19   0.26  -0.14
   7   6    -0.13   0.18  -0.10    -0.07  -0.11  -0.10     0.08  -0.11   0.06
   8   8    -0.08   0.10  -0.06     0.01  -0.18  -0.33     0.05  -0.07   0.04
   9   6     0.13  -0.17   0.10    -0.04  -0.03   0.00    -0.08   0.11  -0.06
  10   1    -0.15   0.20  -0.11    -0.03  -0.03  -0.02    -0.15   0.21  -0.11
  11   6    -0.16   0.22  -0.12     0.18   0.08  -0.10     0.13  -0.18   0.10
  12   1    -0.03   0.05  -0.03     0.11   0.12   0.07    -0.15   0.21  -0.11
  13   1     0.02  -0.03   0.02    -0.07  -0.03   0.03     0.01  -0.01   0.01
                     13                     14                     15
                        a                      a                      a 
 Frequencies --   799.2175               834.4985               902.1580
 Red. masses --     4.5008                 3.2351                 2.9472
 Frc consts  --     0.0000                 0.0000                 0.0000
 IR Inten    --     6.1477                 0.1875                 0.1149
 Raman Activ --     0.0000                 0.0000                 0.0000
 Depolar     --     0.0000                 0.0000                 0.0000
 Atom AN      X      Y      Z        X      Y      Z        X      Y      Z
   1   6    -0.01   0.02  -0.01    -0.07   0.09  -0.05    -0.19   0.26  -0.14
   2   6    -0.12   0.17  -0.09    -0.17   0.23  -0.13     0.09  -0.13   0.07
   3   8     0.00  -0.00   0.00     0.01  -0.01   0.01     0.00  -0.00   0.00
   4   1    -0.28   0.38  -0.21    -0.10   0.13  -0.07    -0.12   0.16  -0.09
   5   6     0.13  -0.18   0.10     0.04  -0.05   0.03     0.04  -0.06   0.03
   6   1     0.20  -0.27   0.15     0.30  -0.41   0.23    -0.23   0.31  -0.17
   7   6    -0.17   0.23  -0.12     0.15  -0.20   0.11    -0.04   0.05  -0.03
   8   8    -0.04   0.06  -0.03    -0.01   0.01  -0.00    -0.00   0.00  -0.00
   9   6    -0.01   0.02  -0.01    -0.01   0.01  -0.01     0.04  -0.06   0.03
  10   1     0.29  -0.39   0.22    -0.33   0.45  -0.25     0.00  -0.00   0.00
  11   6     0.17  -0.24   0.13     0.04  -0.06   0.03     0.03  -0.05   0.03
  12   1     0.00  -0.01   0.00     0.15  -0.20   0.11     0.42  -0.57   0.32
  13   1    -0.01   0.01  -0.01     0.00  -0.01   0.01    -0.00   0.00  -0.00
                     16                     17                     18
                        a                      a                      a 
 Frequencies --   967.3298               984.9328              1102.6367
 Red. masses --    10.8180                 9.5477                 4.4135
 Frc consts  --     0.0000                 0.0000                 0.0000
 IR Inten    --     9.8390                73.5936                64.9326
 Raman Activ --     0.0000                 0.0000                 0.0000
 Depolar     --     0.0000                 0.0000                 0.0000
 Atom AN      X      Y      Z        X      Y      Z        X      Y      Z
   1   6     0.06   0.04   0.00     0.01   0.06   0.10     0.17   0.17   0.07
   2   6    -0.50  -0.28   0.17     0.13   0.14   0.07     0.15  -0.02  -0.23
   3   8     0.01   0.01   0.01     0.25   0.10  -0.16     0.06  -0.03  -0.13
   4   1     0.00  -0.05  -0.10    -0.03  -0.08  -0.10    -0.42  -0.26   0.09
   5   6     0.02   0.03   0.01    -0.11  -0.10  -0.03    -0.08  -0.05   0.02
   6   1    -0.16  -0.13  -0.02     0.04   0.05   0.04    -0.07  -0.28  -0.41
   7   6     0.44   0.38   0.09    -0.10   0.13   0.37     0.11   0.14   0.10
   8   8    -0.03   0.05   0.12     0.08  -0.07  -0.24     0.02   0.01  -0.01
   9   6    -0.07  -0.06  -0.01    -0.18  -0.01   0.23    -0.04  -0.06  -0.06
  10   1     0.19   0.10  -0.07    -0.18   0.04   0.30    -0.05   0.04   0.14
  11   6     0.06  -0.15  -0.36    -0.08  -0.27  -0.38    -0.19  -0.01   0.22
  12   1     0.06   0.00  -0.08    -0.17   0.02   0.28     0.06   0.05   0.01
  13   1    -0.03  -0.00   0.04     0.13   0.03  -0.12    -0.28  -0.04   0.30
                     19                     20                     21
                        a                      a                      a 
 Frequencies --  1121.3810              1162.1025              1186.7056
 Red. masses --     3.0721                 3.4894                 6.0564
 Frc consts  --     0.0000                 0.0000                 0.0000
 IR Inten    --   233.8122               204.4683               296.1683
 Raman Activ --     0.0000                 0.0000                 0.0000
 Depolar     --     0.0000                 0.0000                 0.0000
 Atom AN      X      Y      Z        X      Y      Z        X      Y      Z
   1   6     0.04   0.02  -0.01    -0.01  -0.07  -0.10    -0.11  -0.07   0.02
   2   6     0.05  -0.01  -0.09    -0.03  -0.01   0.02    -0.00   0.01   0.01
   3   8    -0.11   0.06   0.27    -0.15  -0.07   0.08    -0.23  -0.08   0.17
   4   1    -0.38  -0.27   0.02    -0.37  -0.28  -0.02     0.15   0.09  -0.03
   5   6    -0.05  -0.03   0.01     0.08   0.01  -0.09    -0.02  -0.06  -0.07
   6   1    -0.03  -0.11  -0.15     0.11   0.28   0.37    -0.07  -0.17  -0.21
   7   6     0.04  -0.00  -0.06    -0.01   0.03   0.07     0.18   0.04  -0.17
   8   8     0.01   0.01   0.01    -0.03   0.05   0.14    -0.05   0.04   0.14
   9   6     0.10   0.11   0.06     0.23   0.08  -0.16     0.38   0.16  -0.21
  10   1     0.13  -0.00  -0.19    -0.27   0.02   0.40    -0.20   0.02   0.31
  11   6    -0.12  -0.08   0.02     0.07  -0.02  -0.13     0.03  -0.01  -0.07
  12   1     0.00   0.01   0.01     0.17  -0.03  -0.28    -0.35  -0.00   0.46
  13   1     0.50   0.08  -0.53    -0.05  -0.02   0.03    -0.01  -0.01  -0.00
                     22                     23                     24
                        a                      a                      a 
 Frequencies --  1259.9975              1297.0812              1367.2316
 Red. masses --     5.5510                 9.2981                10.4094
 Frc consts  --     0.0000                 0.0000                 0.0000
 IR Inten    --    11.3535                46.8634               319.9397
 Raman Activ --     0.0000                 0.0000                 0.0000
 Depolar     --     0.0000                 0.0000                 0.0000
 Atom AN      X      Y      Z        X      Y      Z        X      Y      Z
   1   6     0.09  -0.01  -0.14     0.17   0.08  -0.09    -0.20  -0.19  -0.07
   2   6     0.06   0.02  -0.05     0.16   0.21   0.17     0.09   0.26   0.35
   3   8    -0.04  -0.05  -0.05     0.02   0.04   0.05    -0.09  -0.06   0.00
   4   1    -0.17  -0.12   0.01     0.23   0.18   0.01    -0.02  -0.05  -0.06
   5   6    -0.43  -0.31   0.02    -0.35  -0.29  -0.05    -0.13   0.11   0.37
   6   1     0.12   0.25   0.30     0.04   0.04   0.02    -0.08  -0.17  -0.19
   7   6     0.11   0.08   0.00     0.31   0.07  -0.29    -0.05  -0.00   0.06
   8   8     0.04   0.04   0.02    -0.02   0.04   0.10     0.06  -0.15  -0.35
   9   6     0.16   0.17   0.08    -0.06  -0.03   0.04     0.31   0.24   0.02
  10   1     0.28   0.01  -0.34    -0.10   0.02   0.18     0.08   0.00  -0.10
  11   6     0.05   0.03  -0.01    -0.36  -0.22   0.09     0.01  -0.08  -0.17
  12   1    -0.20   0.01   0.28     0.22   0.02  -0.26     0.11  -0.07  -0.26
  13   1    -0.18  -0.03   0.18     0.07   0.02  -0.06    -0.11  -0.02   0.11
                     25                     26                     27
                        a                      a                      a 
 Frequencies --  1463.5747              1505.5853              1545.4705
 Red. masses --    10.6298                10.9499                11.2642
 Frc consts  --     0.0000                 0.0000                 0.0000
 IR Inten    --    10.4926               475.5158               140.9482
 Raman Activ --     0.0000                 0.0000                 0.0000
 Depolar     --     0.0000                 0.0000                 0.0000
 Atom AN      X      Y      Z        X      Y      Z        X      Y      Z
   1   6    -0.18   0.10   0.42    -0.17  -0.01   0.21     0.30   0.15  -0.13
   2   6     0.14  -0.07  -0.31     0.11   0.12   0.08    -0.15  -0.18  -0.14
   3   8    -0.08  -0.01   0.09     0.01  -0.03  -0.06    -0.03  -0.02  -0.00
   4   1     0.19   0.13  -0.02     0.02  -0.01  -0.05     0.15   0.11  -0.00
   5   6    -0.21  -0.12   0.07     0.14  -0.22  -0.60     0.22   0.19   0.05
   6   1     0.08   0.07   0.02    -0.02  -0.11  -0.17     0.01   0.07   0.10
   7   6    -0.03   0.17   0.36    -0.17  -0.06   0.12    -0.19  -0.06   0.15
   8   8     0.06   0.01  -0.05    -0.07   0.13   0.32    -0.00  -0.02  -0.04
   9   6     0.17  -0.14  -0.48     0.13   0.21   0.21     0.32   0.24   0.02
  10   1     0.12   0.05  -0.06     0.11  -0.03  -0.19     0.05  -0.01  -0.08
  11   6    -0.01  -0.03  -0.03    -0.01  -0.11  -0.18    -0.52  -0.36   0.05
  12   1     0.13   0.02  -0.14     0.10  -0.01  -0.15     0.01   0.04   0.07
  13   1     0.06   0.01  -0.07    -0.09  -0.01   0.09    -0.05  -0.01   0.06
                     28                     29                     30
                        a                      a                      a 
 Frequencies --  1611.3767              3000.7156              3009.5580
 Red. masses --    11.5524                 1.8078                 1.7470
 Frc consts  --     0.0000                 0.0000                 0.0000
 IR Inten    --   552.0416               348.1082               192.8374
 Raman Activ --     0.0000                 0.0000                 0.0000
 Depolar     --     0.0000                 0.0000                 0.0000
 Atom AN      X      Y      Z        X      Y      Z        X      Y      Z
   1   6    -0.20   0.09   0.43     0.00   0.01   0.00    -0.10  -0.11  -0.06
   2   6     0.02  -0.21  -0.40    -0.07  -0.03   0.05     0.15   0.06  -0.10
   3   8     0.01  -0.02  -0.04     0.00   0.00  -0.00     0.00   0.00  -0.00
   4   1     0.01  -0.02  -0.05    -0.01   0.01   0.03     0.00  -0.00  -0.01
   5   6    -0.05   0.09   0.23    -0.00  -0.01  -0.01     0.01  -0.00  -0.01
   6   1     0.06   0.07   0.05     0.26   0.10  -0.17    -0.57  -0.22   0.36
   7   6     0.15  -0.11  -0.40    -0.15  -0.17  -0.11    -0.05  -0.05  -0.03
   8   8     0.01  -0.01  -0.03     0.00   0.00   0.00    -0.00   0.00   0.00
   9   6     0.02   0.24   0.41    -0.01  -0.01   0.01    -0.00  -0.00   0.01
  10   1    -0.08  -0.02   0.06     0.55   0.61   0.38     0.17   0.19   0.12
  11   6     0.04  -0.08  -0.19     0.01  -0.00  -0.01    -0.00  -0.00  -0.00
  12   1     0.08   0.01  -0.08    -0.03  -0.03  -0.02     0.37   0.40   0.24
  13   1    -0.05  -0.01   0.06     0.00   0.00  -0.00     0.00   0.00   0.00
                     31                     32                     33
                        a                      a                      a 
 Frequencies --  3029.2118              3083.8750              3474.2317
 Red. masses --     1.8531                 1.8423                 1.8666
 Frc consts  --     0.0000                 0.0000                 0.0000
 IR Inten    --   274.1385               147.1631                82.2712
 Raman Activ --     0.0000                 0.0000                 0.0000
 Depolar     --     0.0000                 0.0000                 0.0000
 Atom AN      X      Y      Z        X      Y      Z        X      Y      Z
   1   6    -0.13  -0.14  -0.09    -0.03  -0.03  -0.02    -0.00  -0.00  -0.00
   2   6    -0.13  -0.05   0.08    -0.02  -0.01   0.02    -0.00   0.00   0.00
   3   8    -0.00  -0.00   0.00    -0.00   0.00   0.00    -0.12  -0.16  -0.13
   4   1     0.03  -0.06  -0.16    -0.19   0.34   0.86    -0.00   0.00   0.01
   5   6    -0.00   0.01   0.01    -0.00   0.00   0.00    -0.00  -0.00   0.00
   6   1     0.45   0.18  -0.28     0.07   0.03  -0.05     0.00   0.00  -0.00
   7   6     0.03   0.03   0.02     0.01   0.01   0.01     0.00   0.00   0.00
   8   8     0.00  -0.00  -0.01     0.00  -0.00  -0.00     0.00  -0.00  -0.00
   9   6     0.00   0.00   0.00     0.01   0.00  -0.01    -0.01  -0.01   0.00
  10   1    -0.10  -0.11  -0.06    -0.04  -0.04  -0.03    -0.00  -0.00   0.00
  11   6    -0.01   0.01   0.04     0.05  -0.10  -0.24     0.00  -0.00  -0.00
  12   1     0.46   0.50   0.30     0.09   0.09   0.06     0.00   0.00   0.00
  13   1    -0.00  -0.00  -0.00    -0.01  -0.01  -0.00     0.50   0.66   0.51
