13
 energy: -23.816282462932 gnorm: 0.056684427870 xtb: 6.7.1 (edcfbbe)
C           -6.30913800000000       -3.52902900000000        2.05864300000000
C           -6.05682900000000       -4.04909200000000        0.77904300000000
O           -9.35076500000000       -5.31076500000000        2.90562500000000
H           -7.62853900000000       -3.56412700000000        3.76202300000000
C           -6.88281600000000       -5.00450400000000        0.15517100000000
H           -5.17882500000000       -3.69915300000000        0.23689200000000
C           -7.99455000000000       -5.40442600000000        0.91981500000000
O           -6.64512900000000       -5.47071700000000       -1.00733300000000
C           -8.25758900000000       -4.89341600000000        2.19739300000000
H           -8.66183200000000       -6.14149200000000        0.47876800000000
C           -7.41993400000000       -3.95533500000000        2.77427000000000
H           -5.63098600000000       -2.79521500000000        2.47923100000000
H           -9.79675900000000       -5.95675100000000        2.33312500000000
13
 energy: -23.818312960387 gnorm: 0.018655813700 xtb: 6.7.1 (edcfbbe)
C           -6.30590145146859       -3.53404118087097        2.04511814512027
C           -6.04336468515774       -4.03547729311753        0.78569501387656
O           -9.35665842239814       -5.31645937538410        2.90385325296033
H           -7.62734337547104       -3.57062249424283        3.74829444845003
C           -6.87776193577335       -4.99681142004029        0.16231602464654
H           -5.16817955138267       -3.68794277649015        0.24333589767738
C           -7.99888300071869       -5.40347689700760        0.92692760287423
O           -6.63926208966007       -5.46609746898559       -1.00653764133537
C           -8.25815800655264       -4.89850615271419        2.18892250670654
H           -8.66782206831082       -6.13973283538580        0.48924994936073
C           -7.41459672139745       -3.95785359007417        2.76237806164227
H           -5.63281663580416       -2.80193852744851        2.46955940862734
H           -9.82294305590463       -5.96506198823827        2.35355332939317
13
 energy: -23.818607106167 gnorm: 0.003617129307 xtb: 6.7.1 (edcfbbe)
C           -6.30533374571299       -3.53676485136261        2.03933778280248
C           -6.03523864734714       -4.02884324467812        0.78697323735662
O           -9.35715628502272       -5.31646519919657        2.90485282870478
H           -7.63026765060702       -3.57492762339773        3.74418062380677
C           -6.87399950865898       -4.99297788961981        0.16412238357031
H           -5.16370873832034       -3.68735973325615        0.23899195990181
C           -7.99935153069159       -5.40338540497760        0.92722536702306
O           -6.63589646830133       -5.46401812789165       -1.00705072761465
C           -8.25657483626890       -4.90049990596086        2.18295598773999
H           -8.66571331172863       -6.13922516129460        0.48658481883080
C           -7.41272542526540       -3.95820142013080        2.75896110870077
H           -5.63749022305040       -2.80390863349048        2.47222776235672
H           -9.84023462902455       -5.96744480474302        2.37330286682052
13
 energy: -23.818636816567 gnorm: 0.001614458290 xtb: 6.7.1 (edcfbbe)
C           -6.30549197867577       -3.53699784208950        2.03912447278366
C           -6.03336049608500       -4.02789886255163        0.78626965695403
O           -9.35593687077796       -5.31491653754744        2.90591493099107
H           -7.63247387357066       -3.57649276590953        3.74411126181795
C           -6.87289356545189       -4.99242075297218        0.16360990578954
H           -5.16325610506637       -3.68924015307606        0.23530238629986
C           -7.99902837967289       -5.40397978768993        0.92548698172281
O           -6.63489465314097       -5.46353781717234       -1.00754921956940
C           -8.25554860904446       -4.90072556390349        2.18101612695747
H           -8.66335297270454       -6.13970925709827        0.48220725770152
C           -7.41275707417699       -3.95801676115258        2.75917300494658
H           -5.63970682669181       -2.80339132587544        2.47621518581006
H           -9.84498959494068       -5.96669457296162        2.38178404779485
13
 energy: -23.818641825604 gnorm: 0.000863148813 xtb: 6.7.1 (edcfbbe)
C           -6.30548171678952       -3.53676621814597        2.03957424175036
C           -6.03292310750593       -4.02787712984652        0.78583895663005
O           -9.35421534317740       -5.31298128251410        2.90674983617005
H           -7.63462586781049       -3.57807759484117        3.74388656607740
C           -6.87240331019861       -4.99219842393527        0.16326364879641
H           -5.16368256857131       -3.69109371825786        0.23287935725618
C           -7.99893475087798       -5.40484579627009        0.92355995150445
O           -6.63394200750375       -5.46277336870549       -1.00752675596559
C           -8.25472441168077       -4.90090579841167        2.17936046244330
H           -8.66121240810798       -6.14041781379491        0.47772744593109
C           -7.41296001313421       -3.95805318818031        2.75921042351495
H           -5.64092338404606       -2.80266491316093        2.47930994913078
H           -9.84766211059598       -5.96536675393571        2.38883191676057
13
 energy: -23.818642833162 gnorm: 0.000175746847 xtb: 6.7.1 (edcfbbe)
C           -6.30534624134012       -3.53666490514462        2.03958313333625
C           -6.03331840195830       -4.02802327885800        0.78609473844723
O           -9.35437474103011       -5.31313004072427        2.90657620962417
H           -7.63440327086490       -3.57803306766208        3.74369348586283
C           -6.87258294823178       -4.99225602687140        0.16342855560084
H           -5.16371316925966       -3.69055835510762        0.23382693253187
C           -7.99910272707309       -5.40480937188670        0.92387208231712
O           -6.63388535193634       -5.46269323601747       -1.00746764191373
C           -8.25499605324080       -4.90097261758111        2.17958114451267
H           -8.66173825195245       -6.14037802137345        0.47854041898798
C           -7.41293074236293       -3.95820470093449        2.75892103375652
H           -5.64032227047036       -2.80280587145524        2.47828335826873
H           -9.84697683027916       -5.96549250638353        2.38773254866754
