13
 energy: -23.818642833185 gnorm: 0.000176642422 xtb: 6.7.1 (edcfbbe)
C           -6.30535763962102       -3.53662833066821        2.03961131577591
C           -6.03333674849940       -4.02799031643560        0.78612282892229
O           -9.35439241440484       -5.31307598837238        2.90661813569105
H           -7.63440893723956       -3.57798656005621        3.74372637977480
C           -6.87260851698195       -4.99221975680155        0.16346125857018
H           -5.16373167664118       -3.69053090981177        0.23385139852882
C           -7.99912780146709       -5.40476587615636        0.92390943761794
O           -6.63391747110130       -5.46266025933612       -1.00743495107944
C           -8.25501410628673       -4.90092559040131        2.17961851367912
H           -8.66176873226212       -6.14033183332265        0.47858137113600
C           -7.41294183682700       -3.95816107168444        2.75895381811569
H           -5.64032829493530       -2.80277201337906        2.47830793850783
H           -9.84699973051282       -5.96543678030673        2.38777733283134
