 Entering Gaussian System
 *********************************************
 Gaussian 98:
 frequency output generated by the xtb code
 *********************************************
                         Standard orientation:
 --------------------------------------------------------------------
  Center     Atomic     Atomic              Coordinates (Angstroms)
  Number     Number      Type              X           Y           Z
 --------------------------------------------------------------------
    1          6             0       -3.100212   -2.912532    0.330476
    2          6             0       -4.607751   -3.380924    0.310950
    3          9             0       -2.248591   -3.871519   -0.162749
    4          9             0       -2.837415   -1.819191   -0.418389
    5          9             0       -2.609914   -2.633421    1.557932
    6          8             0       -5.455990   -2.531320    0.761871
    7          1             0       -4.526310   -4.376763    0.874303
    8          1             0       -4.719163   -3.686566   -0.788969
 --------------------------------------------------------------------
     1 basis functions        1 primitive gaussians
     1 alpha electrons        1 beta electrons
 
 Harmonic frequencies (cm**-1), IR intensities (km*mol⁻¹),
 Raman scattering activities (A**4/amu), Raman depolarization ratios,
 reduced masses (AMU), force constants (mDyne/A) and normal coordinates:
                      1                      2                      3
                        a                      a                      a 
 Frequencies --    88.0005               176.0498               269.0114
 Red. masses --    12.8060                17.4057                13.5062
 Frc consts  --     0.0000                 0.0000                 0.0000
 IR Inten    --    13.3168                10.4109                 0.3449
 Raman Activ --     0.0000                 0.0000                 0.0000
 Depolar     --     0.0000                 0.0000                 0.0000
 Atom AN      X      Y      Z        X      Y      Z        X      Y      Z
   1   6     0.01  -0.04   0.09     0.04   0.17   0.07     0.02  -0.08   0.18
   2   6     0.04  -0.13   0.32    -0.02   0.04   0.02    -0.04   0.14  -0.33
   3   9    -0.02   0.07  -0.17    -0.44  -0.12   0.00     0.02  -0.08   0.20
   4   9    -0.28   0.05   0.19     0.41   0.14   0.04    -0.50  -0.11   0.08
   5   9     0.31  -0.15   0.04     0.40   0.16  -0.01     0.51   0.06   0.03
   6   8    -0.06   0.23  -0.55    -0.47  -0.38  -0.10    -0.01   0.04  -0.09
   7   1     0.01   0.09   0.33     0.07   0.01  -0.00    -0.15  -0.08  -0.30
   8   1     0.05  -0.30   0.16     0.07   0.01  -0.00     0.09   0.28  -0.18
                      4                      5                      6
                        a                      a                      a 
 Frequencies --   368.8719               461.6411               462.3557
 Red. masses --    16.3814                17.9319                17.1151
 Frc consts  --     0.0000                 0.0000                 0.0000
 IR Inten    --     6.4475                11.2219                25.2328
 Raman Activ --     0.0000                 0.0000                 0.0000
 Depolar     --     0.0000                 0.0000                 0.0000
 Atom AN      X      Y      Z        X      Y      Z        X      Y      Z
   1   6     0.03  -0.03  -0.02    -0.03   0.10  -0.27    -0.01  -0.23  -0.09
   2   6    -0.39   0.12   0.09    -0.01  -0.00  -0.00    -0.32  -0.15  -0.02
   3   9     0.51   0.26   0.05     0.07  -0.23   0.55     0.25  -0.27  -0.16
   4   9     0.14  -0.16  -0.21    -0.11   0.50   0.00     0.11   0.07   0.54
   5   9     0.17  -0.25   0.00     0.07  -0.33  -0.39     0.00   0.45  -0.32
   6   8    -0.52   0.07   0.09     0.00  -0.01   0.04    -0.06   0.08   0.04
   7   1    -0.11   0.05   0.03     0.08   0.04   0.07    -0.12  -0.03  -0.00
   8   1    -0.11   0.05   0.03    -0.07  -0.09   0.03    -0.12  -0.03   0.00
                      7                      8                      9
                        a                      a                      a 
 Frequencies --   602.0373               680.2061               937.3841
 Red. masses --    16.0564                15.1194                 9.2629
 Frc consts  --     0.0000                 0.0000                 0.0000
 IR Inten    --    43.9153                33.5075               204.2219
 Raman Activ --     0.0000                 0.0000                 0.0000
 Depolar     --     0.0000                 0.0000                 0.0000
 Atom AN      X      Y      Z        X      Y      Z        X      Y      Z
   1   6     0.32   0.02  -0.03    -0.21  -0.08  -0.01    -0.05   0.16  -0.37
   2   6     0.22   0.35   0.12     0.47   0.38   0.10    -0.05   0.18  -0.44
   3   9     0.24  -0.53  -0.25     0.03   0.18   0.07     0.00  -0.01   0.02
   4   9    -0.24   0.17  -0.08    -0.01  -0.36   0.30    -0.10  -0.25   0.17
   5   9    -0.20   0.05   0.22    -0.10  -0.05  -0.46     0.15   0.07   0.28
   6   8    -0.30  -0.04   0.02    -0.20  -0.04   0.00     0.01  -0.05   0.12
   7   1     0.09   0.10   0.03     0.13   0.07   0.01     0.31   0.22   0.22
   8   1     0.09   0.10   0.03     0.13   0.07   0.02    -0.28  -0.33   0.06
                     10                     11                     12
                        a                      a                      a 
 Frequencies --   976.3091              1077.5265              1114.5085
 Red. masses --    13.3808                10.8475                13.7815
 Frc consts  --     0.0000                 0.0000                 0.0000
 IR Inten    --   243.1395                99.2408               104.3018
 Raman Activ --     0.0000                 0.0000                 0.0000
 Depolar     --     0.0000                 0.0000                 0.0000
 Atom AN      X      Y      Z        X      Y      Z        X      Y      Z
   1   6     0.47  -0.67  -0.33     0.08  -0.28   0.67    -0.69  -0.44  -0.10
   2   6     0.01   0.13   0.05    -0.04   0.16  -0.38     0.21   0.09   0.01
   3   9    -0.27   0.29   0.15    -0.00   0.02  -0.04     0.14  -0.08  -0.05
   4   9    -0.03   0.10  -0.00     0.02   0.17  -0.15     0.11   0.27  -0.16
   5   9    -0.02   0.06   0.08    -0.06  -0.02  -0.22     0.17   0.09   0.28
   6   8    -0.05  -0.03  -0.01     0.01  -0.05   0.11    -0.03   0.00   0.01
   7   1    -0.04   0.00   0.01     0.08   0.16   0.24    -0.02  -0.03  -0.03
   8   1    -0.04   0.00   0.01    -0.05  -0.29   0.06    -0.02  -0.04   0.00
                     13                     14                     15
                        a                      a                      a 
 Frequencies --  1262.5155              1283.6019              1342.6007
 Red. masses --     2.2497                13.4038                 3.0373
 Frc consts  --     0.0000                 0.0000                 0.0000
 IR Inten    --    16.7358               526.2685                80.4268
 Raman Activ --     0.0000                 0.0000                 0.0000
 Depolar     --     0.0000                 0.0000                 0.0000
 Atom AN      X      Y      Z        X      Y      Z        X      Y      Z
   1   6    -0.02   0.08  -0.18     0.11   0.01  -0.01    -0.05  -0.13  -0.05
   2   6    -0.01   0.05  -0.14     0.46  -0.51  -0.26    -0.26  -0.17  -0.04
   3   9     0.00  -0.00   0.01    -0.04   0.01   0.01     0.01   0.01   0.00
   4   9     0.01  -0.02   0.02     0.00   0.02  -0.01    -0.00   0.01  -0.00
   5   9    -0.00  -0.00   0.03     0.01   0.01   0.01    -0.00   0.00   0.01
   6   8     0.01  -0.07   0.18    -0.43   0.43   0.22    -0.05   0.20   0.09
   7   1    -0.60   0.18   0.24    -0.06  -0.05  -0.08     0.64   0.05   0.02
   8   1     0.62  -0.25  -0.08    -0.07  -0.09   0.04     0.63   0.10  -0.11
                     16                     17                     18
                        a                      a                      a 
 Frequencies --  1486.7633              2205.2063              2386.8583
 Red. masses --     1.8128                 1.7151                 1.2898
 Frc consts  --     0.0000                 0.0000                 0.0000
 IR Inten    --   107.4295               529.9306               420.2312
 Raman Activ --     0.0000                 0.0000                 0.0000
 Depolar     --     0.0000                 0.0000                 0.0000
 Atom AN      X      Y      Z        X      Y      Z        X      Y      Z
   1   6     0.04   0.04   0.01    -0.01   0.02  -0.05    -0.02  -0.03  -0.01
   2   6    -0.07   0.21   0.10    -0.03   0.09  -0.23    -0.05  -0.10  -0.03
   3   9     0.01  -0.01  -0.00     0.00  -0.00   0.00    -0.00   0.01   0.00
   4   9    -0.00  -0.01   0.00     0.00  -0.00   0.00    -0.00  -0.00   0.00
   5   9    -0.00  -0.00  -0.01    -0.00  -0.00   0.00    -0.00   0.00  -0.00
   6   8    -0.03   0.07   0.03    -0.00   0.00  -0.01     0.06  -0.06  -0.03
   7   1     0.06  -0.39  -0.56    -0.02  -0.61   0.31    -0.04   0.56  -0.42
   8   1     0.13  -0.66   0.10     0.13   0.22   0.63     0.09   0.10   0.69
