8
 energy: -23.760162705483 gnorm: 0.061317136460 xtb: 6.7.1 (edcfbbe)
C           -3.09117100000000       -2.90227100000000        0.33386200000000
C           -4.56890400000000       -3.39849200000000        0.29911200000000
F           -2.27574400000000       -3.88098400000000       -0.16081400000000
F           -2.86861400000000       -1.80882000000000       -0.43577700000000
F           -2.63702700000000       -2.63615300000000        1.58296000000000
O           -5.42306100000000       -2.49170500000000        0.77733800000000
H           -4.52952300000000       -4.37241600000000        0.81349300000000
H           -4.71117600000000       -3.72155500000000       -0.74489800000000
8
 energy: -23.764145885860 gnorm: 0.031509958642 xtb: 6.7.1 (edcfbbe)
C           -3.10262018999724       -2.91931096383303        0.32806267563138
C           -4.58795982766883       -3.39823975092599        0.30146566215257
F           -2.24250010474885       -3.86987918964009       -0.16050575417518
F           -2.85982534930282       -1.82365621350996       -0.42485941731050
F           -2.63197020641906       -2.63911111065399        1.56330366884987
O           -5.43731675306804       -2.51321845853428        0.76967852943509
H           -4.52562668877687       -4.36817907013465        0.86765884095006
H           -4.71740088001829       -3.68080124276800       -0.77952820553329
8
 energy: -23.764842557423 gnorm: 0.012759128474 xtb: 6.7.1 (edcfbbe)
C           -3.10333125972991       -2.91923041976962        0.32815352400371
C           -4.59671077033712       -3.39110776338220        0.30541053490478
F           -2.23099600116232       -3.86389391276866       -0.15983207800088
F           -2.84624650765004       -1.82450584482093       -0.41849734232220
F           -2.61995797274967       -2.63503123791456        1.55574665190261
O           -5.44380178745150       -2.52747065685317        0.76402991238729
H           -4.53525876160384       -4.37221404456628        0.87684933455359
H           -4.72891693931559       -3.67894211992457       -0.78658453742889
8
 energy: -23.765005204183 gnorm: 0.005207817593 xtb: 6.7.1 (edcfbbe)
C           -3.10320255701268       -2.91709703663344        0.32898723401645
C           -4.60261998975992       -3.38507591132803        0.30861913234978
F           -2.23587163297565       -3.86669949576758       -0.16090509237107
F           -2.84288737426395       -1.82327952861177       -0.41778289975329
F           -2.61652424435273       -2.63418092960332        1.55550912712978
O           -5.44750054436873       -2.52899767556323        0.76331294740177
H           -4.53139023080772       -4.37537315456583        0.87692330716485
H           -4.72522342645862       -3.68169226792678       -0.78938775593827
8
 energy: -23.765057221756 gnorm: 0.001938352934 xtb: 6.7.1 (edcfbbe)
C           -3.10164700019720       -2.91376719763563        0.33015918643955
C           -4.60629523636779       -3.38069814991725        0.31087376594928
F           -2.24394769369786       -3.87036838726354       -0.16204297454741
F           -2.83992255253818       -1.82078109541767       -0.41836620398663
F           -2.61298679352439       -2.63347138262069        1.55716032024043
O           -5.45191475506365       -2.52928788000258        0.76309260222437
H           -4.52759466372849       -4.37787545964080        0.87412393391846
H           -4.72091130488244       -3.68614644750185       -0.78972463023805
8
 energy: -23.765062300695 gnorm: 0.000936573158 xtb: 6.7.1 (edcfbbe)
C           -3.10066089461823       -2.91253978036209        0.33053475835547
C           -4.60710681329798       -3.38053836266295        0.31103658703646
F           -2.24781609304019       -3.87156758344668       -0.16249093184559
F           -2.83845085330552       -1.81955306599153       -0.41867728629958
F           -2.61112495075684       -2.63333816088674        1.55800611998560
O           -5.45428920520561       -2.53014274950623        0.76256923021150
H           -4.52639593326761       -4.37768991501970        0.87357533723472
H           -4.71937525650801       -3.68702638212407       -0.78927781467858
8
 energy: -23.765064077496 gnorm: 0.000292939134 xtb: 6.7.1 (edcfbbe)
C           -3.10019737730600       -2.91254832556518        0.33046050520714
C           -4.60773382770024       -3.38094809089714        0.31092779901076
F           -2.24857040912519       -3.87153047748485       -0.16276393883329
F           -2.83740414747905       -1.81920475066110       -0.41840173946131
F           -2.60990539719162       -2.63343723698240        1.55791848958969
O           -5.45597869366900       -2.53134950982922        0.76184718596071
H           -4.52628938909104       -4.37678815963239        0.87427981859133
H           -4.71914075843787       -3.68658944894771       -0.78899212006503
