 Entering Gaussian System
 *********************************************
 Gaussian 98:
 frequency output generated by the xtb code
 *********************************************
                         Standard orientation:
 --------------------------------------------------------------------
  Center     Atomic     Atomic              Coordinates (Angstroms)
  Number     Number      Type              X           Y           Z
 --------------------------------------------------------------------
    1          6             0       -3.378151   -4.225557   -2.976687
    2          6             0       -4.157753   -2.915537   -2.558327
    3          8             0       -3.462537   -2.039440   -1.902215
    4          1             0       -5.089288   -3.313463   -1.993999
    5          1             0       -4.607687   -2.527526   -3.554026
    6          6             0       -4.235281   -5.214663   -3.752702
    7          1             0       -2.515905   -3.923362   -3.578188
    8          1             0       -2.997085   -4.694204   -2.064622
    9          1             0       -4.608146   -4.753578   -4.668050
   10          1             0       -3.674104   -6.113983   -4.025524
   11          1             0       -5.096212   -5.517037   -3.155269
 --------------------------------------------------------------------
     1 basis functions        1 primitive gaussians
     1 alpha electrons        1 beta electrons
 
 Harmonic frequencies (cm**-1), IR intensities (km*mol⁻¹),
 Raman scattering activities (A**4/amu), Raman depolarization ratios,
 reduced masses (AMU), force constants (mDyne/A) and normal coordinates:
                      1                      2                      3
                        a                      a                      a 
 Frequencies --   126.9151               203.0692               271.3974
 Red. masses --     8.7289                 1.9857                 9.3326
 Frc consts  --     0.0000                 0.0000                 0.0000
 IR Inten    --     3.7498                 0.7358                 4.6062
 Raman Activ --     0.0000                 0.0000                 0.0000
 Depolar     --     0.0000                 0.0000                 0.0000
 Atom AN      X      Y      Z        X      Y      Z        X      Y      Z
   1   6     0.09   0.15  -0.29    -0.07  -0.11   0.22    -0.42   0.21  -0.03
   2   6     0.11   0.18  -0.36     0.02   0.04  -0.07    -0.24   0.26   0.06
   3   8    -0.13  -0.21   0.41     0.03   0.04  -0.08     0.38  -0.15   0.04
   4   1    -0.09   0.06  -0.30    -0.05   0.08  -0.06    -0.07   0.15   0.05
   5   1     0.23   0.17  -0.15     0.08  -0.01  -0.07    -0.08   0.15   0.06
   6   6    -0.09  -0.14   0.27     0.02   0.02  -0.05     0.23  -0.33  -0.10
   7   1    -0.03   0.00  -0.18     0.03  -0.05   0.12    -0.12   0.11   0.02
   8   1     0.11   0.13  -0.07    -0.10  -0.05   0.09    -0.11   0.11   0.01
   9   1    -0.18  -0.10   0.11    -0.37   0.24   0.25     0.07  -0.22  -0.09
  10   1    -0.01  -0.02   0.05     0.16   0.25  -0.49     0.25  -0.01   0.08
  11   1     0.07  -0.06   0.21     0.25  -0.43   0.12     0.07  -0.21  -0.09
                      4                      5                      6
                        a                      a                      a 
 Frequencies --   459.8451               751.9933               821.4353
 Red. masses --    12.0012                 2.0009                 8.7204
 Frc consts  --     0.0000                 0.0000                 0.0000
 IR Inten    --     4.2326                 0.0246                83.0900
 Raman Activ --     0.0000                 0.0000                 0.0000
 Depolar     --     0.0000                 0.0000                 0.0000
 Atom AN      X      Y      Z        X      Y      Z        X      Y      Z
   1   6    -0.04  -0.28  -0.15    -0.07  -0.11   0.22    -0.35   0.32   0.05
   2   6     0.26   0.18   0.18    -0.03  -0.06   0.11     0.48  -0.43  -0.06
   3   8    -0.13   0.57   0.25     0.02   0.03  -0.06    -0.09   0.05  -0.00
   4   1     0.09   0.02   0.04    -0.19   0.24  -0.13     0.08  -0.12  -0.03
   5   1     0.09   0.02   0.04     0.27  -0.10  -0.15     0.08  -0.12  -0.03
   6   6    -0.11  -0.38  -0.23    -0.01  -0.01   0.02    -0.11   0.15   0.04
   7   1    -0.01  -0.15  -0.08    -0.36   0.26  -0.29    -0.09  -0.01  -0.03
   8   1    -0.01  -0.15  -0.08     0.51  -0.03  -0.16    -0.09  -0.00  -0.03
   9   1    -0.03  -0.15  -0.08     0.18   0.17   0.02    -0.00  -0.16  -0.09
  10   1     0.02  -0.09  -0.04     0.02   0.03  -0.06     0.31   0.20   0.20
  11   1    -0.03  -0.15  -0.08    -0.12  -0.07  -0.21    -0.01  -0.17  -0.08
                      7                      8                      9
                        a                      a                      a 
 Frequencies --   892.3733              1024.1731              1084.1145
 Red. masses --     2.2902                 6.0518                 8.7291
 Frc consts  --     0.0000                 0.0000                 0.0000
 IR Inten    --    14.0287                13.4003                 2.3337
 Raman Activ --     0.0000                 0.0000                 0.0000
 Depolar     --     0.0000                 0.0000                 0.0000
 Atom AN      X      Y      Z        X      Y      Z        X      Y      Z
   1   6    -0.01  -0.02   0.03    -0.03   0.35   0.17    -0.51  -0.24  -0.28
   2   6     0.07   0.11  -0.22     0.19  -0.23  -0.06     0.15  -0.10  -0.00
   3   8    -0.02  -0.04   0.07     0.01   0.08   0.04    -0.03   0.08   0.03
   4   1     0.19  -0.21   0.11     0.03  -0.02  -0.01     0.01   0.04   0.02
   5   1    -0.26   0.09   0.13     0.03  -0.02   0.00     0.01   0.04   0.02
   6   6    -0.05  -0.09   0.17    -0.05  -0.40  -0.22     0.46   0.11   0.20
   7   1    -0.05  -0.31  -0.22    -0.01   0.32   0.16    -0.14  -0.01  -0.05
   8   1     0.07   0.35   0.15    -0.01   0.32   0.16    -0.13  -0.01  -0.05
   9   1     0.28   0.31   0.09    -0.05   0.12   0.07     0.09   0.25   0.17
  10   1     0.05   0.07  -0.15    -0.35  -0.25  -0.24    -0.16  -0.10  -0.10
  11   1    -0.21  -0.19  -0.32    -0.04   0.14   0.03     0.10   0.27   0.15
                     10                     11                     12
                        a                      a                      a 
 Frequencies --  1149.7058              1222.7277              1240.2666
 Red. masses --     6.5568                13.2501                 3.1891
 Frc consts  --     0.0000                 0.0000                 0.0000
 IR Inten    --    50.1817               472.2660                15.9623
 Raman Activ --     0.0000                 0.0000                 0.0000
 Depolar     --     0.0000                 0.0000                 0.0000
 Atom AN      X      Y      Z        X      Y      Z        X      Y      Z
   1   6     0.11   0.18  -0.35    -0.04   0.13   0.06    -0.06  -0.10   0.19
   2   6    -0.14  -0.23   0.45     0.45   0.43   0.36    -0.05  -0.07   0.13
   3   8     0.04   0.07  -0.14    -0.36  -0.42  -0.32     0.02   0.03  -0.04
   4   1    -0.23   0.07  -0.25    -0.04   0.05   0.08    -0.07  -0.03  -0.08
   5   1     0.33   0.09  -0.07    -0.01   0.10  -0.02     0.10   0.06   0.02
   6   6    -0.05  -0.08   0.16     0.02  -0.08  -0.04     0.09   0.15  -0.29
   7   1     0.20  -0.22   0.03     0.01  -0.07  -0.03    -0.12  -0.42  -0.31
   8   1    -0.23   0.16   0.09     0.01  -0.06  -0.03     0.15   0.47   0.22
   9   1     0.14   0.14   0.05    -0.01   0.02   0.02    -0.21  -0.20  -0.09
  10   1     0.02   0.03  -0.07    -0.05  -0.04  -0.04    -0.03  -0.05   0.10
  11   1    -0.11  -0.09  -0.15     0.00   0.03   0.01     0.18   0.14   0.20
                     13                     14                     15
                        a                      a                      a 
 Frequencies --  1286.0286              1298.6972              1386.7716
 Red. masses --     4.6842                 1.6653                 2.8918
 Frc consts  --     0.0000                 0.0000                 0.0000
 IR Inten    --    17.3100                 1.7207               127.1751
 Raman Activ --     0.0000                 0.0000                 0.0000
 Depolar     --     0.0000                 0.0000                 0.0000
 Atom AN      X      Y      Z        X      Y      Z        X      Y      Z
   1   6     0.08  -0.45  -0.20    -0.04  -0.07   0.14    -0.08  -0.05  -0.05
   2   6     0.15   0.02   0.06    -0.01  -0.02   0.04    -0.05   0.25   0.11
   3   8    -0.10  -0.03  -0.05     0.04   0.07  -0.14     0.06  -0.03   0.01
   4   1    -0.00   0.13   0.07    -0.06  -0.57  -0.35     0.14  -0.47  -0.12
   5   1    -0.00   0.14   0.07     0.08   0.60   0.28     0.17  -0.41  -0.23
   6   6    -0.14   0.13   0.02     0.00  -0.00   0.00     0.15   0.18   0.14
   7   1    -0.04   0.49   0.19    -0.06   0.16   0.05    -0.06   0.13   0.01
   8   1    -0.06   0.46   0.26     0.07  -0.15  -0.07    -0.08   0.11   0.06
   9   1     0.03  -0.06  -0.06    -0.01   0.00   0.01    -0.14  -0.26  -0.08
  10   1     0.15   0.11   0.11    -0.01  -0.01   0.02    -0.25  -0.11  -0.14
  11   1     0.01  -0.09  -0.00     0.00  -0.01   0.00    -0.09  -0.19  -0.23
                     16                     17                     18
                        a                      a                      a 
 Frequencies --  1394.5813              1504.5173              1509.0129
 Red. masses --     2.9659                 1.9710                 1.7480
 Frc consts  --     0.0000                 0.0000                 0.0000
 IR Inten    --    47.3213                20.4992               115.0438
 Raman Activ --     0.0000                 0.0000                 0.0000
 Depolar     --     0.0000                 0.0000                 0.0000
 Atom AN      X      Y      Z        X      Y      Z        X      Y      Z
   1   6    -0.07  -0.03  -0.04    -0.27  -0.02  -0.09    -0.04  -0.05  -0.04
   2   6    -0.06   0.20   0.08    -0.05  -0.00  -0.02     0.19   0.03   0.07
   3   8     0.07  -0.01   0.02    -0.02  -0.01  -0.01     0.08   0.06   0.06
   4   1     0.07  -0.36  -0.12     0.11  -0.01   0.12    -0.44   0.04  -0.49
   5   1     0.09  -0.33  -0.18     0.16   0.06  -0.02    -0.61  -0.25   0.07
   6   6    -0.19  -0.22  -0.17     0.01   0.03   0.02     0.02   0.01   0.01
   7   1     0.00   0.06   0.05     0.40  -0.17   0.49     0.10  -0.03   0.12
   8   1     0.01   0.07   0.02     0.61   0.16  -0.17     0.15   0.05  -0.03
   9   1     0.19   0.36   0.10    -0.05  -0.03   0.00    -0.08  -0.02   0.02
  10   1     0.34   0.16   0.19    -0.00   0.01   0.00    -0.00  -0.00   0.02
  11   1     0.12   0.25   0.31    -0.04  -0.00  -0.05    -0.04   0.00  -0.06
                     19                     20                     21
                        a                      a                      a 
 Frequencies --  1513.2683              1520.5222              2005.1698
 Red. masses --     1.5760                 1.6249                 1.6534
 Frc consts  --     0.0000                 0.0000                 0.0000
 IR Inten    --     0.1110                 1.5978               675.5893
 Raman Activ --     0.0000                 0.0000                 0.0000
 Depolar     --     0.0000                 0.0000                 0.0000
 Atom AN      X      Y      Z        X      Y      Z        X      Y      Z
   1   6    -0.01  -0.02   0.03     0.05  -0.04  -0.00    -0.01  -0.02   0.04
   2   6     0.01   0.00  -0.00    -0.02   0.00  -0.01    -0.06  -0.10   0.20
   3   8     0.00   0.00  -0.00    -0.00  -0.00  -0.00    -0.00  -0.00   0.01
   4   1    -0.02  -0.02  -0.02     0.03   0.00   0.04     0.58   0.16  -0.32
   5   1    -0.01   0.00   0.02     0.05   0.03  -0.01    -0.31   0.28  -0.54
   6   6    -0.06  -0.10   0.19     0.18  -0.14  -0.01     0.00   0.00  -0.01
   7   1    -0.01  -0.01  -0.01    -0.03   0.03  -0.03    -0.02   0.02   0.01
   8   1     0.02   0.01   0.01    -0.05   0.00   0.03     0.02  -0.02   0.00
   9   1     0.15  -0.37  -0.24    -0.58   0.05   0.27    -0.00  -0.01  -0.00
  10   1     0.20   0.31  -0.62     0.26   0.12   0.14     0.00   0.00  -0.01
  11   1    -0.10   0.44   0.09    -0.38   0.37  -0.36    -0.00   0.01   0.01
                     22                     23                     24
                        a                      a                      a 
 Frequencies --  2249.4433              2921.8293              2935.4089
 Red. masses --     1.3518                 1.7573                 1.9701
 Frc consts  --     0.0000                 0.0000                 0.0000
 IR Inten    --   484.5486               134.6413                99.8834
 Raman Activ --     0.0000                 0.0000                 0.0000
 Depolar     --     0.0000                 0.0000                 0.0000
 Atom AN      X      Y      Z        X      Y      Z        X      Y      Z
   1   6     0.03  -0.02  -0.00    -0.03  -0.01  -0.02    -0.08  -0.13   0.25
   2   6     0.08  -0.06  -0.01    -0.00   0.00   0.00    -0.00  -0.00   0.01
   3   8     0.07   0.08   0.06    -0.00  -0.00  -0.00     0.00   0.00  -0.00
   4   1    -0.48  -0.26   0.43     0.00   0.00   0.00     0.00   0.01  -0.00
   5   1    -0.15   0.27  -0.62     0.00   0.00   0.00     0.00  -0.00  -0.01
   6   6    -0.00   0.00   0.00     0.16  -0.20  -0.05     0.01   0.01  -0.03
   7   1     0.01  -0.00  -0.00     0.08   0.04  -0.06     0.53   0.18  -0.35
   8   1     0.01  -0.01   0.00     0.03  -0.05   0.11    -0.25   0.28  -0.57
   9   1     0.00  -0.01   0.00    -0.00   0.01  -0.09     0.04  -0.04   0.08
  10   1    -0.01  -0.00  -0.00    -0.51   0.76   0.22    -0.00   0.01  -0.00
  11   1     0.00  -0.01  -0.01    -0.04  -0.06   0.05    -0.08  -0.03   0.05
                     25                     26                     27
                        a                      a                      a 
 Frequencies --  2956.4918              2984.6996              2994.4576
 Red. masses --     1.4753                 1.9452                 1.3898
 Frc consts  --     0.0000                 0.0000                 0.0000
 IR Inten    --   100.5019               117.7702                65.4130
 Raman Activ --     0.0000                 0.0000                 0.0000
 Depolar     --     0.0000                 0.0000                 0.0000
 Atom AN      X      Y      Z        X      Y      Z        X      Y      Z
   1   6    -0.20   0.02  -0.05     0.01   0.02  -0.04     0.02   0.00   0.01
   2   6    -0.01  -0.00  -0.00     0.00   0.00  -0.00     0.00  -0.00  -0.00
   3   8     0.00   0.00   0.00    -0.00  -0.00   0.00     0.00   0.00   0.00
   4   1     0.00   0.00  -0.00    -0.01  -0.00   0.00    -0.01  -0.00   0.00
   5   1    -0.00   0.00   0.00     0.00  -0.00   0.00    -0.00   0.00  -0.01
   6   6    -0.02   0.03   0.01     0.08   0.12  -0.25     0.18  -0.01   0.06
   7   1     0.52   0.22  -0.40    -0.08  -0.03   0.06    -0.02  -0.01   0.02
   8   1     0.19  -0.28   0.58     0.03  -0.04   0.08    -0.01   0.02  -0.03
   9   1    -0.01   0.01  -0.01     0.24  -0.29   0.54    -0.21   0.31  -0.59
  10   1     0.09  -0.13  -0.04     0.02   0.02  -0.04     0.09  -0.10  -0.02
  11   1    -0.02  -0.00   0.01    -0.55  -0.17   0.37    -0.51  -0.19   0.40
