11
 energy: -14.201809946176 gnorm: 0.055692068038 xtb: 6.7.1 (edcfbbe)
C           -3.39347400000000       -4.21499700000000       -2.97152000000000
C           -4.16115600000000       -2.93008600000000       -2.56401800000000
O           -3.42741600000000       -1.99952200000000       -1.89720400000000
H           -5.06901100000000       -3.30675600000000       -1.99009300000000
H           -4.62001100000000       -2.55127100000000       -3.53453500000000
C           -4.23795400000000       -5.21644400000000       -3.75860200000000
H           -2.51274300000000       -3.90748300000000       -3.56447600000000
H           -3.00058200000000       -4.68482200000000       -2.05138200000000
H           -4.60973600000000       -4.76921300000000       -4.69480800000000
H           -3.67216700000000       -6.12154700000000       -4.02669600000000
H           -5.11753700000000       -5.53637300000000       -3.17650300000000
11
 energy: -14.204081267264 gnorm: 0.030489072969 xtb: 6.7.1 (edcfbbe)
C           -3.38846247919120       -4.21958329016397       -2.97370889854847
C           -4.17237862679948       -2.93318949187749       -2.56987659162083
O           -3.44407856798115       -2.03629179687641       -1.91521476463604
H           -5.07577810207782       -3.29704202284649       -1.97440141323868
H           -4.61773685165837       -2.52647936584289       -3.53946607640889
C           -4.23279443410285       -5.21456458597654       -3.75554386633702
H           -2.51816210125704       -3.92085486220087       -3.57178842965209
H           -3.00478117345667       -4.69487135936664       -2.06189047490951
H           -4.60023314668615       -4.75996019855342       -4.67993080188183
H           -3.66469173475621       -6.11344924003001       -4.01987020108364
H           -5.10268978203305       -5.52222778626527       -3.16814548168301
11
 energy: -14.204740633499 gnorm: 0.010823794525 xtb: 6.7.1 (edcfbbe)
C           -3.38703217277045       -4.22309520420026       -2.97625726172106
C           -4.16302076570787       -2.92360060462579       -2.56249388624186
O           -3.45455696966286       -2.04025287187362       -1.91517677317154
H           -5.07557875327961       -3.29958254680565       -1.97805895095476
H           -4.61200445166769       -2.52610365626479       -3.54048974354719
C           -4.23325038321941       -5.21792070089179       -3.75669625764713
H           -2.52406375646500       -3.92107764774032       -3.57368300788089
H           -3.00909128521183       -4.69262758243237       -2.06529039108382
H           -4.59934287893459       -4.75991996939024       -4.67403577967441
H           -3.66706329960296       -6.11480750635568       -4.02167106078502
H           -5.09678228347772       -5.51952570941948       -3.16598388729234
11
 energy: -14.204914697284 gnorm: 0.004174901681 xtb: 6.7.1 (edcfbbe)
C           -3.38181222119725       -4.22457322303564       -2.97635055372793
C           -4.15936697433236       -2.91728349433487       -2.55909785180022
O           -3.45677024304510       -2.04119863950079       -1.90993813300759
H           -5.08247257957218       -3.30839500010385       -1.98689933801320
H           -4.61200707434036       -2.52960727575730       -3.54766961326462
C           -4.23530623289369       -5.21588825328695       -3.75517740686521
H           -2.52013224200808       -3.92167384879332       -3.57542406803901
H           -3.00392632110866       -4.69325700316251       -2.06479660197990
H           -4.60295246427178       -4.75632491315479       -4.67144492384498
H           -3.67033819577568       -6.11311010485088       -4.02232913354628
H           -5.09670245145485       -5.51720224401909       -3.16070937591105
11
 energy: -14.204944654380 gnorm: 0.001109292091 xtb: 6.7.1 (edcfbbe)
C           -3.37883621728845       -4.22560703638218       -2.97676078705084
C           -4.15746414835608       -2.91513899894355       -2.55750211606420
O           -3.46062538784674       -2.03816468639953       -1.90440539972799
H           -5.08791505445771       -3.31082904214903       -1.99195730743498
H           -4.61049932325860       -2.52884045307206       -3.55109367133027
C           -4.23513727425700       -5.21566445010947       -3.75400483236317
H           -2.51667650683663       -3.92334530924808       -3.57753770151168
H           -2.99911047280220       -4.69465350263844       -2.06489418468468
H           -4.60599618531554       -4.75466190790150       -4.66966422700072
H           -3.67312251298916       -6.11473066776247       -4.02480613824503
H           -5.09640391659190       -5.51687794539371       -3.15721063458645
11
 energy: -14.204946411807 gnorm: 0.000570314758 xtb: 6.7.1 (edcfbbe)
C           -3.37811787863517       -4.22556924923988       -2.97670563636507
C           -4.15772821815460       -2.91555437262451       -2.55834638516122
O           -3.46251892865675       -2.03945434582347       -1.90223036703775
H           -5.08926284663051       -3.31348538633136       -1.99402216766839
H           -4.60766058680037       -2.52754332884700       -3.55404635821771
C           -4.23524065207070       -5.21467805338798       -3.75272550225425
H           -2.51587169240056       -3.92336861133573       -3.57820286669459
H           -2.99705269003354       -4.69421556565957       -2.06464026236628
H           -4.60810426245503       -4.75359348820259       -4.66807402788562
H           -3.67405764027010       -6.11399434250082       -4.02554743363240
H           -5.09617160389266       -5.51705725604708       -3.15529599271671
