11
 energy: -14.204946411837 gnorm: 0.000570218468 xtb: 6.7.1 (edcfbbe)
C           -3.37815039426144       -4.22555675666868       -2.97668646947688
C           -4.15775241419846       -2.91553706787608       -2.55832678333004
O           -3.46253624718774       -2.03943953606923       -1.90221472103279
H           -5.08928715634713       -3.31346221915172       -1.99399861965160
H           -4.60768622687429       -2.52752540607020       -3.55402586302572
C           -4.23528105546300       -5.21466242731336       -3.75270161711673
H           -2.51590472535382       -3.92336168327933       -3.57818723704842
H           -2.99708447577378       -4.69420347649620       -2.06462160771136
H           -4.60814544678709       -4.75357750739352       -4.66804964594597
H           -3.67410370480779       -6.11398213091900       -4.02552393778802
H           -5.09621150509201       -5.51703607944366       -3.15526857461653
