
                                 *****************
                                 * O   R   C   A *
                                 *****************

                                            #,                                       
                                            ###                                      
                                            ####                                     
                                            #####                                    
                                            ######                                   
                                           ########,                                 
                                     ,,################,,,,,                         
                               ,,#################################,,                 
                          ,,##########################################,,             
                       ,#########################################, ''#####,          
                    ,#############################################,,   '####,        
                  ,##################################################,,,,####,       
                ,###########''''           ''''###############################       
              ,#####''   ,,,,##########,,,,          '''####'''          '####       
            ,##' ,,,,###########################,,,                        '##       
           ' ,,###''''                  '''############,,,                           
         ,,##''                                '''############,,,,        ,,,,,,###''
      ,#''                                            '''#######################'''  
     '                                                          ''''####''''         
             ,#######,   #######,   ,#######,      ##                                
            ,#'     '#,  ##    ##  ,#'     '#,    #''#        ######   ,####,        
            ##       ##  ##   ,#'  ##            #'  '#       #        #'  '#        
            ##       ##  #######   ##           ,######,      #####,   #    #        
            '#,     ,#'  ##    ##  '#,     ,#' ,#      #,         ##   #,  ,#        
             '#######'   ##     ##  '#######'  #'      '#     #####' # '####'        



                  #######################################################
                  #                        -***-                        #
                  #          Department of theory and spectroscopy      #
                  #    Directorship and core code : Frank Neese         #
                  #        Max Planck Institute fuer Kohlenforschung    #
                  #                Kaiser Wilhelm Platz 1               #
                  #                 D-45470 Muelheim/Ruhr               #
                  #                      Germany                        #
                  #                                                     #
                  #                  All rights reserved                #
                  #                        -***-                        #
                  #######################################################


                         Program Version 5.0.4 -  RELEASE  -


 With contributions from (in alphabetic order):
   Daniel Aravena         : Magnetic Suceptibility
   Michael Atanasov       : Ab Initio Ligand Field Theory (pilot matlab implementation)
   Alexander A. Auer      : GIAO ZORA, VPT2 properties, NMR spectrum
   Ute Becker             : Parallelization
   Giovanni Bistoni       : ED, misc. LED, open-shell LED, HFLD
   Martin Brehm           : Molecular dynamics
   Dmytro Bykov           : SCF Hessian
   Vijay G. Chilkuri      : MRCI spin determinant printing, contributions to CSF-ICE
   Dipayan Datta          : RHF DLPNO-CCSD density
   Achintya Kumar Dutta   : EOM-CC, STEOM-CC
   Dmitry Ganyushin       : Spin-Orbit,Spin-Spin,Magnetic field MRCI
   Miquel Garcia          : C-PCM and meta-GGA Hessian, CC/C-PCM, Gaussian charge scheme
   Yang Guo               : DLPNO-NEVPT2, F12-NEVPT2, CIM, IAO-localization
   Andreas Hansen         : Spin unrestricted coupled pair/coupled cluster methods
   Benjamin Helmich-Paris : MC-RPA, TRAH-SCF, COSX integrals
   Lee Huntington         : MR-EOM, pCC
   Robert Izsak           : Overlap fitted RIJCOSX, COSX-SCS-MP3, EOM
   Marcus Kettner         : VPT2
   Christian Kollmar      : KDIIS, OOCD, Brueckner-CCSD(T), CCSD density, CASPT2, CASPT2-K
   Simone Kossmann        : Meta GGA functionals, TD-DFT gradient, OOMP2, MP2 Hessian
   Martin Krupicka        : Initial AUTO-CI
   Lucas Lang             : DCDCAS
   Marvin Lechner         : AUTO-CI (C++ implementation), FIC-MRCC
   Dagmar Lenk            : GEPOL surface, SMD
   Dimitrios Liakos       : Extrapolation schemes; Compound Job, initial MDCI parallelization
   Dimitrios Manganas     : Further ROCIS development; embedding schemes
   Dimitrios Pantazis     : SARC Basis sets
   Anastasios Papadopoulos: AUTO-CI, single reference methods and gradients
   Taras Petrenko         : DFT Hessian,TD-DFT gradient, ASA, ECA, R-Raman, ABS, FL, XAS/XES, NRVS
   Peter Pinski           : DLPNO-MP2, DLPNO-MP2 Gradient
   Christoph Reimann      : Effective Core Potentials
   Marius Retegan         : Local ZFS, SOC
   Christoph Riplinger    : Optimizer, TS searches, QM/MM, DLPNO-CCSD(T), (RO)-DLPNO pert. Triples
   Tobias Risthaus        : Range-separated hybrids, TD-DFT gradient, RPA, STAB
   Michael Roemelt        : Original ROCIS implementation
   Masaaki Saitow         : Open-shell DLPNO-CCSD energy and density
   Barbara Sandhoefer     : DKH picture change effects
   Avijit Sen             : IP-ROCIS
   Kantharuban Sivalingam : CASSCF convergence, NEVPT2, FIC-MRCI
   Bernardo de Souza      : ESD, SOC TD-DFT
   Georgi Stoychev        : AutoAux, RI-MP2 NMR, DLPNO-MP2 response
   Willem Van den Heuvel  : Paramagnetic NMR
   Boris Wezisla          : Elementary symmetry handling
   Frank Wennmohs         : Technical directorship


 We gratefully acknowledge several colleagues who have allowed us to
 interface, adapt or use parts of their codes:
   Stefan Grimme, W. Hujo, H. Kruse, P. Pracht,  : VdW corrections, initial TS optimization,
                  C. Bannwarth, S. Ehlert          DFT functionals, gCP, sTDA/sTD-DF
   Ed Valeev, F. Pavosevic, A. Kumar             : LibInt (2-el integral package), F12 methods
   Garnet Chan, S. Sharma, J. Yang, R. Olivares  : DMRG
   Ulf Ekstrom                                   : XCFun DFT Library
   Mihaly Kallay                                 : mrcc  (arbitrary order and MRCC methods)
   Jiri Pittner, Ondrej Demel                    : Mk-CCSD
   Frank Weinhold                                : gennbo (NPA and NBO analysis)
   Christopher J. Cramer and Donald G. Truhlar   : smd solvation model
   Lars Goerigk                                  : TD-DFT with DH, B97 family of functionals
   V. Asgeirsson, H. Jonsson                     : NEB implementation
   FAccTs GmbH                                   : IRC, NEB, NEB-TS, DLPNO-Multilevel, CI-OPT
                                                   MM, QMMM, 2- and 3-layer-ONIOM, Crystal-QMMM,
                                                   LR-CPCM, SF, NACMEs, symmetry and pop. for TD-DFT,
                                                   nearIR, NL-DFT gradient (VV10), updates on ESD,
                                                   ML-optimized integration grids
   S Lehtola, MJT Oliveira, MAL Marques          : LibXC Library
   Liviu Ungur et al                             : ANISO software


 Your calculation uses the libint2 library for the computation of 2-el integrals
 For citations please refer to: http://libint.valeyev.net

 Your ORCA version has been built with support for libXC version: 5.1.0
 For citations please refer to: https://tddft.org/programs/libxc/

 This ORCA versions uses:
   CBLAS   interface :  Fast vector & matrix operations
   LAPACKE interface :  Fast linear algebra routines
   SCALAPACK package :  Parallel linear algebra routines
   Shared memory     :  Shared parallel matrices
   BLAS/LAPACK       :  OpenBLAS 0.3.15  USE64BITINT DYNAMIC_ARCH NO_AFFINITY Haswell SINGLE_THREADED
        Core in use  :  Haswell
   Copyright (c) 2011-2014, The OpenBLAS Project


================================================================================

----- Orbital basis set information -----
Your calculation utilizes the basis: def2-TZVP
   F. Weigend and R. Ahlrichs, Phys. Chem. Chem. Phys. 7, 3297 (2005).

----- AuxJ basis set information -----
Your calculation utilizes the auxiliary basis: def2/J
   F. Weigend, Phys. Chem. Chem. Phys. 8, 1057 (2006).

================================================================================
                                        WARNINGS
                       Please study these warnings very carefully!
================================================================================


WARNING: Geometry Optimization
  ===> : Switching off AutoStart
         For restart on a previous wavefunction, please use MOREAD

INFO   : the flag for use of the SHARK integral package has been found!

================================================================================
                                       INPUT FILE
================================================================================
NAME = inp.inp
|  1> !OPT PBE def2-TZVP CPCM(water)
|  2> 
|  3> *xyz -1 1
|  4> C     -5.266936   -6.403754    3.004699
|  5> C     -5.106311   -5.096931    3.631957
|  6> H     -5.938157   -7.124763    3.448568
|  7> C     -4.672317   -8.057163    1.131654
|  8> C     -4.204945   -4.110792    3.047945
|  9> H     -5.652473   -4.848889    4.529902
| 10> C     -3.477540   -4.449921    1.845278
| 11> H     -4.083241   -3.138551    3.506088
| 12> C     -3.622212   -5.737770    1.201665
| 13> O     -2.709857   -3.603511    1.342759
| 14> C     -4.524992   -6.730263    1.787650
| 15> H     -5.375437   -8.702391    1.668433
| 16> H     -5.042975   -7.941293    0.107763
| 17> H     -3.708789   -8.576080    1.092453
| 18> H     -3.072611   -5.953444    0.294606
| 19> *
| 20> 
| 21>                          ****END OF INPUT****
================================================================================

                       *****************************
                       * Geometry Optimization Run *
                       *****************************

Geometry optimization settings:
Update method            Update   .... BFGS
Choice of coordinates    CoordSys .... Z-matrix Internals
Initial Hessian          InHess   .... Almoef's Model

Convergence Tolerances:
Energy Change            TolE     ....  5.0000e-06 Eh
Max. Gradient            TolMAXG  ....  3.0000e-04 Eh/bohr
RMS Gradient             TolRMSG  ....  1.0000e-04 Eh/bohr
Max. Displacement        TolMAXD  ....  4.0000e-03 bohr
RMS Displacement         TolRMSD  ....  2.0000e-03 bohr
Strict Convergence                ....  False
------------------------------------------------------------------------------
                        ORCA OPTIMIZATION COORDINATE SETUP
------------------------------------------------------------------------------

The optimization will be done in new redundant internal coordinates
Making redundant internal coordinates   ...  (new redundants) done
Evaluating the initial hessian          ...  (Almloef) done
Evaluating the coordinates              ...  done
Calculating the B-matrix                .... done
Calculating the G-matrix                .... done
Diagonalizing the G-matrix              .... done
The first mode is                       ....   30
The number of degrees of freedom        ....   39

    -----------------------------------------------------------------
                    Redundant Internal Coordinates


    -----------------------------------------------------------------
         Definition                    Initial Value    Approx d2E/dq
    -----------------------------------------------------------------
      1. B(C   1,C   0)                  1.4584         0.485905   
      2. B(H   2,C   0)                  1.0805         0.372933   
      3. B(C   4,C   1)                  1.4581         0.486541   
      4. B(H   5,C   1)                  1.0799         0.373751   
      5. B(C   6,C   4)                  1.4459         0.508867   
      6. B(H   7,C   4)                  1.0816         0.371322   
      7. B(C   8,C   6)                  1.4470         0.506811   
      8. B(O   9,C   6)                  1.2483         0.941751   
      9. B(C  10,C   8)                  1.4640         0.475994   
     10. B(C  10,C   3)                  1.4875         0.436677   
     11. B(C  10,C   0)                  1.4623         0.479073   
     12. B(H  11,C   3)                  1.0949         0.353663   
     13. B(H  12,C   3)                  1.0951         0.353462   
     14. B(H  13,C   3)                  1.0951         0.353444   
     15. B(H  14,C   8)                  1.0823         0.370457   
     16. A(C   1,C   0,H   2)          119.3191         0.340733   
     17. A(H   2,C   0,C  10)          120.5384         0.339928   
     18. A(C   1,C   0,C  10)          120.1424         0.397034   
     19. A(C   0,C   1,H   5)          120.5138         0.340858   
     20. A(C   0,C   1,C   4)          120.1216         0.398115   
     21. A(C   4,C   1,H   5)          119.3645         0.340933   
     22. A(H  11,C   3,H  13)          107.6578         0.289170   
     23. A(C  10,C   3,H  13)          110.5693         0.331753   
     24. A(H  12,C   3,H  13)          108.3299         0.289144   
     25. A(C  10,C   3,H  12)          110.5776         0.331756   
     26. A(C  10,C   3,H  11)          111.9050         0.331787   
     27. A(H  11,C   3,H  12)          107.6606         0.289172   
     28. A(C   6,C   4,H   7)          120.4334         0.343129   
     29. A(C   1,C   4,H   7)          120.5190         0.340561   
     30. A(C   1,C   4,C   6)          119.0475         0.401362   
     31. A(C   8,C   6,O   9)          119.0721         0.448409   
     32. A(C   4,C   6,O   9)          119.0258         0.448739   
     33. A(C   4,C   6,C   8)          121.9001         0.404261   
     34. A(C   6,C   8,C  10)          119.1425         0.399532   
     35. A(C  10,C   8,H  14)          120.8969         0.339184   
     36. A(C   6,C   8,H  14)          119.9588         0.342762   
     37. A(C   0,C  10,C   8)          119.6451         0.395601   
     38. A(C   0,C  10,C   3)          121.0620         0.389676   
     39. A(C   3,C  10,C   8)          119.2929         0.389238   
     40. D(C   4,C   1,C   0,C  10)     -0.0096         0.016076   
     41. D(H   5,C   1,C   0,C  10)    179.9001         0.016076   
     42. D(C   4,C   1,C   0,H   2)    179.9883         0.016076   
     43. D(H   5,C   1,C   0,H   2)     -0.1020         0.016076   
     44. D(H   7,C   4,C   1,C   0)    179.8114         0.016118   
     45. D(C   6,C   4,C   1,C   0)     -0.0617         0.016118   
     46. D(C   6,C   4,C   1,H   5)   -179.9724         0.016118   
     47. D(H   7,C   4,C   1,H   5)     -0.0994         0.016118   
     48. D(O   9,C   6,C   4,H   7)     -0.1450         0.017646   
     49. D(O   9,C   6,C   4,C   1)    179.7282         0.017646   
     50. D(C   8,C   6,C   4,H   7)   -179.6287         0.017646   
     51. D(C   8,C   6,C   4,C   1)      0.2445         0.017646   
     52. D(C  10,C   8,C   6,O   9)   -179.8317         0.017501   
     53. D(C  10,C   8,C   6,C   4)     -0.3483         0.017501   
     54. D(H  14,C   8,C   6,O   9)     -0.3241         0.017501   
     55. D(H  14,C   8,C   6,C   4)    179.1593         0.017501   
     56. D(C   3,C  10,C   8,H  14)      0.7283         0.015426   
     57. D(C   3,C  10,C   8,C   6)   -179.7688         0.015426   
     58. D(C   0,C  10,C   8,H  14)   -179.2347         0.015426   
     59. D(C   8,C  10,C   3,H  13)     60.0578         0.014074   
     60. D(C   8,C  10,C   3,H  12)    -59.9211         0.014074   
     61. D(C   8,C  10,C   3,H  11)   -179.9362         0.014074   
     62. D(C   0,C  10,C   3,H  13)   -119.9797         0.014074   
     63. D(C   0,C  10,C   3,H  12)    120.0414         0.014074   
     64. D(C   0,C  10,C   3,H  11)      0.0262         0.014074   
     65. D(C   0,C  10,C   8,C   6)      0.2682         0.015426   
     66. D(C   8,C  10,C   0,H   2)    179.9077         0.015626   
     67. D(C   8,C  10,C   0,C   1)     -0.0944         0.015626   
     68. D(C   3,C  10,C   0,H   2)     -0.0546         0.015626   
     69. D(C   3,C  10,C   0,C   1)    179.9433         0.015626   
    -----------------------------------------------------------------

Number of atoms                         .... 15
Number of degrees of freedom            .... 69

         *************************************************************
         *                GEOMETRY OPTIMIZATION CYCLE   1            *
         *************************************************************
---------------------------------
CARTESIAN COORDINATES (ANGSTROEM)
---------------------------------
  C     -5.266936   -6.403754    3.004699
  C     -5.106311   -5.096931    3.631957
  H     -5.938157   -7.124763    3.448568
  C     -4.672317   -8.057163    1.131654
  C     -4.204945   -4.110792    3.047945
  H     -5.652473   -4.848889    4.529902
  C     -3.477540   -4.449921    1.845278
  H     -4.083241   -3.138551    3.506088
  C     -3.622212   -5.737770    1.201665
  O     -2.709857   -3.603511    1.342759
  C     -4.524992   -6.730263    1.787650
  H     -5.375437   -8.702391    1.668433
  H     -5.042975   -7.941293    0.107763
  H     -3.708789   -8.576080    1.092453
  H     -3.072611   -5.953444    0.294606

----------------------------
CARTESIAN COORDINATES (A.U.)
----------------------------
  NO LB      ZA    FRAG     MASS         X           Y           Z
   0 C     6.0000    0    12.011   -9.953067  -12.101341    5.678058
   1 C     6.0000    0    12.011   -9.649529   -9.631804    6.863404
   2 H     1.0000    0     1.008  -11.221490  -13.463851    6.516849
   3 C     6.0000    0    12.011   -8.829400  -15.225831    2.138516
   4 C     6.0000    0    12.011   -7.946194   -7.768271    5.759781
   5 H     1.0000    0     1.008  -10.681626   -9.163072    8.560274
   6 C     6.0000    0    12.011   -6.571598   -8.409132    3.487070
   7 H     1.0000    0     1.008   -7.716207   -5.931002    6.625546
   8 C     6.0000    0    12.011   -6.844989  -10.842814    2.270818
   9 O     8.0000    0    15.999   -5.120888   -6.809649    2.537447
  10 C     6.0000    0    12.011   -8.550996  -12.718354    3.378169
  11 H     1.0000    0     1.008  -10.158104  -16.445136    3.152881
  12 H     1.0000    0     1.008   -9.529842  -15.006869    0.203643
  13 H     1.0000    0     1.008   -7.008595  -16.206443    2.064437
  14 H     1.0000    0     1.008   -5.806393  -11.250379    0.556725

--------------------------------
INTERNAL COORDINATES (ANGSTROEM)
--------------------------------
 C      0   0   0     0.000000000000     0.00000000     0.00000000
 C      1   0   0     1.458437294682     0.00000000     0.00000000
 H      1   2   0     1.080468092117   119.31914906     0.00000000
 C      1   2   3     2.568195991054   149.88823922   180.05819530
 C      2   1   3     1.458081208102   120.12156025   179.98830082
 H      2   1   3     1.079871745641   120.51384706   359.89803635
 C      5   2   1     1.445868052609   119.04753806   359.93832494
 H      5   2   1     1.081646630904   120.51898903   179.81139232
 C      7   5   2     1.446970189103   121.90010655     0.24452446
 O      7   5   2     1.248307823395   119.02577424   179.72819487
 C      1   2   3     1.462291795306   120.14243119   180.00209801
 H      4   1   2     1.094910316521    82.71283158   179.92677554
 H      4   1   2     1.095064376987   122.37312475   286.25039535
 H      4   1   2     1.095078891256   122.33709994    73.60831987
 H      9   7   5     1.082281184793   119.95878969   179.15930777

---------------------------
INTERNAL COORDINATES (A.U.)
---------------------------
 C      0   0   0     0.000000000000     0.00000000     0.00000000
 C      1   0   0     2.756047070445     0.00000000     0.00000000
 H      1   2   0     2.041788790542   119.31914906     0.00000000
 C      1   2   3     4.853187081327   149.88823922   180.05819530
 C      2   1   3     2.755374164330   120.12156025   179.98830082
 H      2   1   3     2.040661859020   120.51384706   359.89803635
 C      5   2   1     2.732294645217   119.04753806   359.93832494
 H      5   2   1     2.044015906087   120.51898903   179.81139232
 C      7   5   2     2.734377381354   121.90010655     0.24452446
 O      7   5   2     2.358959917049   119.02577424   179.72819487
 C      1   2   3     2.763331021008   120.14243119   180.00209801
 H      4   1   2     2.069080639430    82.71283158   179.92677554
 H      4   1   2     2.069371771518   122.37312475   286.25039535
 H      4   1   2     2.069399199512   122.33709994    73.60831987
 H      9   7   5     2.045215039156   119.95878969   179.15930777

---------------------
BASIS SET INFORMATION
---------------------
There are 3 groups of distinct atoms

 Group   1 Type C   : 11s6p2d1f contracted to 5s3p2d1f pattern {62111/411/11/1}
 Group   2 Type H   : 5s1p contracted to 3s1p pattern {311/1}
 Group   3 Type O   : 11s6p2d1f contracted to 5s3p2d1f pattern {62111/411/11/1}

Atom   0C    basis set group =>   1
Atom   1C    basis set group =>   1
Atom   2H    basis set group =>   2
Atom   3C    basis set group =>   1
Atom   4C    basis set group =>   1
Atom   5H    basis set group =>   2
Atom   6C    basis set group =>   1
Atom   7H    basis set group =>   2
Atom   8C    basis set group =>   1
Atom   9O    basis set group =>   3
Atom  10C    basis set group =>   1
Atom  11H    basis set group =>   2
Atom  12H    basis set group =>   2
Atom  13H    basis set group =>   2
Atom  14H    basis set group =>   2
---------------------------------
AUXILIARY/J BASIS SET INFORMATION
---------------------------------
There are 3 groups of distinct atoms

 Group   1 Type C   : 12s5p4d2f1g contracted to 6s4p3d1f1g pattern {711111/2111/211/2/1}
 Group   2 Type H   : 5s2p1d contracted to 3s1p1d pattern {311/2/1}
 Group   3 Type O   : 12s5p4d2f1g contracted to 6s4p3d1f1g pattern {711111/2111/211/2/1}

Atom   0C    basis set group =>   1
Atom   1C    basis set group =>   1
Atom   2H    basis set group =>   2
Atom   3C    basis set group =>   1
Atom   4C    basis set group =>   1
Atom   5H    basis set group =>   2
Atom   6C    basis set group =>   1
Atom   7H    basis set group =>   2
Atom   8C    basis set group =>   1
Atom   9O    basis set group =>   3
Atom  10C    basis set group =>   1
Atom  11H    basis set group =>   2
Atom  12H    basis set group =>   2
Atom  13H    basis set group =>   2
Atom  14H    basis set group =>   2
------------------------------------------------------------------------------
                           ORCA GTO INTEGRAL CALCULATION
                           -- RI-GTO INTEGRALS CHOSEN --
------------------------------------------------------------------------------
------------------------------------------------------------------------------
                   ___                                                        
                  /   \      - P O W E R E D   B Y -                         
                 /     \                                                     
                 |  |  |   _    _      __       _____    __    __             
                 |  |  |  | |  | |    /  \     |  _  \  |  |  /  |          
                  \  \/   | |  | |   /    \    | | | |  |  | /  /          
                 / \  \   | |__| |  /  /\  \   | |_| |  |  |/  /          
                |  |  |   |  __  | /  /__\  \  |    /   |      \           
                |  |  |   | |  | | |   __   |  |    \   |  |\   \          
                \     /   | |  | | |  |  |  |  | |\  \  |  | \   \       
                 \___/    |_|  |_| |__|  |__|  |_| \__\ |__|  \__/        
                                                                              
                      - O R C A' S   B I G   F R I E N D -                    
                                      &                                       
                       - I N T E G R A L  F E E D E R -                       
                                                                              
 v1 FN, 2020, v2 2021                                                         
------------------------------------------------------------------------------


Reading SHARK input file inp.SHARKINP.tmp ... ok
----------------------
SHARK INTEGRAL PACKAGE
----------------------

Number of atoms                             ...     15
Number of basis functions                   ...    290
Number of shells                            ...    116
Maximum angular momentum                    ...      3
Integral batch strategy                     ... SHARK/LIBINT Hybrid
RI-J (if used) integral strategy            ... SPLIT-RIJ (Revised 2003 algorithm where possible)
Printlevel                                  ...      1
Contraction scheme used                     ... SEGMENTED contraction
Coulomb Range Separation                    ... NOT USED
Exchange Range Separation                   ... NOT USED
Finite Nucleus Model                        ... NOT USED
Auxiliary Coulomb fitting basis             ... AVAILABLE
   # of basis functions in Aux-J            ...    469
   # of shells in Aux-J                     ...    155
   Maximum angular momentum in Aux-J        ...      4
Auxiliary J/K fitting basis                 ... NOT available
Auxiliary Correlation fitting basis         ... NOT available
Auxiliary 'external' fitting basis          ... NOT available
Integral threshold                          ...     2.500000e-11
Primitive cut-off                           ...     2.500000e-12
Primitive pair pre-selection threshold      ...     2.500000e-12

Calculating pre-screening integrals         ... done (  0.1 sec) Dimension = 116
Organizing shell pair data                  ... done (  0.2 sec)
Shell pair information
Total number of shell pairs                 ...      6786
Shell pairs after pre-screening             ...      6225
Total number of primitive shell pairs       ...     20700
Primitive shell pairs kept                  ...     14363
          la=0 lb=0:   1653 shell pairs
          la=1 lb=0:   1748 shell pairs
          la=1 lb=1:    474 shell pairs
          la=2 lb=0:    907 shell pairs
          la=2 lb=1:    473 shell pairs
          la=2 lb=2:    130 shell pairs
          la=3 lb=0:    444 shell pairs
          la=3 lb=1:    237 shell pairs
          la=3 lb=2:    124 shell pairs
          la=3 lb=3:     35 shell pairs

Calculating one electron integrals          ... done (  0.1 sec)
Calculating RI/J V-Matrix + Cholesky decomp.... done (  0.3 sec)
Calculating Nuclear repulsion               ... done (  0.0 sec) ENN=    326.529336195564 Eh

SHARK setup successfully completed in   1.6 seconds

Maximum memory used throughout the entire GTOINT-calculation: 94.1 MB
-------------------------------------------------------------------------------
                                 ORCA SCF
-------------------------------------------------------------------------------

------------
SCF SETTINGS
------------
Hamiltonian:
 Density Functional     Method          .... DFT(GTOs)
 Exchange Functional    Exchange        .... PBE
   PBE kappa parameter   XKappa         ....  0.804000
   PBE mue parameter    XMuePBE         ....  0.219520
 Correlation Functional Correlation     .... PBE
   PBE beta parameter  CBetaPBE         ....  0.066725
 LDA part of GGA corr.  LDAOpt          .... PW91-LDA
 Gradients option       PostSCFGGA      .... off
   Density functional embedding theory  .... OFF
   NL short-range parameter             ....  6.400000
 RI-approximation to the Coulomb term is turned on
   Number of AuxJ basis functions       .... 469


General Settings:
 Integral files         IntName         .... inp
 Hartree-Fock type      HFTyp           .... RHF
 Total Charge           Charge          ....   -1
 Multiplicity           Mult            ....    1
 Number of Electrons    NEL             ....   58
 Basis Dimension        Dim             ....  290
 Nuclear Repulsion      ENuc            ....    326.5293361956 Eh

Convergence Acceleration:
 DIIS                   CNVDIIS         .... on
   Start iteration      DIISMaxIt       ....    12
   Startup error        DIISStart       ....  0.200000
   # of expansion vecs  DIISMaxEq       ....     5
   Bias factor          DIISBfac        ....   1.050
   Max. coefficient     DIISMaxC        ....  10.000
 Trust-Rad. Augm. Hess. CNVTRAH         .... auto
   Auto Start mean grad. ratio tolernc. ....  1.125000
   Auto Start start iteration           ....    20
   Auto Start num. interpolation iter.  ....    10
   Max. Number of Micro iterations      ....    16
   Max. Number of Macro iterations      .... Maxiter - #DIIS iter
   Number of Davidson start vectors     ....     2
   Converg. threshold I  (grad. norm)   ....   1.000e-05
   Converg. threshold II (energy diff.) ....   1.000e-08
   Grad. Scal. Fac. for Micro threshold ....   0.100
   Minimum threshold for Micro iter.    ....   0.010
   NR start threshold (gradient norm)   ....   0.001
   Initial trust radius                 ....   0.400
   Minimum AH scaling param. (alpha)    ....   1.000
   Maximum AH scaling param. (alpha)    .... 1000.000
   Orbital update algorithm             .... Taylor
   White noise on init. David. guess    .... on
   Maximum white noise                  ....   0.010
   Quad. conv. algorithm                .... NR
 SOSCF                  CNVSOSCF        .... on
   Start iteration      SOSCFMaxIt      ....   150
   Startup grad/error   SOSCFStart      ....  0.003300
 Level Shifting         CNVShift        .... on
   Level shift para.    LevelShift      ....    0.2500
   Turn off err/grad.   ShiftErr        ....    0.0010
 Zerner damping         CNVZerner       .... off
 Static damping         CNVDamp         .... on
   Fraction old density DampFac         ....    0.7000
   Max. Damping (<1)    DampMax         ....    0.9800
   Min. Damping (>=0)   DampMin         ....    0.0000
   Turn off err/grad.   DampErr         ....    0.1000
 Fernandez-Rico         CNVRico         .... off

SCF Procedure:
 Maximum # iterations   MaxIter         ....   125
 SCF integral mode      SCFMode         .... Direct
   Integral package                     .... SHARK and LIBINT hybrid scheme
 Reset frequency        DirectResetFreq ....    20
 Integral Threshold     Thresh          ....  2.500e-11 Eh
 Primitive CutOff       TCut            ....  2.500e-12 Eh

Convergence Tolerance:
 Convergence Check Mode ConvCheckMode   .... Total+1el-Energy
 Convergence forced     ConvForced      .... 0
 Energy Change          TolE            ....  1.000e-08 Eh
 1-El. energy change                    ....  1.000e-05 Eh
 Orbital Gradient       TolG            ....  1.000e-05
 Orbital Rotation angle TolX            ....  1.000e-05
 DIIS Error             TolErr          ....  5.000e-07


Diagonalization of the overlap matrix:
Smallest eigenvalue                        ... 1.498e-05
Time for diagonalization                   ...    0.013 sec
Threshold for overlap eigenvalues          ... 1.000e-08
Number of eigenvalues below threshold      ... 0
Time for construction of square roots      ...    0.125 sec
Total time needed                          ...    0.138 sec

Time for model grid setup =    0.393 sec

------------------------------
INITIAL GUESS: MODEL POTENTIAL
------------------------------
Loading Hartree-Fock densities                     ... done
Calculating cut-offs                               ... done
Initializing the effective Hamiltonian             ... done
Setting up the integral package (SHARK)            ... done
Starting the Coulomb interaction                   ... done (   0.4 sec)
Reading the grid                                   ... done
Mapping shells                                     ... done
Starting the XC term evaluation                    ... done (   0.5 sec)
  promolecular density results
     # of electrons  =     56.994599255
     EX              =    -45.893776846
     EC              =     -1.867046569
     EX+EC           =    -47.760823416
Transforming the Hamiltonian                       ... done (   0.0 sec)
Diagonalizing the Hamiltonian                      ... done (   0.0 sec)
Back transforming the eigenvectors                 ... done (   0.0 sec)
Now organizing SCF variables                       ... done
                      ------------------
                      INITIAL GUESS DONE (   1.4 sec)
                      ------------------
-------------------
DFT GRID GENERATION
-------------------

General Integration Accuracy     IntAcc      ... 4.388
Radial Grid Type                 RadialGrid  ... OptM3 with GC (2021)
Angular Grid (max. ang.)         AngularGrid ... 4 (Lebedev-302)
Angular grid pruning method      GridPruning ... 4 (adaptive)
Weight generation scheme         WeightScheme... Becke
Basis function cutoff            BFCut       ... 1.0000e-11
Integration weight cutoff        WCut        ... 1.0000e-14
Angular grids for H and He will be reduced by one unit
Partially contracted basis set               ... off
Rotationally invariant grid construction     ... off

Total number of grid points                  ...    70928
Total number of batches                      ...     1117
Average number of points per batch           ...       63
Average number of grid points per atom       ...     4729
Time for grid setup =    1.143 sec


--------------------
CPCM SOLVATION MODEL
--------------------
CPCM parameters:
  Epsilon                                         ...      80.4000
  Refrac                                          ...       1.3300
  Rsolv                                           ...       1.3000
  Surface type                                    ... GAUSSIAN VDW
  Epsilon function type                           ...         CPCM
Radii:
 Radius for C  used is    3.8550 Bohr (=   2.0400 Ang.)
 Radius for H  used is    2.4944 Bohr (=   1.3200 Ang.)
 Radius for O  used is    3.4469 Bohr (=   1.8240 Ang.)
Calculating surface                               ...        done! (  0.0s)
GEPOL surface points                              ...          873
GEPOL Volume                                      ...     980.3973
GEPOL Surface-area                                ...     555.6405
Calculating surface distance matrix               ...        done! (  0.0s)
Performing Cholesky decomposition & store         ...        done! (  0.2s)
Overall time for CPCM initialization              ...                 0.2s
--------------
SCF ITERATIONS
--------------
ITER       Energy         Delta-E        Max-DP      RMS-DP      [F,P]     Damp
               ***  Starting incremental Fock matrix formation  ***
  0   -345.7107522312   0.000000000000 0.64742958  0.00650212  0.3271983 0.7000
  1   -345.8495785155  -0.138826284332 0.49872201  0.00506724  0.1020367 0.7000
                               ***Turning on DIIS***
  2   -345.8959807822  -0.046402266658 0.19682006  0.00345867  0.0283318 0.0000
  3   -345.9694959232  -0.073515141037 0.49429234  0.00482241  0.0546605 0.0000
  4   -345.9893123205  -0.019816397346 0.07491078  0.00083008  0.0250177 0.0000
  5   -345.9915683581  -0.002256037580 0.03486225  0.00041254  0.0073480 0.0000
                      *** Initiating the SOSCF procedure ***
                           *** Shutting down DIIS ***
                      *** Re-Reading the Fockian *** 
                      *** Removing any level shift *** 
ITER      Energy       Delta-E        Grad      Rot      Max-DP    RMS-DP
  6   -345.99172322  -0.0001548586  0.000500  0.000500  0.019295  0.000277
               *** Restarting incremental Fock matrix formation ***
  7   -345.99172304   0.0000001724  0.000873  0.005912  0.021683  0.000226
  8   -345.99165360   0.0000694479  0.002369  0.004367  0.015016  0.000155
  9   -345.99173464  -0.0000810466  0.000148  0.000467  0.000325  0.000009
 10   -345.99173335   0.0000012886  0.000317  0.000322  0.000715  0.000009
 11   -345.99173507  -0.0000017108  0.000040  0.000202  0.001254  0.000014
 12   -345.99173491   0.0000001511  0.000074  0.000138  0.000749  0.000008
 13   -345.99173512  -0.0000002033  0.000006  0.000026  0.000097  0.000001
 14   -345.99173511   0.0000000040  0.000012  0.000020  0.000024  0.000001
                  ***Gradient check signals convergence***
              ***Rediagonalizing the Fockian in SOSCF/NRSCF***

               *****************************************************
               *                     SUCCESS                       *
               *           SCF CONVERGED AFTER  15 CYCLES          *
               *****************************************************


----------------
TOTAL SCF ENERGY
----------------

Total Energy       :         -345.99173511 Eh           -9414.91376 eV

Components:
Nuclear Repulsion  :          326.52933620 Eh            8885.31496 eV
Electronic Energy  :         -672.52107131 Eh          -18300.22872 eV
One Electron Energy:        -1126.65797926 Eh          -30657.92223 eV
Two Electron Energy:          454.13690795 Eh           12357.69352 eV
CPCM Dielectric    :           -0.10072958 Eh              -2.74099 eV

Virial components:
Potential Energy   :         -690.10928346 Eh          -18778.82830 eV
Kinetic Energy     :          344.11754834 Eh            9363.91454 eV
Virial Ratio       :            2.00544636


DFT components:
N(Alpha)           :       29.000029405859 electrons
N(Beta)            :       29.000029405859 electrons
N(Total)           :       58.000058811717 electrons
E(X)               :      -47.020092778594 Eh       
E(C)               :       -1.910926293047 Eh       
E(XC)              :      -48.931019071641 Eh       
DFET-embed. en.    :        0.000000000000 Eh       
CPCM Solvation Model Properties:
Surface-charge          :            0.96478709
Charge-correction       :           -0.00519434 Eh              -0.14135 eV
Free-energy (cav+disp)  :  This term is not implemented in the current solvation scheme

---------------
SCF CONVERGENCE
---------------

  Last Energy change         ...   -1.3110e-09  Tolerance :   1.0000e-08
  Last MAX-Density change    ...    4.1757e-05  Tolerance :   1.0000e-07
  Last RMS-Density change    ...    3.9473e-07  Tolerance :   5.0000e-09
  Last Orbital Gradient      ...    1.4724e-06  Tolerance :   1.0000e-05
  Last Orbital Rotation      ...    8.3321e-06  Tolerance :   1.0000e-05

             **** THE GBW FILE WAS UPDATED (inp.gbw) ****
             **** DENSITY inp.scfp WAS UPDATED ****
             **** ENERGY FILE WAS UPDATED (inp.en.tmp) ****
             **** THE GBW FILE WAS UPDATED (inp.gbw) ****
             **** DENSITY inp.scfp WAS UPDATED ****
----------------
ORBITAL ENERGIES
----------------

  NO   OCC          E(Eh)            E(eV) 
   0   2.0000     -18.652777      -507.5679 
   1   2.0000      -9.896837      -269.3066 
   2   2.0000      -9.883381      -268.9405 
   3   2.0000      -9.873845      -268.6810 
   4   2.0000      -9.862346      -268.3681 
   5   2.0000      -9.859019      -268.2775 
   6   2.0000      -9.851123      -268.0627 
   7   2.0000      -9.848072      -267.9797 
   8   2.0000      -0.875546       -23.8248 
   9   2.0000      -0.720774       -19.6133 
  10   2.0000      -0.663740       -18.0613 
  11   2.0000      -0.609712       -16.5911 
  12   2.0000      -0.587434       -15.9849 
  13   2.0000      -0.508269       -13.8307 
  14   2.0000      -0.471876       -12.8404 
  15   2.0000      -0.416542       -11.3347 
  16   2.0000      -0.385965       -10.5026 
  17   2.0000      -0.373746       -10.1702 
  18   2.0000      -0.361798        -9.8450 
  19   2.0000      -0.335683        -9.1344 
  20   2.0000      -0.325870        -8.8674 
  21   2.0000      -0.323394        -8.8000 
  22   2.0000      -0.313212        -8.5229 
  23   2.0000      -0.283034        -7.7018 
  24   2.0000      -0.276056        -7.5119 
  25   2.0000      -0.244852        -6.6628 
  26   2.0000      -0.190144        -5.1741 
  27   2.0000      -0.155674        -4.2361 
  28   2.0000      -0.137919        -3.7530 
  29   0.0000      -0.030083        -0.8186 
  30   0.0000       0.009565         0.2603 
  31   0.0000       0.041453         1.1280 
  32   0.0000       0.061318         1.6686 
  33   0.0000       0.082670         2.2496 
  34   0.0000       0.093148         2.5347 
  35   0.0000       0.095688         2.6038 
  36   0.0000       0.099457         2.7064 
  37   0.0000       0.108126         2.9423 
  38   0.0000       0.127615         3.4726 
  39   0.0000       0.137906         3.7526 
  40   0.0000       0.138188         3.7603 
  41   0.0000       0.170503         4.6396 
  42   0.0000       0.179902         4.8954 
  43   0.0000       0.183044         4.9809 
  44   0.0000       0.202832         5.5194 
  45   0.0000       0.211342         5.7509 
  46   0.0000       0.220173         5.9912 
  47   0.0000       0.239005         6.5037 
  48   0.0000       0.245018         6.6673 
  49   0.0000       0.248694         6.7673 
  50   0.0000       0.265054         7.2125 
  51   0.0000       0.276405         7.5214 
  52   0.0000       0.283839         7.7236 
  53   0.0000       0.300164         8.1679 
  54   0.0000       0.321456         8.7472 
  55   0.0000       0.322738         8.7821 
  56   0.0000       0.324709         8.8358 
  57   0.0000       0.333239         9.0679 
  58   0.0000       0.337873         9.1940 
  59   0.0000       0.353343         9.6150 
  60   0.0000       0.373336        10.1590 
  61   0.0000       0.388063        10.5597 
  62   0.0000       0.403538        10.9808 
  63   0.0000       0.406518        11.0619 
  64   0.0000       0.416181        11.3249 
  65   0.0000       0.423305        11.5187 
  66   0.0000       0.439072        11.9477 
  67   0.0000       0.442282        12.0351 
  68   0.0000       0.454668        12.3721 
  69   0.0000       0.463199        12.6043 
  70   0.0000       0.472471        12.8566 
  71   0.0000       0.482724        13.1356 
  72   0.0000       0.488673        13.2975 
  73   0.0000       0.495511        13.4836 
  74   0.0000       0.510606        13.8943 
  75   0.0000       0.521518        14.1912 
  76   0.0000       0.569965        15.5095 
  77   0.0000       0.576352        15.6833 
  78   0.0000       0.603461        16.4210 
  79   0.0000       0.605199        16.4683 
  80   0.0000       0.613161        16.6850 
  81   0.0000       0.633076        17.2269 
  82   0.0000       0.638766        17.3817 
  83   0.0000       0.669712        18.2238 
  84   0.0000       0.702544        19.1172 
  85   0.0000       0.714662        19.4469 
  86   0.0000       0.730582        19.8802 
  87   0.0000       0.761316        20.7165 
  88   0.0000       0.763312        20.7708 
  89   0.0000       0.788531        21.4570 
  90   0.0000       0.811654        22.0862 
  91   0.0000       0.813999        22.1500 
  92   0.0000       0.832290        22.6478 
  93   0.0000       0.857113        23.3232 
  94   0.0000       0.860614        23.4185 
  95   0.0000       0.887834        24.1592 
  96   0.0000       0.901457        24.5299 
  97   0.0000       0.941376        25.6161 
  98   0.0000       0.962303        26.1856 
  99   0.0000       0.987799        26.8794 
 100   0.0000       1.006709        27.3939 
 101   0.0000       1.023024        27.8379 
 102   0.0000       1.047291        28.4982 
 103   0.0000       1.073394        29.2085 
 104   0.0000       1.098978        29.9047 
 105   0.0000       1.103030        30.0150 
 106   0.0000       1.137250        30.9462 
 107   0.0000       1.147398        31.2223 
 108   0.0000       1.166774        31.7495 
 109   0.0000       1.184419        32.2297 
 110   0.0000       1.185331        32.2545 
 111   0.0000       1.203350        32.7448 
 112   0.0000       1.208043        32.8725 
 113   0.0000       1.263346        34.3774 
 114   0.0000       1.274908        34.6920 
 115   0.0000       1.302465        35.4419 
 116   0.0000       1.334453        36.3123 
 117   0.0000       1.366796        37.1924 
 118   0.0000       1.398929        38.0668 
 119   0.0000       1.403251        38.1844 
 120   0.0000       1.410578        38.3838 
 121   0.0000       1.432319        38.9754 
 122   0.0000       1.444287        39.3011 
 123   0.0000       1.476575        40.1797 
 124   0.0000       1.479133        40.2493 
 125   0.0000       1.489376        40.5280 
 126   0.0000       1.506214        40.9862 
 127   0.0000       1.509791        41.0835 
 128   0.0000       1.517585        41.2956 
 129   0.0000       1.573496        42.8170 
 130   0.0000       1.581880        43.0451 
 131   0.0000       1.595463        43.4148 
 132   0.0000       1.602361        43.6025 
 133   0.0000       1.631107        44.3847 
 134   0.0000       1.632400        44.4199 
 135   0.0000       1.686836        45.9011 
 136   0.0000       1.698971        46.2313 
 137   0.0000       1.731184        47.1079 
 138   0.0000       1.770636        48.1815 
 139   0.0000       1.807443        49.1830 
 140   0.0000       1.826092        49.6905 
 141   0.0000       1.869442        50.8701 
 142   0.0000       1.880681        51.1759 
 143   0.0000       1.897965        51.6463 
 144   0.0000       1.898363        51.6571 
 145   0.0000       1.940113        52.7932 
 146   0.0000       1.968091        53.5545 
 147   0.0000       1.987887        54.0932 
 148   0.0000       2.002572        54.4927 
 149   0.0000       2.010071        54.6968 
 150   0.0000       2.033863        55.3442 
 151   0.0000       2.065487        56.2048 
 152   0.0000       2.079656        56.5903 
 153   0.0000       2.121004        57.7155 
 154   0.0000       2.141120        58.2628 
 155   0.0000       2.143151        58.3181 
 156   0.0000       2.177887        59.2633 
 157   0.0000       2.205384        60.0115 
 158   0.0000       2.247703        61.1631 
 159   0.0000       2.271986        61.8239 
 160   0.0000       2.310304        62.8666 
 161   0.0000       2.318605        63.0925 
 162   0.0000       2.367968        64.4357 
 163   0.0000       2.412361        65.6437 
 164   0.0000       2.424804        65.9823 
 165   0.0000       2.439395        66.3793 
 166   0.0000       2.444293        66.5126 
 167   0.0000       2.463099        67.0243 
 168   0.0000       2.476414        67.3866 
 169   0.0000       2.501215        68.0615 
 170   0.0000       2.512756        68.3756 
 171   0.0000       2.523692        68.6732 
 172   0.0000       2.535222        68.9869 
 173   0.0000       2.561322        69.6971 
 174   0.0000       2.596752        70.6612 
 175   0.0000       2.601616        70.7936 
 176   0.0000       2.621820        71.3434 
 177   0.0000       2.639643        71.8283 
 178   0.0000       2.643580        71.9355 
 179   0.0000       2.699027        73.4442 
 180   0.0000       2.702320        73.5339 
 181   0.0000       2.717765        73.9541 
 182   0.0000       2.731488        74.3276 
 183   0.0000       2.735148        74.4272 
 184   0.0000       2.739172        74.5367 
 185   0.0000       2.755201        74.9728 
 186   0.0000       2.821307        76.7717 
 187   0.0000       2.826779        76.9206 
 188   0.0000       2.859320        77.8060 
 189   0.0000       2.881758        78.4166 
 190   0.0000       2.903477        79.0076 
 191   0.0000       2.919086        79.4324 
 192   0.0000       2.932807        79.8057 
 193   0.0000       2.957645        80.4816 
 194   0.0000       2.977612        81.0249 
 195   0.0000       2.986459        81.2657 
 196   0.0000       3.009469        81.8918 
 197   0.0000       3.010556        81.9214 
 198   0.0000       3.032415        82.5162 
 199   0.0000       3.058781        83.2337 
 200   0.0000       3.064956        83.4017 
 201   0.0000       3.107427        84.5574 
 202   0.0000       3.114058        84.7378 
 203   0.0000       3.117652        84.8356 
 204   0.0000       3.150750        85.7363 
 205   0.0000       3.155868        85.8755 
 206   0.0000       3.164788        86.1183 
 207   0.0000       3.199611        87.0658 
 208   0.0000       3.201156        87.1079 
 209   0.0000       3.214124        87.4608 
 210   0.0000       3.228794        87.8599 
 211   0.0000       3.236834        88.0787 
 212   0.0000       3.248330        88.3915 
 213   0.0000       3.258633        88.6719 
 214   0.0000       3.265989        88.8721 
 215   0.0000       3.287836        89.4666 
 216   0.0000       3.316125        90.2363 
 217   0.0000       3.336813        90.7993 
 218   0.0000       3.338532        90.8461 
 219   0.0000       3.357076        91.3507 
 220   0.0000       3.362141        91.4885 
 221   0.0000       3.395231        92.3889 
 222   0.0000       3.408607        92.7529 
 223   0.0000       3.418718        93.0280 
 224   0.0000       3.474159        94.5367 
 225   0.0000       3.518631        95.7468 
 226   0.0000       3.526178        95.9522 
 227   0.0000       3.562845        96.9499 
 228   0.0000       3.588756        97.6550 
 229   0.0000       3.606797        98.1459 
 230   0.0000       3.639876        99.0461 
 231   0.0000       3.673729        99.9673 
 232   0.0000       3.690000       100.4100 
 233   0.0000       3.741057       101.7993 
 234   0.0000       3.775048       102.7243 
 235   0.0000       3.793477       103.2257 
 236   0.0000       3.796626       103.3115 
 237   0.0000       3.878353       105.5354 
 238   0.0000       3.889178       105.8299 
 239   0.0000       3.924873       106.8012 
 240   0.0000       3.955213       107.6268 
 241   0.0000       3.978016       108.2473 
 242   0.0000       4.000507       108.8593 
 243   0.0000       4.028751       109.6279 
 244   0.0000       4.037046       109.8536 
 245   0.0000       4.040527       109.9483 
 246   0.0000       4.052376       110.2708 
 247   0.0000       4.069320       110.7318 
 248   0.0000       4.121957       112.1642 
 249   0.0000       4.139849       112.6510 
 250   0.0000       4.180277       113.7511 
 251   0.0000       4.304742       117.1380 
 252   0.0000       4.309796       117.2755 
 253   0.0000       4.379973       119.1851 
 254   0.0000       4.398890       119.6999 
 255   0.0000       4.421531       120.3160 
 256   0.0000       4.460762       121.3835 
 257   0.0000       4.465474       121.5117 
 258   0.0000       4.561876       124.1350 
 259   0.0000       4.618941       125.6878 
 260   0.0000       4.653017       126.6150 
 261   0.0000       4.741125       129.0126 
 262   0.0000       4.830763       131.4517 
 263   0.0000       4.874099       132.6310 
 264   0.0000       4.905427       133.4835 
 265   0.0000       4.963393       135.0608 
 266   0.0000       5.115610       139.2028 
 267   0.0000       5.151597       140.1821 
 268   0.0000       5.178577       140.9162 
 269   0.0000       5.193525       141.3230 
 270   0.0000       5.273430       143.4973 
 271   0.0000       5.494759       149.5200 
 272   0.0000       5.504286       149.7792 
 273   0.0000       5.708726       155.3423 
 274   0.0000       5.978570       162.6852 
 275   0.0000       6.263800       170.4467 
 276   0.0000       6.313376       171.7957 
 277   0.0000       6.496537       176.7798 
 278   0.0000       6.502955       176.9544 
 279   0.0000       6.734918       183.2664 
 280   0.0000       6.977034       189.8548 
 281   0.0000       6.995761       190.3643 
 282   0.0000      21.870190       595.1181 
 283   0.0000      22.148067       602.6795 
 284   0.0000      22.172967       603.3571 
 285   0.0000      22.235503       605.0588 
 286   0.0000      22.289902       606.5391 
 287   0.0000      22.579498       614.4194 
 288   0.0000      23.031550       626.7203 
 289   0.0000      43.595021      1186.2808 

                    ********************************
                    * MULLIKEN POPULATION ANALYSIS *
                    ********************************

-----------------------
MULLIKEN ATOMIC CHARGES
-----------------------
   0 C :   -0.339771
   1 C :   -0.146051
   2 H :    0.113162
   3 C :   -0.387230
   4 C :   -0.352522
   5 H :    0.120345
   6 C :    0.284656
   7 H :    0.086261
   8 C :   -0.421444
   9 O :   -0.570261
  10 C :    0.153745
  11 H :    0.128145
  12 H :    0.126918
  13 H :    0.126856
  14 H :    0.077190
Sum of atomic charges:   -1.0000000

--------------------------------
MULLIKEN REDUCED ORBITAL CHARGES
--------------------------------
  0 C s       :     3.276908  s :     3.276908
      pz      :     0.968715  p :     2.978310
      px      :     1.047295
      py      :     0.962300
      dz2     :     0.018054  d :     0.078312
      dxz     :     0.010895
      dyz     :     0.021042
      dx2y2   :     0.009753
      dxy     :     0.018568
      f0      :     0.000967  f :     0.006241
      f+1     :     0.000601
      f-1     :     0.001081
      f+2     :     0.000954
      f-2     :     0.001186
      f+3     :     0.000849
      f-3     :     0.000602
  1 C s       :     3.214587  s :     3.214587
      pz      :     0.954375  p :     2.842913
      px      :     0.966816
      py      :     0.921723
      dz2     :     0.013689  d :     0.082247
      dxz     :     0.010277
      dyz     :     0.017541
      dx2y2   :     0.021124
      dxy     :     0.019616
      f0      :     0.000260  f :     0.006303
      f+1     :     0.000793
      f-1     :     0.001341
      f+2     :     0.000954
      f-2     :     0.000992
      f+3     :     0.001111
      f-3     :     0.000853
  2 H s       :     0.864114  s :     0.864114
      pz      :     0.006136  p :     0.022723
      px      :     0.008590
      py      :     0.007998
  3 C s       :     3.256578  s :     3.256578
      pz      :     1.054051  p :     3.074098
      px      :     1.065710
      py      :     0.954337
      dz2     :     0.013257  d :     0.053301
      dxz     :     0.005026
      dyz     :     0.009556
      dx2y2   :     0.005807
      dxy     :     0.019655
      f0      :     0.000361  f :     0.003252
      f+1     :     0.000260
      f-1     :     0.000742
      f+2     :     0.000246
      f-2     :     0.000537
      f+3     :     0.000419
      f-3     :     0.000686
  4 C s       :     3.317543  s :     3.317543
      pz      :     0.991109  p :     2.960870
      px      :     1.021995
      py      :     0.947766
      dz2     :     0.015400  d :     0.067814
      dxz     :     0.010725
      dyz     :     0.016760
      dx2y2   :     0.016369
      dxy     :     0.008560
      f0      :     0.000904  f :     0.006296
      f+1     :     0.000896
      f-1     :     0.000798
      f+2     :     0.001116
      f-2     :     0.001099
      f+3     :     0.000617
      f-3     :     0.000865
  5 H s       :     0.857451  s :     0.857451
      pz      :     0.010385  p :     0.022204
      px      :     0.006988
      py      :     0.004831
  6 C s       :     2.925479  s :     2.925479
      pz      :     0.867906  p :     2.609332
      px      :     0.867194
      py      :     0.874233
      dz2     :     0.033022  d :     0.163657
      dxz     :     0.022494
      dyz     :     0.035710
      dx2y2   :     0.042215
      dxy     :     0.030217
      f0      :     0.001532  f :     0.016875
      f+1     :     0.001910
      f-1     :     0.003308
      f+2     :     0.002140
      f-2     :     0.002729
      f+3     :     0.002899
      f-3     :     0.002358
  7 H s       :     0.891134  s :     0.891134
      pz      :     0.006142  p :     0.022605
      px      :     0.005271
      py      :     0.011191
  8 C s       :     3.370034  s :     3.370034
      pz      :     0.982388  p :     2.979495
      px      :     1.035177
      py      :     0.961931
      dz2     :     0.011679  d :     0.065654
      dxz     :     0.010220
      dyz     :     0.015919
      dx2y2   :     0.014374
      dxy     :     0.013461
      f0      :     0.000336  f :     0.006260
      f+1     :     0.000792
      f-1     :     0.001191
      f+2     :     0.000914
      f-2     :     0.000971
      f+3     :     0.001103
      f-3     :     0.000953
  9 O s       :     3.735410  s :     3.735410
      pz      :     1.688015  p :     4.806204
      px      :     1.521170
      py      :     1.597020
      dz2     :     0.004031  d :     0.027036
      dxz     :     0.004088
      dyz     :     0.005347
      dx2y2   :     0.006954
      dxy     :     0.006616
      f0      :     0.000128  f :     0.001611
      f+1     :     0.000170
      f-1     :     0.000226
      f+2     :     0.000184
      f-2     :     0.000307
      f+3     :     0.000273
      f-3     :     0.000323
 10 C s       :     3.187925  s :     3.187925
      pz      :     0.847604  p :     2.517485
      px      :     0.874232
      py      :     0.795649
      dz2     :     0.030607  d :     0.131983
      dxz     :     0.017880
      dyz     :     0.031499
      dx2y2   :     0.025266
      dxy     :     0.026731
      f0      :     0.001098  f :     0.008862
      f+1     :     0.000954
      f-1     :     0.001743
      f+2     :     0.001353
      f-2     :     0.001363
      f+3     :     0.001251
      f-3     :     0.001100
 11 H s       :     0.850738  s :     0.850738
      pz      :     0.006127  p :     0.021117
      px      :     0.007558
      py      :     0.007432
 12 H s       :     0.852032  s :     0.852032
      pz      :     0.010879  p :     0.021050
      px      :     0.005490
      py      :     0.004681
 13 H s       :     0.852090  s :     0.852090
      pz      :     0.004686  p :     0.021053
      px      :     0.009886
      py      :     0.006482
 14 H s       :     0.900217  s :     0.900217
      pz      :     0.010689  p :     0.022593
      px      :     0.007470
      py      :     0.004433


                     *******************************
                     * LOEWDIN POPULATION ANALYSIS *
                     *******************************

----------------------
LOEWDIN ATOMIC CHARGES
----------------------
   0 C :   -0.223424
   1 C :   -0.191430
   2 H :    0.128980
   3 C :   -0.290762
   4 C :   -0.209217
   5 H :    0.129474
   6 C :   -0.485349
   7 H :    0.125148
   8 C :   -0.178356
   9 O :   -0.127762
  10 C :   -0.197479
  11 H :    0.128165
  12 H :    0.132019
  13 H :    0.131983
  14 H :    0.128012

-------------------------------
LOEWDIN REDUCED ORBITAL CHARGES
-------------------------------
  0 C s       :     2.797127  s :     2.797127
      pz      :     1.018774  p :     3.052783
      px      :     1.015356
      py      :     1.018654
      dz2     :     0.071862  d :     0.340007
      dxz     :     0.049898
      dyz     :     0.097991
      dx2y2   :     0.046416
      dxy     :     0.073840
      f0      :     0.004553  f :     0.033507
      f+1     :     0.004212
      f-1     :     0.006499
      f+2     :     0.005406
      f-2     :     0.004663
      f+3     :     0.004829
      f-3     :     0.003346
  1 C s       :     2.809206  s :     2.809206
      pz      :     0.977003  p :     2.982001
      px      :     0.966948
      py      :     1.038050
      dz2     :     0.057912  d :     0.365775
      dxz     :     0.051317
      dyz     :     0.082040
      dx2y2   :     0.088947
      dxy     :     0.085560
      f0      :     0.001882  f :     0.034449
      f+1     :     0.003608
      f-1     :     0.008074
      f+2     :     0.005092
      f-2     :     0.004978
      f+3     :     0.006842
      f-3     :     0.003973
  2 H s       :     0.806607  s :     0.806607
      pz      :     0.017516  p :     0.064413
      px      :     0.024267
      py      :     0.022630
  3 C s       :     2.822517  s :     2.822517
      pz      :     1.064769  p :     3.181340
      px      :     1.068067
      py      :     1.048504
      dz2     :     0.063368  d :     0.261330
      dxz     :     0.027673
      dyz     :     0.049961
      dx2y2   :     0.036572
      dxy     :     0.083757
      f0      :     0.002572  f :     0.025575
      f+1     :     0.002364
      f-1     :     0.004891
      f+2     :     0.003566
      f-2     :     0.004186
      f+3     :     0.003122
      f-3     :     0.004874
  4 C s       :     2.807007  s :     2.807007
      pz      :     1.018642  p :     3.039144
      px      :     1.019912
      py      :     1.000590
      dz2     :     0.067354  d :     0.328761
      dxz     :     0.064893
      dyz     :     0.078787
      dx2y2   :     0.069541
      dxy     :     0.048186
      f0      :     0.004720  f :     0.034305
      f+1     :     0.005496
      f-1     :     0.005498
      f+2     :     0.005006
      f-2     :     0.005249
      f+3     :     0.004282
      f-3     :     0.004052
  5 H s       :     0.808055  s :     0.808055
      pz      :     0.029065  p :     0.062471
      px      :     0.019576
      py      :     0.013829
  6 C s       :     2.743638  s :     2.743638
      pz      :     0.963078  p :     2.825899
      px      :     0.885472
      py      :     0.977349
      dz2     :     0.155889  d :     0.802407
      dxz     :     0.129114
      dyz     :     0.172212
      dx2y2   :     0.192238
      dxy     :     0.152954
      f0      :     0.009616  f :     0.113406
      f+1     :     0.011400
      f-1     :     0.025208
      f+2     :     0.014795
      f-2     :     0.017467
      f+3     :     0.019687
      f-3     :     0.015232
  7 H s       :     0.811381  s :     0.811381
      pz      :     0.017404  p :     0.063471
      px      :     0.014933
      py      :     0.031134
  8 C s       :     2.800762  s :     2.800762
      pz      :     0.997456  p :     3.023451
      px      :     1.008156
      py      :     1.017839
      dz2     :     0.055674  d :     0.320453
      dxz     :     0.048703
      dyz     :     0.072080
      dx2y2   :     0.071893
      dxy     :     0.072103
      f0      :     0.002079  f :     0.033690
      f+1     :     0.003497
      f-1     :     0.007099
      f+2     :     0.005250
      f-2     :     0.005093
      f+3     :     0.006101
      f-3     :     0.004571
  9 O s       :     3.404640  s :     3.404640
      pz      :     1.588422  p :     4.649991
      px      :     1.496241
      py      :     1.565329
      dz2     :     0.010332  d :     0.067388
      dxz     :     0.011852
      dyz     :     0.012095
      dx2y2   :     0.016057
      dxy     :     0.017052
      f0      :     0.000484  f :     0.005742
      f+1     :     0.000615
      f-1     :     0.000761
      f+2     :     0.000551
      f-2     :     0.001238
      f+3     :     0.001108
      f-3     :     0.000984
 10 C s       :     2.749904  s :     2.749904
      pz      :     0.971246  p :     2.883765
      px      :     0.929228
      py      :     0.983291
      dz2     :     0.112693  d :     0.513928
      dxz     :     0.076188
      dyz     :     0.122882
      dx2y2   :     0.105917
      dxy     :     0.096248
      f0      :     0.005797  f :     0.049882
      f+1     :     0.005538
      f-1     :     0.010811
      f+2     :     0.006773
      f-2     :     0.007120
      f+3     :     0.007958
      f-3     :     0.005886
 11 H s       :     0.811036  s :     0.811036
      pz      :     0.018753  p :     0.060799
      px      :     0.022478
      py      :     0.019568
 12 H s       :     0.806643  s :     0.806643
      pz      :     0.031868  p :     0.061338
      px      :     0.016087
      py      :     0.013383
 13 H s       :     0.806689  s :     0.806689
      pz      :     0.013651  p :     0.061328
      px      :     0.030376
      py      :     0.017300
 14 H s       :     0.808344  s :     0.808344
      pz      :     0.029766  p :     0.063644
      px      :     0.020948
      py      :     0.012930


                      *****************************
                      * MAYER POPULATION ANALYSIS *
                      *****************************

  NA   - Mulliken gross atomic population
  ZA   - Total nuclear charge
  QA   - Mulliken gross atomic charge
  VA   - Mayer's total valence
  BVA  - Mayer's bonded valence
  FA   - Mayer's free valence

  ATOM       NA         ZA         QA         VA         BVA        FA
  0 C      6.3398     6.0000    -0.3398     3.8594     3.8594    -0.0000
  1 C      6.1461     6.0000    -0.1461     3.7708     3.7708     0.0000
  2 H      0.8868     1.0000     0.1132     0.9708     0.9708     0.0000
  3 C      6.3872     6.0000    -0.3872     3.8482     3.8482     0.0000
  4 C      6.3525     6.0000    -0.3525     3.7548     3.7548     0.0000
  5 H      0.8797     1.0000     0.1203     0.9616     0.9616     0.0000
  6 C      5.7153     6.0000     0.2847     4.1155     4.1155    -0.0000
  7 H      0.9137     1.0000     0.0863     1.0038     1.0038    -0.0000
  8 C      6.4214     6.0000    -0.4214     3.7305     3.7305     0.0000
  9 O      8.5703     8.0000    -0.5703     1.9213     1.9213    -0.0000
 10 C      5.8463     6.0000     0.1537     3.5636     3.5636    -0.0000
 11 H      0.8719     1.0000     0.1281     0.9741     0.9741     0.0000
 12 H      0.8731     1.0000     0.1269     0.9656     0.9656    -0.0000
 13 H      0.8731     1.0000     0.1269     0.9656     0.9656     0.0000
 14 H      0.9228     1.0000     0.0772     1.0106     1.0106     0.0000

  Mayer bond orders larger than 0.100000
B(  0-C ,  1-C ) :   1.3463 B(  0-C ,  2-H ) :   0.9723 B(  0-C , 10-C ) :   1.3175 
B(  1-C ,  4-C ) :   1.3661 B(  1-C ,  5-H ) :   0.9618 B(  3-C , 10-C ) :   0.9306 
B(  3-C , 11-H ) :   0.9817 B(  3-C , 12-H ) :   0.9551 B(  3-C , 13-H ) :   0.9548 
B(  4-C ,  6-C ) :   1.1967 B(  4-C ,  7-H ) :   0.9822 B(  6-C ,  8-C ) :   1.2078 
B(  6-C ,  9-O ) :   1.6851 B(  8-C , 10-C ) :   1.3035 B(  8-C , 14-H ) :   1.0008 


-------
TIMINGS
-------

Total SCF time: 0 days 0 hours 1 min 2 sec 

Total time                  ....      62.947 sec
Sum of individual times     ....      58.672 sec  ( 93.2%)

Fock matrix formation       ....      55.359 sec  ( 87.9%)
  Split-RI-J                ....      10.327 sec  ( 18.7% of F)
  XC integration            ....      27.256 sec  ( 49.2% of F)
    Basis function eval.    ....       8.096 sec  ( 29.7% of XC)
    Density eval.           ....       6.870 sec  ( 25.2% of XC)
    XC-Functional eval.     ....       1.054 sec  (  3.9% of XC)
    XC-Potential eval.      ....       8.668 sec  ( 31.8% of XC)
Diagonalization             ....       0.117 sec  (  0.2%)
Density matrix formation    ....       0.014 sec  (  0.0%)
Population analysis         ....       0.137 sec  (  0.2%)
Initial guess               ....       0.959 sec  (  1.5%)
Orbital Transformation      ....       0.000 sec  (  0.0%)
Orbital Orthonormalization  ....       0.000 sec  (  0.0%)
DIIS solution               ....       0.181 sec  (  0.3%)
SOSCF solution              ....       0.368 sec  (  0.6%)
Grid generation             ....       1.537 sec  (  2.4%)

Maximum memory used throughout the entire SCF-calculation: 117.7 MB

-------------------------   --------------------
FINAL SINGLE POINT ENERGY      -345.991735114835
-------------------------   --------------------

------------------------------------------------------------------------------
                         ORCA SCF GRADIENT CALCULATION
------------------------------------------------------------------------------

Gradient of the Kohn-Sham DFT energy:
Kohn-Sham wavefunction type      ... RKS
Hartree-Fock exchange scaling    ...    0.000
Number of operators              ...    1
Number of atoms                  ...   15
Basis set dimensions             ...  290
Integral neglect threshold       ... 2.5e-11
Integral primitive cutoff        ... 2.5e-12
SHARK Integral package           ... ON

Nuc. rep. gradient       (SHARK) ... done (  0.0 sec)
HCore & Overlap gradient (SHARK) ... done (  0.5 sec)
RI-J gradient            (SHARK) ... done (  2.9 sec)
Exchange-correlation gradient    ... done

------------------
CARTESIAN GRADIENT
------------------

   1   C   :   -0.027085508   -0.031606297    0.015903873
   2   C   :   -0.031265152    0.002826318    0.044241512
   3   H   :    0.004234805    0.006555067   -0.001602220
   4   C   :    0.003436971    0.005351313   -0.001084070
   5   C   :    0.037936331    0.059522231   -0.013452143
   6   H   :    0.005454955   -0.000283128   -0.007529920
   7   C   :    0.012748877    0.015367720   -0.005543641
   8   H   :   -0.002309481   -0.006224322   -0.000999598
   9   C   :    0.048107158    0.026527400   -0.048466256
  10   O   :   -0.036367389   -0.040151747    0.023035986
  11   C   :   -0.010077734   -0.044951321   -0.015163241
  12   H   :    0.002121540    0.001967925   -0.001564789
  13   H   :   -0.000105337    0.001692582    0.004656546
  14   H   :   -0.002891316    0.002998541    0.002503978
  15   H   :   -0.003938720    0.000407718    0.005063983

Difference to translation invariance:
           :    0.0000000000    0.0000000000   -0.0000000000

Difference to rotation invariance:
           :   -0.0009947526    0.0005173443   -0.0009409479

Norm of the cartesian gradient     ...    0.1484665028
RMS gradient                       ...    0.0221320795
MAX gradient                       ...    0.0595222306

-------
TIMINGS
-------

Total SCF gradient time            ...       16.296 sec

One electron gradient       ....       0.469 sec  (  2.9%)
RI-J Coulomb gradient       ....       2.942 sec  ( 18.1%)
XC gradient                 ....      10.957 sec  ( 67.2%)
CPCM gradient               ....       0.775 sec  (  4.8%)
   A-Matrix (El+Nuc)        ....       0.044 sec  (  0.3%)
   Potential                ....       0.731 sec  (  4.5%)

Maximum memory used throughout the entire SCFGRAD-calculation: 111.9 MB
------------------------------------------------------------------------------
                         ORCA GEOMETRY RELAXATION STEP
------------------------------------------------------------------------------

Reading the OPT-File                    .... done
Getting information on internals        .... done
Copying old internal coords+grads       .... done
Making the new internal coordinates     .... (new redundants).... done
Validating the new internal coordinates .... (new redundants).... done
Calculating the B-matrix                .... done
Calculating the G,G- and P matrices     .... done
Transforming gradient to internals      .... done
Projecting the internal gradient        .... done
Number of atoms                         ....  15
Number of internal coordinates          ....  69
Current Energy                          ....  -345.991735115 Eh
Current gradient norm                   ....     0.148466503 Eh/bohr
Maximum allowed component of the step   ....  0.300
Current trust radius                    ....  0.300
Evaluating the initial hessian          ....  (Almloef) done
Projecting the Hessian                  .... done
Forming the augmented Hessian           .... done
Diagonalizing the augmented Hessian     .... done
Last element of RFO vector              ....  0.977963500
Lowest eigenvalues of augmented Hessian:
 -0.023525127  0.014074205  0.014992398  0.015669149  0.015841391
Length of the computed step             ....  0.213480295
The final length of the internal step   ....  0.213480295
Converting the step to cartesian space:
 Initial RMS(Int)=    0.0257000075
Transforming coordinates:
 Iter   0:  RMS(Cart)=    0.0384209799 RMS(Int)=    1.0691004997
 Iter   1:  RMS(Cart)=    0.0005136963 RMS(Int)=    0.0003280787
 Iter   2:  RMS(Cart)=    0.0000145439 RMS(Int)=    0.0000104905
 Iter   3:  RMS(Cart)=    0.0000005990 RMS(Int)=    0.0000003487
 Iter   4:  RMS(Cart)=    0.0000000210 RMS(Int)=    0.0000000119
done
Storing new coordinates                 .... done

                                .--------------------.
          ----------------------|Geometry convergence|-------------------------
          Item                value                   Tolerance       Converged
          ---------------------------------------------------------------------
          RMS gradient        0.0137732949            0.0001000000      NO
          MAX gradient        0.0588688990            0.0003000000      NO
          RMS step            0.0257000075            0.0020000000      NO
          MAX step            0.0892660486            0.0040000000      NO
          ........................................................
          Max(Bonds)      0.0472      Max(Angles)    3.98
          Max(Dihed)        0.44      Max(Improp)    0.00
          ---------------------------------------------------------------------

The optimization has not yet converged - more geometry cycles are needed


    ---------------------------------------------------------------------------
                         Redundant Internal Coordinates
                            (Angstroem and degrees)

        Definition                    Value    dE/dq     Step     New-Value
    ----------------------------------------------------------------------------
     1. B(C   1,C   0)                1.4584  0.039559 -0.0414    1.4170   
     2. B(H   2,C   0)                1.0805 -0.007658  0.0102    1.0907   
     3. B(C   4,C   1)                1.4581  0.045466 -0.0472    1.4108   
     4. B(H   5,C   1)                1.0799 -0.009080  0.0121    1.0920   
     5. B(C   6,C   4)                1.4459  0.003109 -0.0029    1.4430   
     6. B(H   7,C   4)                1.0816 -0.006278  0.0084    1.0901   
     7. B(C   8,C   6)                1.4470  0.004321 -0.0040    1.4430   
     8. B(O   9,C   6)                1.2483 -0.058869  0.0323    1.2806   
     9. B(C  10,C   8)                1.4640  0.042882 -0.0454    1.4187   
    10. B(C  10,C   3)                1.4875 -0.012956  0.0149    1.5024   
    11. B(C  10,C   0)                1.4623  0.041116 -0.0435    1.4188   
    12. B(H  11,C   3)                1.0949 -0.003309  0.0046    1.0996   
    13. B(H  12,C   3)                1.0951 -0.004132  0.0058    1.1009   
    14. B(H  13,C   3)                1.0951 -0.004042  0.0057    1.1008   
    15. B(H  14,C   8)                1.0823 -0.006331  0.0085    1.0908   
    16. A(C   1,C   0,H   2)          119.32 -0.001512    0.32    119.64   
    17. A(H   2,C   0,C  10)          120.54  0.002892   -0.37    120.16   
    18. A(C   1,C   0,C  10)          120.14 -0.001380    0.05    120.20   
    19. A(C   0,C   1,H   5)          120.51  0.004876   -0.66    119.85   
    20. A(C   0,C   1,C   4)          120.12 -0.005729    0.70    120.82   
    21. A(C   4,C   1,H   5)          119.36  0.000853   -0.03    119.33   
    22. A(H  11,C   3,H  13)          107.66  0.000679   -0.06    107.60   
    23. A(C  10,C   3,H  13)          110.57 -0.002513    0.40    110.97   
    24. A(H  12,C   3,H  13)          108.33  0.003302   -0.68    107.65   
    25. A(C  10,C   3,H  12)          110.58 -0.002557    0.41    110.98   
    26. A(C  10,C   3,H  11)          111.91  0.000655   -0.05    111.86   
    27. A(H  11,C   3,H  12)          107.66  0.000701   -0.06    107.60   
    28. A(C   6,C   4,H   7)          120.43  0.007122   -1.02    119.41   
    29. A(C   1,C   4,H   7)          120.52  0.002199   -0.26    120.26   
    30. A(C   1,C   4,C   6)          119.05 -0.009321    1.28    120.33   
    31. A(C   8,C   6,O   9)          119.07 -0.016103    2.07    121.15   
    32. A(C   4,C   6,O   9)          119.03 -0.014761    1.91    120.94   
    33. A(C   4,C   6,C   8)          121.90  0.030862   -3.98    117.92   
    34. A(C   6,C   8,C  10)          119.14 -0.014108    1.99    121.14   
    35. A(C  10,C   8,H  14)          120.90  0.005966   -0.83    120.07   
    36. A(C   6,C   8,H  14)          119.96  0.008141   -1.16    118.80   
    37. A(C   0,C  10,C   8)          119.65 -0.000325   -0.04    119.60   
    38. A(C   0,C  10,C   3)          121.06  0.004162   -0.53    120.53   
    39. A(C   3,C  10,C   8)          119.29 -0.003836    0.58    119.87   
    40. D(C   4,C   1,C   0,C  10)     -0.01  0.000015    0.00     -0.01   
    41. D(H   5,C   1,C   0,C  10)    179.90 -0.000003    0.05    179.95   
    42. D(C   4,C   1,C   0,H   2)    179.99  0.000006   -0.02    179.97   
    43. D(H   5,C   1,C   0,H   2)     -0.10 -0.000012    0.02     -0.08   
    44. D(H   7,C   4,C   1,C   0)    179.81 -0.000060    0.13    179.94   
    45. D(C   6,C   4,C   1,C   0)     -0.06 -0.000003    0.06     -0.00   
    46. D(C   6,C   4,C   1,H   5)   -179.97  0.000012    0.02   -179.96   
    47. D(H   7,C   4,C   1,H   5)     -0.10 -0.000045    0.08     -0.02   
    48. D(O   9,C   6,C   4,H   7)     -0.14 -0.000192    0.27      0.13   
    49. D(O   9,C   6,C   4,C   1)    179.73 -0.000255    0.34    180.07   
    50. D(C   8,C   6,C   4,H   7)   -179.63  0.000236   -0.28   -179.91   
    51. D(C   8,C   6,C   4,C   1)      0.24  0.000173   -0.21      0.04   
    52. D(C  10,C   8,C   6,O   9)   -179.83  0.000213   -0.28   -180.11   
    53. D(C  10,C   8,C   6,C   4)     -0.35 -0.000208    0.27     -0.08   
    54. D(H  14,C   8,C   6,O   9)     -0.32  0.000069   -0.11     -0.43   
    55. D(H  14,C   8,C   6,C   4)    179.16 -0.000352    0.44    179.60   
    56. D(C   3,C  10,C   8,H  14)      0.73  0.000205   -0.32      0.41   
    57. D(C   3,C  10,C   8,C   6)   -179.77  0.000069   -0.15   -179.92   
    58. D(C   0,C  10,C   8,H  14)   -179.23  0.000221   -0.36   -179.59   
    59. D(C   8,C  10,C   3,H  13)     60.06  0.000406   -0.15     59.90   
    60. D(C   8,C  10,C   3,H  12)    -59.92 -0.000427    0.18    -59.75   
    61. D(C   8,C  10,C   3,H  11)   -179.94 -0.000009    0.01   -179.93   
    62. D(C   0,C  10,C   3,H  13)   -119.98  0.000389   -0.12   -120.10   
    63. D(C   0,C  10,C   3,H  12)    120.04 -0.000445    0.21    120.25   
    64. D(C   0,C  10,C   3,H  11)      0.03 -0.000027    0.05      0.07   
    65. D(C   0,C  10,C   8,C   6)      0.27  0.000085   -0.18      0.09   
    66. D(C   8,C  10,C   0,H   2)    179.91 -0.000058    0.09    179.99   
    67. D(C   8,C  10,C   0,C   1)     -0.09 -0.000067    0.06     -0.03   
    68. D(C   3,C  10,C   0,H   2)     -0.05 -0.000039    0.05     -0.00   
    69. D(C   3,C  10,C   0,C   1)    179.94 -0.000048    0.02    179.97   
    ----------------------------------------------------------------------------

         *************************************************************
         *                GEOMETRY OPTIMIZATION CYCLE   2            *
         *************************************************************
---------------------------------
CARTESIAN COORDINATES (ANGSTROEM)
---------------------------------
  C     -5.240353   -6.384485    2.981611
  C     -5.085957   -5.115187    3.592296
  H     -5.915077   -7.117896    3.424848
  C     -4.677994   -8.043762    1.146910
  C     -4.219347   -4.148260    3.040453
  H     -5.643100   -4.877820    4.500943
  C     -3.473437   -4.438706    1.839761
  H     -4.108153   -3.174312    3.517208
  C     -3.646493   -5.736936    1.234056
  O     -2.682676   -3.570076    1.329796
  C     -4.520762   -6.700065    1.800361
  H     -5.385727   -8.684161    1.692821
  H     -5.050199   -7.939723    0.116113
  H     -3.714975   -8.575011    1.101920
[...]
 243   0.0000       4.072251       110.8116 
 244   0.0000       4.072791       110.8263 
 245   0.0000       4.108651       111.8021 
 246   0.0000       4.143507       112.7506 
 247   0.0000       4.162890       113.2780 
 248   0.0000       4.172150       113.5300 
 249   0.0000       4.225552       114.9831 
 250   0.0000       4.231400       115.1422 
 251   0.0000       4.300959       117.0350 
 252   0.0000       4.330740       117.8454 
 253   0.0000       4.375032       119.0507 
 254   0.0000       4.453776       121.1934 
 255   0.0000       4.469081       121.6099 
 256   0.0000       4.521971       123.0491 
 257   0.0000       4.560224       124.0900 
 258   0.0000       4.628052       125.9357 
 259   0.0000       4.645486       126.4101 
 260   0.0000       4.696767       127.8055 
 261   0.0000       4.788280       130.2957 
 262   0.0000       4.842886       131.7816 
 263   0.0000       4.930801       134.1739 
 264   0.0000       4.987014       135.7035 
 265   0.0000       5.045096       137.2840 
 266   0.0000       5.144749       139.9957 
 267   0.0000       5.157449       140.3413 
 268   0.0000       5.184615       141.0805 
 269   0.0000       5.262816       143.2085 
 270   0.0000       5.345325       145.4537 
 271   0.0000       5.446219       148.1992 
 272   0.0000       5.518004       150.1525 
 273   0.0000       5.640641       153.4896 
 274   0.0000       5.909140       160.7959 
 275   0.0000       6.219056       169.2291 
 276   0.0000       6.298651       171.3950 
 277   0.0000       6.443722       175.3426 
 278   0.0000       6.499209       176.8525 
 279   0.0000       6.720884       182.8846 
 280   0.0000       6.949473       189.1048 
 281   0.0000       6.953383       189.2112 
 282   0.0000      21.805508       593.3580 
 283   0.0000      22.132860       602.2657 
 284   0.0000      22.316292       607.2572 
 285   0.0000      22.431015       610.3789 
 286   0.0000      22.444214       610.7381 
 287   0.0000      22.688161       617.3762 
 288   0.0000      23.070486       627.7798 
 289   0.0000      43.581508      1185.9131 

                    ********************************
                    * MULLIKEN POPULATION ANALYSIS *
                    ********************************

-----------------------
MULLIKEN ATOMIC CHARGES
-----------------------
   0 C :   -0.301108
   1 C :   -0.147799
   2 H :    0.106862
   3 C :   -0.397432
   4 C :   -0.299581
   5 H :    0.111481
   6 C :    0.240933
   7 H :    0.071586
   8 C :   -0.372136
   9 O :   -0.621532
  10 C :    0.169060
  11 H :    0.129591
  12 H :    0.126063
  13 H :    0.125946
  14 H :    0.058064
Sum of atomic charges:   -1.0000000

--------------------------------
MULLIKEN REDUCED ORBITAL CHARGES
--------------------------------
  0 C s       :     3.237508  s :     3.237508
      pz      :     0.972431  p :     2.970962
      px      :     1.032553
      py      :     0.965978
      dz2     :     0.019767  d :     0.085923
      dxz     :     0.010928
      dyz     :     0.024381
      dx2y2   :     0.009943
      dxy     :     0.020903
      f0      :     0.001041  f :     0.006715
      f+1     :     0.000529
      f-1     :     0.001276
      f+2     :     0.001009
      f-2     :     0.001275
      f+3     :     0.000973
      f-3     :     0.000612
  1 C s       :     3.183816  s :     3.183816
      pz      :     0.963830  p :     2.863807
      px      :     0.969946
      py      :     0.930032
      dz2     :     0.016554  d :     0.093389
      dxz     :     0.011627
      dyz     :     0.018645
      dx2y2   :     0.024243
      dxy     :     0.022320
      f0      :     0.000214  f :     0.006786
      f+1     :     0.000866
      f-1     :     0.001538
      f+2     :     0.000967
      f-2     :     0.001004
      f+3     :     0.001240
      f-3     :     0.000957
  2 H s       :     0.871109  s :     0.871109
      pz      :     0.005810  p :     0.022029
      px      :     0.008266
      py      :     0.007953
  3 C s       :     3.265819  s :     3.265819
      pz      :     1.055340  p :     3.078126
      px      :     1.068970
      py      :     0.953816
      dz2     :     0.012705  d :     0.050339
      dxz     :     0.004911
      dyz     :     0.008945
      dx2y2   :     0.005149
      dxy     :     0.018630
      f0      :     0.000384  f :     0.003148
      f+1     :     0.000250
      f-1     :     0.000667
      f+2     :     0.000263
      f-2     :     0.000511
      f+3     :     0.000378
      f-3     :     0.000695
  4 C s       :     3.281709  s :     3.281709
      pz      :     0.982441  p :     2.938934
      px      :     1.015723
      py      :     0.940770
      dz2     :     0.016508  d :     0.072430
      dxz     :     0.012185
      dyz     :     0.017080
      dx2y2   :     0.018004
      dxy     :     0.008652
      f0      :     0.000917  f :     0.006508
      f+1     :     0.000963
      f-1     :     0.000807
      f+2     :     0.001132
      f-2     :     0.001099
      f+3     :     0.000612
      f-3     :     0.000979
  5 H s       :     0.867122  s :     0.867122
      pz      :     0.010205  p :     0.021397
      px      :     0.006753
      py      :     0.004439
  6 C s       :     2.937112  s :     2.937112
      pz      :     0.895916  p :     2.665406
      px      :     0.878503
      py      :     0.890987
      dz2     :     0.026948  d :     0.140966
      dxz     :     0.016267
      dyz     :     0.034728
      dx2y2   :     0.035434
      dxy     :     0.027590
      f0      :     0.001421  f :     0.015582
      f+1     :     0.001833
      f-1     :     0.002932
      f+2     :     0.001967
      f-2     :     0.002482
      f+3     :     0.002715
      f-3     :     0.002234
  7 H s       :     0.906478  s :     0.906478
      pz      :     0.006065  p :     0.021936
      px      :     0.004977
      py      :     0.010894
  8 C s       :     3.342055  s :     3.342055
      pz      :     0.971737  p :     2.953348
      px      :     1.017494
      py      :     0.964118
      dz2     :     0.012154  d :     0.070187
      dxz     :     0.010710
      dyz     :     0.016630
      dx2y2   :     0.016610
      dxy     :     0.014082
      f0      :     0.000315  f :     0.006545
      f+1     :     0.000824
      f-1     :     0.001220
      f+2     :     0.000946
      f-2     :     0.000947
      f+3     :     0.001168
      f-3     :     0.001125
  9 O s       :     3.762269  s :     3.762269
      pz      :     1.698771  p :     4.832210
      px      :     1.534799
      py      :     1.598640
      dz2     :     0.003616  d :     0.025594
      dxz     :     0.003920
      dyz     :     0.005117
      dx2y2   :     0.006038
      dxy     :     0.006903
      f0      :     0.000131  f :     0.001459
      f+1     :     0.000143
      f-1     :     0.000185
      f+2     :     0.000153
      f-2     :     0.000307
      f+3     :     0.000254
      f-3     :     0.000286
 10 C s       :     3.165058  s :     3.165058
      pz      :     0.849229  p :     2.515086
      px      :     0.870354
      py      :     0.795503
      dz2     :     0.031916  d :     0.141497
      dxz     :     0.020366
      dyz     :     0.033705
      dx2y2   :     0.029054
      dxy     :     0.026457
      f0      :     0.001201  f :     0.009298
      f+1     :     0.000957
      f-1     :     0.001796
      f+2     :     0.001491
      f-2     :     0.001400
      f+3     :     0.001238
      f-3     :     0.001217
 11 H s       :     0.849377  s :     0.849377
      pz      :     0.006140  p :     0.021032
      px      :     0.007576
      py      :     0.007316
 12 H s       :     0.853089  s :     0.853089
      pz      :     0.010875  p :     0.020847
      px      :     0.005412
      py      :     0.004560
 13 H s       :     0.853199  s :     0.853199
      pz      :     0.004683  p :     0.020855
      px      :     0.009699
      py      :     0.006473
 14 H s       :     0.919986  s :     0.919986
      pz      :     0.010396  p :     0.021950
      px      :     0.007150
      py      :     0.004404


                     *******************************
                     * LOEWDIN POPULATION ANALYSIS *
                     *******************************

----------------------
LOEWDIN ATOMIC CHARGES
----------------------
   0 C :   -0.215920
   1 C :   -0.203065
   2 H :    0.137785
   3 C :   -0.280470
   4 C :   -0.204713
   5 H :    0.140454
   6 C :   -0.438408
   7 H :    0.130134
   8 C :   -0.174370
   9 O :   -0.197532
  10 C :   -0.214454
  11 H :    0.127833
  12 H :    0.129748
  13 H :    0.129759
  14 H :    0.133220

-------------------------------
LOEWDIN REDUCED ORBITAL CHARGES
-------------------------------
  0 C s       :     2.767987  s :     2.767987
      pz      :     1.017828  p :     3.028443
      px      :     0.994166
      py      :     1.016449
      dz2     :     0.080752  d :     0.378772
      dxz     :     0.055677
      dyz     :     0.108020
      dx2y2   :     0.050420
      dxy     :     0.083903
      f0      :     0.005602  f :     0.040718
      f+1     :     0.004840
      f-1     :     0.008215
      f+2     :     0.006509
      f-2     :     0.005549
      f+3     :     0.005983
      f-3     :     0.004020
  1 C s       :     2.776664  s :     2.776664
      pz      :     0.964143  p :     2.976450
      px      :     0.961347
      py      :     1.050960
      dz2     :     0.065488  d :     0.408048
      dxz     :     0.056730
      dyz     :     0.090994
      dx2y2   :     0.099718
      dxy     :     0.095118
      f0      :     0.002287  f :     0.041903
      f+1     :     0.004083
      f-1     :     0.009941
      f+2     :     0.006083
      f-2     :     0.006082
      f+3     :     0.008436
      f-3     :     0.004991
  2 H s       :     0.801850  s :     0.801850
      pz      :     0.016131  p :     0.060365
      px      :     0.022585
      py      :     0.021649
  3 C s       :     2.830257  s :     2.830257
      pz      :     1.065171  p :     3.176821
      px      :     1.073011
      py      :     1.038639
      dz2     :     0.061200  d :     0.249471
      dxz     :     0.027369
      dyz     :     0.047485
      dx2y2   :     0.033794
      dxy     :     0.079624
      f0      :     0.002584  f :     0.023920
      f+1     :     0.002252
      f-1     :     0.004444
      f+2     :     0.003324
      f-2     :     0.003896
      f+3     :     0.002807
      f-3     :     0.004613
  4 C s       :     2.787197  s :     2.787197
      pz      :     1.009457  p :     3.020572
      px      :     1.014988
      py      :     0.996127
      dz2     :     0.072853  d :     0.358537
      dxz     :     0.069027
      dyz     :     0.087175
      dx2y2   :     0.080120
      dxy     :     0.049363
      f0      :     0.005143  f :     0.038407
      f+1     :     0.005948
      f-1     :     0.006057
      f+2     :     0.005300
      f-2     :     0.006097
      f+3     :     0.004797
      f-3     :     0.005065
  5 H s       :     0.801647  s :     0.801647
      pz      :     0.027123  p :     0.057899
      px      :     0.018217
      py      :     0.012559
  6 C s       :     2.743016  s :     2.743016
      pz      :     0.965115  p :     2.821991
      px      :     0.883780
      py      :     0.973096
      dz2     :     0.149104  d :     0.773574
      dxz     :     0.124234
      dyz     :     0.165988
      dx2y2   :     0.186455
      dxy     :     0.147792
      f0      :     0.009189  f :     0.099828
      f+1     :     0.010296
      f-1     :     0.020893
      f+2     :     0.012770
      f-2     :     0.015506
      f+3     :     0.017700
      f-3     :     0.013474
  7 H s       :     0.810158  s :     0.810158
      pz      :     0.016778  p :     0.059708
      px      :     0.013846
      py      :     0.029083
  8 C s       :     2.779813  s :     2.779813
      pz      :     0.981317  p :     3.003644
      px      :     0.999115
      py      :     1.023212
      dz2     :     0.060812  d :     0.353174
      dxz     :     0.055187
      dyz     :     0.077980
      dx2y2   :     0.082158
      dxy     :     0.077037
      f0      :     0.002305  f :     0.037740
      f+1     :     0.003949
      f-1     :     0.007811
      f+2     :     0.005664
      f-2     :     0.005388
      f+3     :     0.007338
      f-3     :     0.005285
  9 O s       :     3.442831  s :     3.442831
      pz      :     1.611326  p :     4.691203
      px      :     1.510033
      py      :     1.569845
      dz2     :     0.008583  d :     0.058832
      dxz     :     0.010169
      dyz     :     0.010828
      dx2y2   :     0.013273
      dxy     :     0.015978
      f0      :     0.000426  f :     0.004666
      f+1     :     0.000467
      f-1     :     0.000568
      f+2     :     0.000426
      f-2     :     0.001061
      f+3     :     0.000902
      f-3     :     0.000816
 10 C s       :     2.724857  s :     2.724857
      pz      :     0.978501  p :     2.890769
      px      :     0.938520
      py      :     0.973749
      dz2     :     0.118166  d :     0.542373
      dxz     :     0.082521
      dyz     :     0.130962
      dx2y2   :     0.114841
      dxy     :     0.095883
      f0      :     0.006969  f :     0.056456
      f+1     :     0.006377
      f-1     :     0.011927
      f+2     :     0.007525
      f-2     :     0.008151
      f+3     :     0.008652
      f-3     :     0.006855
 11 H s       :     0.811844  s :     0.811844
      pz      :     0.018712  p :     0.060323
      px      :     0.022497
      py      :     0.019114
 12 H s       :     0.809666  s :     0.809666
      pz      :     0.031911  p :     0.060586
      px      :     0.015799
      py      :     0.012876
 13 H s       :     0.809648  s :     0.809648
      pz      :     0.013441  p :     0.060593
      px      :     0.029850
      py      :     0.017303
 14 H s       :     0.807266  s :     0.807266
      pz      :     0.027726  p :     0.059514
      px      :     0.019351
      py      :     0.012437


                      *****************************
                      * MAYER POPULATION ANALYSIS *
                      *****************************

  NA   - Mulliken gross atomic population
  ZA   - Total nuclear charge
  QA   - Mulliken gross atomic charge
  VA   - Mayer's total valence
  BVA  - Mayer's bonded valence
  FA   - Mayer's free valence

  ATOM       NA         ZA         QA         VA         BVA        FA
  0 C      6.3011     6.0000    -0.3011     3.8784     3.8784     0.0000
  1 C      6.1478     6.0000    -0.1478     3.8088     3.8088     0.0000
  2 H      0.8931     1.0000     0.1069     0.9726     0.9726     0.0000
  3 C      6.3974     6.0000    -0.3974     3.8434     3.8434    -0.0000
  4 C      6.2996     6.0000    -0.2996     3.6941     3.6941     0.0000
  5 H      0.8885     1.0000     0.1115     0.9636     0.9636    -0.0000
  6 C      5.7591     6.0000     0.2409     4.1429     4.1429    -0.0000
  7 H      0.9284     1.0000     0.0716     1.0010     1.0010     0.0000
  8 C      6.3721     6.0000    -0.3721     3.6739     3.6739    -0.0000
  9 O      8.6215     8.0000    -0.6215     1.8940     1.8940     0.0000
 10 C      5.8309     6.0000     0.1691     3.5629     3.5629    -0.0000
 11 H      0.8704     1.0000     0.1296     0.9744     0.9744    -0.0000
 12 H      0.8739     1.0000     0.1261     0.9659     0.9659     0.0000
 13 H      0.8741     1.0000     0.1259     0.9657     0.9657     0.0000
 14 H      0.9419     1.0000     0.0581     1.0089     1.0089    -0.0000

  Mayer bond orders larger than 0.100000
B(  0-C ,  1-C ) :   1.3565 B(  0-C ,  2-H ) :   0.9740 B(  0-C , 10-C ) :   1.3256 
B(  1-C ,  4-C ) :   1.3860 B(  1-C ,  5-H ) :   0.9630 B(  3-C , 10-C ) :   0.9189 
B(  3-C , 11-H ) :   0.9826 B(  3-C , 12-H ) :   0.9574 B(  3-C , 13-H ) :   0.9568 
B(  4-C ,  6-C ) :   1.1763 B(  4-C ,  7-H ) :   0.9820 B(  6-C ,  8-C ) :   1.1927 
B(  6-C ,  9-O ) :   1.7110 B(  8-C , 10-C ) :   1.3144 B(  8-C , 14-H ) :   1.0074 


-------
TIMINGS
-------

Total SCF time: 0 days 0 hours 0 min 32 sec 

Total time                  ....      32.008 sec
Sum of individual times     ....      28.884 sec  ( 90.2%)

Fock matrix formation       ....      27.422 sec  ( 85.7%)
  Split-RI-J                ....       5.143 sec  ( 18.8% of F)
  XC integration            ....      13.008 sec  ( 47.4% of F)
    Basis function eval.    ....       4.146 sec  ( 31.9% of XC)
    Density eval.           ....       3.436 sec  ( 26.4% of XC)
    XC-Functional eval.     ....       0.539 sec  (  4.1% of XC)
    XC-Potential eval.      ....       3.396 sec  ( 26.1% of XC)
Diagonalization             ....       0.017 sec  (  0.1%)
Density matrix formation    ....       0.008 sec  (  0.0%)
Population analysis         ....       0.070 sec  (  0.2%)
Initial guess               ....       0.020 sec  (  0.1%)
Orbital Transformation      ....       0.000 sec  (  0.0%)
Orbital Orthonormalization  ....       0.016 sec  (  0.0%)
DIIS solution               ....       0.004 sec  (  0.0%)
SOSCF solution              ....       0.271 sec  (  0.8%)
Grid generation             ....       1.072 sec  (  3.3%)

Maximum memory used throughout the entire SCF-calculation: 117.8 MB

-------------------------   --------------------
FINAL SINGLE POINT ENERGY      -346.009553189538
-------------------------   --------------------

                                *** OPTIMIZATION RUN DONE ***

                            ***************************************
                            *     ORCA property calculations      *
                            ***************************************

                                    ---------------------
                                    Active property flags
                                    ---------------------
   (+) Dipole Moment


------------------------------------------------------------------------------
                       ORCA ELECTRIC PROPERTIES CALCULATION
------------------------------------------------------------------------------

Dipole Moment Calculation                       ... on
Quadrupole Moment Calculation                   ... off
Polarizability Calculation                      ... off
GBWName                                         ... inp.gbw
Electron density                                ... inp.scfp
The origin for moment calculation is the CENTER OF MASS  = (-7.879263, -10.419798  3.947080)

-------------
DIPOLE MOMENT
-------------
                                X             Y             Z
Electronic contribution:      1.75182       4.67003       0.62974
Nuclear contribution   :     -3.47648      -7.25736       0.04377
                        -----------------------------------------
Total Dipole Moment    :     -1.72466      -2.58734       0.67352
                        -----------------------------------------
Magnitude (a.u.)       :      3.18157
Magnitude (Debye)      :      8.08691



--------------------
Rotational spectrum 
--------------------
 
Rotational constants in cm-1:     0.122997     0.060569     0.040894 
Rotational constants in MHz :  3687.346435  1815.826948  1225.974082 

 Dipole components along the rotational axes: 
x,y,z [a.u.] :    -3.028512     0.974934     0.000899 
x,y,z [Debye]:    -7.697865     2.478086     0.002286 

 

Timings for individual modules:

Sum of individual times         ...      434.582 sec (=   7.243 min)
GTO integral calculation        ...       10.101 sec (=   0.168 min)   2.3 %
SCF iterations                  ...      319.762 sec (=   5.329 min)  73.6 %
SCF Gradient evaluation         ...      103.172 sec (=   1.720 min)  23.7 %
Geometry relaxation             ...        1.548 sec (=   0.026 min)   0.4 %
                             ****ORCA TERMINATED NORMALLY****
TOTAL RUN TIME: 0 days 0 hours 7 minutes 18 seconds 707 msec
