
                                 *****************
                                 * O   R   C   A *
                                 *****************

                                            #,                                       
                                            ###                                      
                                            ####                                     
                                            #####                                    
                                            ######                                   
                                           ########,                                 
                                     ,,################,,,,,                         
                               ,,#################################,,                 
                          ,,##########################################,,             
                       ,#########################################, ''#####,          
                    ,#############################################,,   '####,        
                  ,##################################################,,,,####,       
                ,###########''''           ''''###############################       
              ,#####''   ,,,,##########,,,,          '''####'''          '####       
            ,##' ,,,,###########################,,,                        '##       
           ' ,,###''''                  '''############,,,                           
         ,,##''                                '''############,,,,        ,,,,,,###''
      ,#''                                            '''#######################'''  
     '                                                          ''''####''''         
             ,#######,   #######,   ,#######,      ##                                
            ,#'     '#,  ##    ##  ,#'     '#,    #''#        ######   ,####,        
            ##       ##  ##   ,#'  ##            #'  '#       #        #'  '#        
            ##       ##  #######   ##           ,######,      #####,   #    #        
            '#,     ,#'  ##    ##  '#,     ,#' ,#      #,         ##   #,  ,#        
             '#######'   ##     ##  '#######'  #'      '#     #####' # '####'        



                  #######################################################
                  #                        -***-                        #
                  #          Department of theory and spectroscopy      #
                  #    Directorship and core code : Frank Neese         #
                  #        Max Planck Institute fuer Kohlenforschung    #
                  #                Kaiser Wilhelm Platz 1               #
                  #                 D-45470 Muelheim/Ruhr               #
                  #                      Germany                        #
                  #                                                     #
                  #                  All rights reserved                #
                  #                        -***-                        #
                  #######################################################


                         Program Version 5.0.4 -  RELEASE  -


 With contributions from (in alphabetic order):
   Daniel Aravena         : Magnetic Suceptibility
   Michael Atanasov       : Ab Initio Ligand Field Theory (pilot matlab implementation)
   Alexander A. Auer      : GIAO ZORA, VPT2 properties, NMR spectrum
   Ute Becker             : Parallelization
   Giovanni Bistoni       : ED, misc. LED, open-shell LED, HFLD
   Martin Brehm           : Molecular dynamics
   Dmytro Bykov           : SCF Hessian
   Vijay G. Chilkuri      : MRCI spin determinant printing, contributions to CSF-ICE
   Dipayan Datta          : RHF DLPNO-CCSD density
   Achintya Kumar Dutta   : EOM-CC, STEOM-CC
   Dmitry Ganyushin       : Spin-Orbit,Spin-Spin,Magnetic field MRCI
   Miquel Garcia          : C-PCM and meta-GGA Hessian, CC/C-PCM, Gaussian charge scheme
   Yang Guo               : DLPNO-NEVPT2, F12-NEVPT2, CIM, IAO-localization
   Andreas Hansen         : Spin unrestricted coupled pair/coupled cluster methods
   Benjamin Helmich-Paris : MC-RPA, TRAH-SCF, COSX integrals
   Lee Huntington         : MR-EOM, pCC
   Robert Izsak           : Overlap fitted RIJCOSX, COSX-SCS-MP3, EOM
   Marcus Kettner         : VPT2
   Christian Kollmar      : KDIIS, OOCD, Brueckner-CCSD(T), CCSD density, CASPT2, CASPT2-K
   Simone Kossmann        : Meta GGA functionals, TD-DFT gradient, OOMP2, MP2 Hessian
   Martin Krupicka        : Initial AUTO-CI
   Lucas Lang             : DCDCAS
   Marvin Lechner         : AUTO-CI (C++ implementation), FIC-MRCC
   Dagmar Lenk            : GEPOL surface, SMD
   Dimitrios Liakos       : Extrapolation schemes; Compound Job, initial MDCI parallelization
   Dimitrios Manganas     : Further ROCIS development; embedding schemes
   Dimitrios Pantazis     : SARC Basis sets
   Anastasios Papadopoulos: AUTO-CI, single reference methods and gradients
   Taras Petrenko         : DFT Hessian,TD-DFT gradient, ASA, ECA, R-Raman, ABS, FL, XAS/XES, NRVS
   Peter Pinski           : DLPNO-MP2, DLPNO-MP2 Gradient
   Christoph Reimann      : Effective Core Potentials
   Marius Retegan         : Local ZFS, SOC
   Christoph Riplinger    : Optimizer, TS searches, QM/MM, DLPNO-CCSD(T), (RO)-DLPNO pert. Triples
   Tobias Risthaus        : Range-separated hybrids, TD-DFT gradient, RPA, STAB
   Michael Roemelt        : Original ROCIS implementation
   Masaaki Saitow         : Open-shell DLPNO-CCSD energy and density
   Barbara Sandhoefer     : DKH picture change effects
   Avijit Sen             : IP-ROCIS
   Kantharuban Sivalingam : CASSCF convergence, NEVPT2, FIC-MRCI
   Bernardo de Souza      : ESD, SOC TD-DFT
   Georgi Stoychev        : AutoAux, RI-MP2 NMR, DLPNO-MP2 response
   Willem Van den Heuvel  : Paramagnetic NMR
   Boris Wezisla          : Elementary symmetry handling
   Frank Wennmohs         : Technical directorship


 We gratefully acknowledge several colleagues who have allowed us to
 interface, adapt or use parts of their codes:
   Stefan Grimme, W. Hujo, H. Kruse, P. Pracht,  : VdW corrections, initial TS optimization,
                  C. Bannwarth, S. Ehlert          DFT functionals, gCP, sTDA/sTD-DF
   Ed Valeev, F. Pavosevic, A. Kumar             : LibInt (2-el integral package), F12 methods
   Garnet Chan, S. Sharma, J. Yang, R. Olivares  : DMRG
   Ulf Ekstrom                                   : XCFun DFT Library
   Mihaly Kallay                                 : mrcc  (arbitrary order and MRCC methods)
   Jiri Pittner, Ondrej Demel                    : Mk-CCSD
   Frank Weinhold                                : gennbo (NPA and NBO analysis)
   Christopher J. Cramer and Donald G. Truhlar   : smd solvation model
   Lars Goerigk                                  : TD-DFT with DH, B97 family of functionals
   V. Asgeirsson, H. Jonsson                     : NEB implementation
   FAccTs GmbH                                   : IRC, NEB, NEB-TS, DLPNO-Multilevel, CI-OPT
                                                   MM, QMMM, 2- and 3-layer-ONIOM, Crystal-QMMM,
                                                   LR-CPCM, SF, NACMEs, symmetry and pop. for TD-DFT,
                                                   nearIR, NL-DFT gradient (VV10), updates on ESD,
                                                   ML-optimized integration grids
   S Lehtola, MJT Oliveira, MAL Marques          : LibXC Library
   Liviu Ungur et al                             : ANISO software


 Your calculation uses the libint2 library for the computation of 2-el integrals
 For citations please refer to: http://libint.valeyev.net

 Your ORCA version has been built with support for libXC version: 5.1.0
 For citations please refer to: https://tddft.org/programs/libxc/

 This ORCA versions uses:
   CBLAS   interface :  Fast vector & matrix operations
   LAPACKE interface :  Fast linear algebra routines
   SCALAPACK package :  Parallel linear algebra routines
   Shared memory     :  Shared parallel matrices
   BLAS/LAPACK       :  OpenBLAS 0.3.15  USE64BITINT DYNAMIC_ARCH NO_AFFINITY Haswell SINGLE_THREADED
        Core in use  :  Haswell
   Copyright (c) 2011-2014, The OpenBLAS Project


Your calculation utilizes the atom-pairwise dispersion correction
with the Becke-Johnson damping scheme (D3BJ)
Cite in your paper:
S.Grimme, S.Ehrlich, L.Goerigk, J Comput Chem, (2011), 32, 1456–1465 
S.Grimme, J.Antony, S.Ehrlich and H.Krieg, J.Chem.Phys., 132, (2010), 154104 
   

================================================================================

----- Orbital basis set information -----
Your calculation utilizes the basis: def2-TZVP
   F. Weigend and R. Ahlrichs, Phys. Chem. Chem. Phys. 7, 3297 (2005).

----- AuxJ basis set information -----
Your calculation utilizes the auxiliary basis: def2/J
   F. Weigend, Phys. Chem. Chem. Phys. 8, 1057 (2006).

================================================================================
                                        WARNINGS
                       Please study these warnings very carefully!
================================================================================


WARNING: Geometry Optimization
  ===> : Switching off AutoStart
         For restart on a previous wavefunction, please use MOREAD

INFO   : the flag for use of the SHARK integral package has been found!

================================================================================
                                       INPUT FILE
================================================================================
NAME = inp.inp
|  1> ! OPT PBE D3BJ def2-TZVP CPCM(water)
|  2> 
|  3> * xyz -1 1 
|  4> H     -3.585041    3.403771   -1.062732
|  5> C     -0.281705    3.423775   -0.200991
|  6> C     -2.645933    3.035886   -0.665709
|  7> H     -1.258905    0.313563    0.807490
|  8> H      0.728345    1.778444    0.734638
|  9> C     -2.561875    1.756665   -0.122962
| 10> C     -1.514606    3.858346   -0.702513
| 11> C     -1.345021    1.306157    0.380843
| 12> H     -3.435959    1.117090   -0.092862
| 13> C     -0.219549    2.135708    0.339614
| 14> H     -1.595034    4.854506   -1.129106
| 15> N      0.819815    4.194669   -0.224690
| 16> H      0.569580    5.090954   -0.655462
| 17> *
| 18> 
| 19>                          ****END OF INPUT****
================================================================================

                       *****************************
                       * Geometry Optimization Run *
                       *****************************

Geometry optimization settings:
Update method            Update   .... BFGS
Choice of coordinates    CoordSys .... Z-matrix Internals
Initial Hessian          InHess   .... Almoef's Model

Convergence Tolerances:
Energy Change            TolE     ....  5.0000e-06 Eh
Max. Gradient            TolMAXG  ....  3.0000e-04 Eh/bohr
RMS Gradient             TolRMSG  ....  1.0000e-04 Eh/bohr
Max. Displacement        TolMAXD  ....  4.0000e-03 bohr
RMS Displacement         TolRMSD  ....  2.0000e-03 bohr
Strict Convergence                ....  False
------------------------------------------------------------------------------
                        ORCA OPTIMIZATION COORDINATE SETUP
------------------------------------------------------------------------------

The optimization will be done in new redundant internal coordinates
Making redundant internal coordinates   ...  (new redundants) done
Evaluating the initial hessian          ...  (Almloef) done
Evaluating the coordinates              ...  done
Calculating the B-matrix                .... done
Calculating the G-matrix                .... done
Diagonalizing the G-matrix              .... done
The first mode is                       ....   25
The number of degrees of freedom        ....   33

    -----------------------------------------------------------------
                    Redundant Internal Coordinates


    -----------------------------------------------------------------
         Definition                    Initial Value    Approx d2E/dq
    -----------------------------------------------------------------
      1. B(C   2,H   0)                  1.0839         0.368229   
      2. B(C   5,C   2)                  1.3921         0.619910   
      3. B(C   6,C   2)                  1.3992         0.604084   
      4. B(C   6,C   1)                  1.4002         0.601928   
      5. B(C   7,C   5)                  1.3919         0.620348   
      6. B(C   7,H   3)                  1.0838         0.368356   
      7. B(H   8,C   5)                  1.0835         0.368794   
      8. B(C   9,C   7)                  1.3988         0.605000   
      9. B(C   9,H   4)                  1.0873         0.363712   
     10. B(C   9,C   1)                  1.3983         0.606041   
     11. B(H  10,C   6)                  1.0866         0.364573   
     12. B(N  11,C   1)                  1.3447         0.660949   
     13. B(H  12,N  11)                  1.0254         0.408861   
     14. A(C   6,C   1,N  11)          122.4842         0.433900   
     15. A(C   6,C   1,C   9)          117.6152         0.430001   
     16. A(C   9,C   1,N  11)          119.9006         0.434432   
     17. A(C   5,C   2,C   6)          120.1041         0.432030   
     18. A(H   0,C   2,C   6)          119.4325         0.352689   
     19. A(H   0,C   2,C   5)          120.4634         0.354237   
     20. A(C   2,C   5,H   8)          120.2999         0.354329   
     21. A(C   2,C   5,C   7)          119.4258         0.434099   
     22. A(C   7,C   5,H   8)          120.2743         0.354372   
     23. A(C   1,C   6,H  10)          119.3619         0.351881   
     24. A(C   1,C   6,C   2)          121.3401         0.429752   
     25. A(C   2,C   6,H  10)          119.2980         0.352094   
     26. A(H   3,C   7,C   5)          120.5538         0.354300   
     27. A(C   5,C   7,C   9)          120.0524         0.432202   
     28. A(H   3,C   7,C   9)          119.3937         0.352800   
     29. A(H   4,C   9,C   7)          119.7283         0.352044   
     30. A(C   1,C   9,C   7)          121.4623         0.430394   
     31. A(C   1,C   9,H   4)          118.8094         0.352146   
     32. A(C   1,N  11,H  12)          107.9743         0.359113   
     33. D(C   7,C   5,C   2,H   0)   -179.9993         0.026591   
     34. D(C   7,C   5,C   2,C   6)      0.0008         0.026591   
     35. D(H   8,C   5,C   2,H   0)      0.0006         0.026591   
     36. D(H   8,C   5,C   2,C   6)   -179.9992         0.026591   
     37. D(C   2,C   6,C   1,N  11)    179.9986         0.024986   
     38. D(H  10,C   6,C   1,C   9)    179.9990         0.024986   
     39. D(C   1,C   6,C   2,H   0)   -179.9997         0.025175   
     40. D(H  10,C   6,C   2,H   0)      0.0001         0.025175   
     41. D(C   1,C   6,C   2,C   5)      0.0001         0.025175   
     42. D(C   2,C   6,C   1,C   9)     -0.0012         0.024986   
     43. D(H  10,C   6,C   2,C   5)    180.0000         0.025175   
     44. D(H  10,C   6,C   1,N  11)     -0.0013         0.024986   
     45. D(C   9,C   7,C   5,C   2)     -0.0007         0.026631   
     46. D(H   3,C   7,C   5,H   8)     -0.0004         0.026631   
     47. D(H   3,C   7,C   5,C   2)    179.9996         0.026631   
     48. D(C   9,C   7,C   5,H   8)    179.9993         0.026631   
     49. D(H   4,C   9,C   7,C   5)   -179.9999         0.025256   
     50. D(C   1,C   9,C   7,C   5)     -0.0004         0.025256   
     51. D(C   1,C   9,C   7,H   3)    179.9993         0.025256   
     52. D(C   7,C   9,C   1,N  11)   -179.9984         0.025348   
     53. D(C   7,C   9,C   1,C   6)      0.0013         0.025348   
     54. D(H   4,C   9,C   7,H   3)     -0.0002         0.025256   
     55. D(H   4,C   9,C   1,N  11)      0.0011         0.025348   
     56. D(H   4,C   9,C   1,C   6)   -179.9992         0.025348   
     57. D(H  12,N  11,C   1,C   9)    179.9949         0.032376   
     58. D(H  12,N  11,C   1,C   6)     -0.0048         0.032376   
    -----------------------------------------------------------------

Number of atoms                         .... 13
Number of degrees of freedom            .... 58

         *************************************************************
         *                GEOMETRY OPTIMIZATION CYCLE   1            *
         *************************************************************
---------------------------------
CARTESIAN COORDINATES (ANGSTROEM)
---------------------------------
  H     -3.585041    3.403771   -1.062732
  C     -0.281705    3.423775   -0.200991
  C     -2.645933    3.035886   -0.665709
  H     -1.258905    0.313563    0.807490
  H      0.728345    1.778444    0.734638
  C     -2.561875    1.756665   -0.122962
  C     -1.514606    3.858346   -0.702513
  C     -1.345021    1.306157    0.380843
  H     -3.435959    1.117090   -0.092862
  C     -0.219549    2.135708    0.339614
  H     -1.595034    4.854506   -1.129106
  N      0.819815    4.194669   -0.224690
  H      0.569580    5.090954   -0.655462

----------------------------
CARTESIAN COORDINATES (A.U.)
----------------------------
  NO LB      ZA    FRAG     MASS         X           Y           Z
   0 H     1.0000    0     1.008   -6.774746    6.432195   -2.008272
   1 C     6.0000    0    12.011   -0.532345    6.469997   -0.379818
   2 C     6.0000    0    12.011   -5.000089    5.736993   -1.258008
   3 H     1.0000    0     1.008   -2.378986    0.592548    1.525935
   4 H     1.0000    0     1.008    1.376373    3.360772    1.388265
   5 C     6.0000    0    12.011   -4.841242    3.319616   -0.232365
   6 C     6.0000    0    12.011   -2.862191    7.291217   -1.327557
   7 C     6.0000    0    12.011   -2.541721    2.468279    0.719689
   8 H     1.0000    0     1.008   -6.493022    2.110994   -0.175484
   9 C     6.0000    0    12.011   -0.414887    4.035903    0.641777
  10 H     1.0000    0     1.008   -3.014177    9.173687   -2.133701
  11 N     7.0000    0    14.007    1.549226    7.926776   -0.424603
  12 H     1.0000    0     1.008    1.076350    9.620509   -1.238644

--------------------------------
INTERNAL COORDINATES (ANGSTROEM)
--------------------------------
 H      0   0   0     0.000000000000     0.00000000     0.00000000
 C      1   0   0     3.413945875375     0.00000000     0.00000000
 C      1   2   0     1.083923646489    21.75244040     0.00000000
 H      3   1   2     3.391932263875   141.79210774   179.99991175
 H      2   1   3     2.145394305880   124.13425642     0.00000000
 C      3   1   2     1.392137356806   120.46335711   180.00049017
 C      3   1   2     1.399176817613   119.43254797     0.00000000
 C      4   3   1     1.083829542364    20.20076874   180.00030350
 H      6   3   1     1.083505897391   120.29985775     0.00000000
 C      5   2   1     1.087283110100    34.82670658     0.00000000
 H      7   3   1     1.086639312943   119.29802832     0.00000000
 N      2   1   3     1.344687886551   142.32911241   179.99840938
 H     12   2   1     1.025431066642   107.97430833     0.00000000

---------------------------
INTERNAL COORDINATES (A.U.)
---------------------------
 H      0   0   0     0.000000000000     0.00000000     0.00000000
 C      1   0   0     6.451422740490     0.00000000     0.00000000
 C      1   2   0     2.048318841945    21.75244040     0.00000000
 H      3   1   2     6.409823043535   141.79210774   179.99991175
 H      2   1   3     4.054207687387   124.13425642     0.00000000
 C      3   1   2     2.630758345164   120.46335711   180.00049017
 C      3   1   2     2.644060998220   119.43254797     0.00000000
 C      4   3   1     2.048141010921    20.20076874   180.00030350
 H      6   3   1     2.047529410558   120.29985775     0.00000000
 C      5   2   1     2.054667308127    34.82670658     0.00000000
 H      7   3   1     2.053450707814   119.29802832     0.00000000
 N      2   1   3     2.541091841183   142.32911241   179.99840938
 H     12   2   1     1.937783885168   107.97430833     0.00000000

---------------------
BASIS SET INFORMATION
---------------------
There are 3 groups of distinct atoms

 Group   1 Type H   : 5s1p contracted to 3s1p pattern {311/1}
 Group   2 Type C   : 11s6p2d1f contracted to 5s3p2d1f pattern {62111/411/11/1}
 Group   3 Type N   : 11s6p2d1f contracted to 5s3p2d1f pattern {62111/411/11/1}

Atom   0H    basis set group =>   1
Atom   1C    basis set group =>   2
Atom   2C    basis set group =>   2
Atom   3H    basis set group =>   1
Atom   4H    basis set group =>   1
Atom   5C    basis set group =>   2
Atom   6C    basis set group =>   2
Atom   7C    basis set group =>   2
Atom   8H    basis set group =>   1
Atom   9C    basis set group =>   2
Atom  10H    basis set group =>   1
Atom  11N    basis set group =>   3
Atom  12H    basis set group =>   1
---------------------------------
AUXILIARY/J BASIS SET INFORMATION
---------------------------------
There are 3 groups of distinct atoms

 Group   1 Type H   : 5s2p1d contracted to 3s1p1d pattern {311/2/1}
 Group   2 Type C   : 12s5p4d2f1g contracted to 6s4p3d1f1g pattern {711111/2111/211/2/1}
 Group   3 Type N   : 12s5p4d2f1g contracted to 6s4p3d1f1g pattern {711111/2111/211/2/1}

Atom   0H    basis set group =>   1
Atom   1C    basis set group =>   2
Atom   2C    basis set group =>   2
Atom   3H    basis set group =>   1
Atom   4H    basis set group =>   1
Atom   5C    basis set group =>   2
Atom   6C    basis set group =>   2
Atom   7C    basis set group =>   2
Atom   8H    basis set group =>   1
Atom   9C    basis set group =>   2
Atom  10H    basis set group =>   1
Atom  11N    basis set group =>   3
Atom  12H    basis set group =>   1
------------------------------------------------------------------------------
                           ORCA GTO INTEGRAL CALCULATION
                           -- RI-GTO INTEGRALS CHOSEN --
------------------------------------------------------------------------------
------------------------------------------------------------------------------
                   ___                                                        
                  /   \      - P O W E R E D   B Y -                         
                 /     \                                                     
                 |  |  |   _    _      __       _____    __    __             
                 |  |  |  | |  | |    /  \     |  _  \  |  |  /  |          
                  \  \/   | |  | |   /    \    | | | |  |  | /  /          
                 / \  \   | |__| |  /  /\  \   | |_| |  |  |/  /          
                |  |  |   |  __  | /  /__\  \  |    /   |      \           
                |  |  |   | |  | | |   __   |  |    \   |  |\   \          
                \     /   | |  | | |  |  |  |  | |\  \  |  | \   \       
                 \___/    |_|  |_| |__|  |__|  |_| \__\ |__|  \__/        
                                                                              
                      - O R C A' S   B I G   F R I E N D -                    
                                      &                                       
                       - I N T E G R A L  F E E D E R -                       
                                                                              
 v1 FN, 2020, v2 2021                                                         
------------------------------------------------------------------------------


Reading SHARK input file inp.SHARKINP.tmp ... ok
----------------------
SHARK INTEGRAL PACKAGE
----------------------

Number of atoms                             ...     13
Number of basis functions                   ...    253
Number of shells                            ...    101
Maximum angular momentum                    ...      3
Integral batch strategy                     ... SHARK/LIBINT Hybrid
RI-J (if used) integral strategy            ... SPLIT-RIJ (Revised 2003 algorithm where possible)
Printlevel                                  ...      1
Contraction scheme used                     ... SEGMENTED contraction
Coulomb Range Separation                    ... NOT USED
Exchange Range Separation                   ... NOT USED
Finite Nucleus Model                        ... NOT USED
Auxiliary Coulomb fitting basis             ... AVAILABLE
   # of basis functions in Aux-J            ...    409
   # of shells in Aux-J                     ...    135
   Maximum angular momentum in Aux-J        ...      4
Auxiliary J/K fitting basis                 ... NOT available
Auxiliary Correlation fitting basis         ... NOT available
Auxiliary 'external' fitting basis          ... NOT available
Integral threshold                          ...     2.500000e-11
Primitive cut-off                           ...     2.500000e-12
Primitive pair pre-selection threshold      ...     2.500000e-12

Calculating pre-screening integrals         ... done (  0.1 sec) Dimension = 101
Organizing shell pair data                  ... done (  0.2 sec)
Shell pair information
Total number of shell pairs                 ...      5151
Shell pairs after pre-screening             ...      4884
Total number of primitive shell pairs       ...     15748
Primitive shell pairs kept                  ...     11588
          la=0 lb=0:   1294 shell pairs
          la=1 lb=0:   1359 shell pairs
          la=1 lb=1:    369 shell pairs
          la=2 lb=0:    717 shell pairs
          la=2 lb=1:    372 shell pairs
          la=2 lb=2:    104 shell pairs
          la=3 lb=0:    357 shell pairs
          la=3 lb=1:    186 shell pairs
          la=3 lb=2:     98 shell pairs
          la=3 lb=3:     28 shell pairs

Calculating one electron integrals          ... done (  0.0 sec)
Calculating RI/J V-Matrix + Cholesky decomp.... done (  0.3 sec)
Calculating Nuclear repulsion               ... done (  0.0 sec) ENN=    262.162821680898 Eh

SHARK setup successfully completed in   1.5 seconds

Maximum memory used throughout the entire GTOINT-calculation: 76.3 MB
-------------------------------------------------------------------------------
                                 ORCA SCF
-------------------------------------------------------------------------------

------------
SCF SETTINGS
------------
Hamiltonian:
 Density Functional     Method          .... DFT(GTOs)
 Exchange Functional    Exchange        .... PBE
   PBE kappa parameter   XKappa         ....  0.804000
   PBE mue parameter    XMuePBE         ....  0.219520
 Correlation Functional Correlation     .... PBE
   PBE beta parameter  CBetaPBE         ....  0.066725
 LDA part of GGA corr.  LDAOpt          .... PW91-LDA
 Gradients option       PostSCFGGA      .... off
   Density functional embedding theory  .... OFF
   NL short-range parameter             ....  6.400000
 RI-approximation to the Coulomb term is turned on
   Number of AuxJ basis functions       .... 409


General Settings:
 Integral files         IntName         .... inp
 Hartree-Fock type      HFTyp           .... RHF
 Total Charge           Charge          ....   -1
 Multiplicity           Mult            ....    1
 Number of Electrons    NEL             ....   50
 Basis Dimension        Dim             ....  253
 Nuclear Repulsion      ENuc            ....    262.1628216809 Eh

Convergence Acceleration:
 DIIS                   CNVDIIS         .... on
   Start iteration      DIISMaxIt       ....    12
   Startup error        DIISStart       ....  0.200000
   # of expansion vecs  DIISMaxEq       ....     5
   Bias factor          DIISBfac        ....   1.050
   Max. coefficient     DIISMaxC        ....  10.000
 Trust-Rad. Augm. Hess. CNVTRAH         .... auto
   Auto Start mean grad. ratio tolernc. ....  1.125000
   Auto Start start iteration           ....    20
   Auto Start num. interpolation iter.  ....    10
   Max. Number of Micro iterations      ....    16
   Max. Number of Macro iterations      .... Maxiter - #DIIS iter
   Number of Davidson start vectors     ....     2
   Converg. threshold I  (grad. norm)   ....   1.000e-05
   Converg. threshold II (energy diff.) ....   1.000e-08
   Grad. Scal. Fac. for Micro threshold ....   0.100
   Minimum threshold for Micro iter.    ....   0.010
   NR start threshold (gradient norm)   ....   0.001
   Initial trust radius                 ....   0.400
   Minimum AH scaling param. (alpha)    ....   1.000
   Maximum AH scaling param. (alpha)    .... 1000.000
   Orbital update algorithm             .... Taylor
   White noise on init. David. guess    .... on
   Maximum white noise                  ....   0.010
   Quad. conv. algorithm                .... NR
 SOSCF                  CNVSOSCF        .... on
   Start iteration      SOSCFMaxIt      ....   150
   Startup grad/error   SOSCFStart      ....  0.003300
 Level Shifting         CNVShift        .... on
   Level shift para.    LevelShift      ....    0.2500
   Turn off err/grad.   ShiftErr        ....    0.0010
 Zerner damping         CNVZerner       .... off
 Static damping         CNVDamp         .... on
   Fraction old density DampFac         ....    0.7000
   Max. Damping (<1)    DampMax         ....    0.9800
   Min. Damping (>=0)   DampMin         ....    0.0000
   Turn off err/grad.   DampErr         ....    0.1000
 Fernandez-Rico         CNVRico         .... off

SCF Procedure:
 Maximum # iterations   MaxIter         ....   125
 SCF integral mode      SCFMode         .... Direct
   Integral package                     .... SHARK and LIBINT hybrid scheme
 Reset frequency        DirectResetFreq ....    20
 Integral Threshold     Thresh          ....  2.500e-11 Eh
 Primitive CutOff       TCut            ....  2.500e-12 Eh

Convergence Tolerance:
 Convergence Check Mode ConvCheckMode   .... Total+1el-Energy
 Convergence forced     ConvForced      .... 0
 Energy Change          TolE            ....  1.000e-08 Eh
 1-El. energy change                    ....  1.000e-05 Eh
 Orbital Gradient       TolG            ....  1.000e-05
 Orbital Rotation angle TolX            ....  1.000e-05
 DIIS Error             TolErr          ....  5.000e-07


Diagonalization of the overlap matrix:
Smallest eigenvalue                        ... 1.015e-05
Time for diagonalization                   ...    0.010 sec
Threshold for overlap eigenvalues          ... 1.000e-08
Number of eigenvalues below threshold      ... 0
Time for construction of square roots      ...    1.609 sec
Total time needed                          ...    1.620 sec

Time for model grid setup =    0.744 sec

------------------------------
INITIAL GUESS: MODEL POTENTIAL
------------------------------
Loading Hartree-Fock densities                     ... done
Calculating cut-offs                               ... done
Initializing the effective Hamiltonian             ... done
Setting up the integral package (SHARK)            ... done
Starting the Coulomb interaction                   ... done (   0.4 sec)
Reading the grid                                   ... done
Mapping shells                                     ... done
Starting the XC term evaluation                    ... done (   0.4 sec)
  promolecular density results
     # of electrons  =     48.999364645
     EX              =    -38.948401109
     EC              =     -1.609128861
     EX+EC           =    -40.557529970
Transforming the Hamiltonian                       ... done (   0.0 sec)
Diagonalizing the Hamiltonian                      ... done (   0.0 sec)
Back transforming the eigenvectors                 ... done (   0.0 sec)
Now organizing SCF variables                       ... done
                      ------------------
                      INITIAL GUESS DONE (   1.5 sec)
                      ------------------
-------------------
DFT GRID GENERATION
-------------------

General Integration Accuracy     IntAcc      ... 4.388
Radial Grid Type                 RadialGrid  ... OptM3 with GC (2021)
Angular Grid (max. ang.)         AngularGrid ... 4 (Lebedev-302)
Angular grid pruning method      GridPruning ... 4 (adaptive)
Weight generation scheme         WeightScheme... Becke
Basis function cutoff            BFCut       ... 1.0000e-11
Integration weight cutoff        WCut        ... 1.0000e-14
Angular grids for H and He will be reduced by one unit
Partially contracted basis set               ... off
Rotationally invariant grid construction     ... off

Total number of grid points                  ...    61631
Total number of batches                      ...      969
Average number of points per batch           ...       63
Average number of grid points per atom       ...     4741
Time for grid setup =    0.886 sec


--------------------
CPCM SOLVATION MODEL
--------------------
CPCM parameters:
  Epsilon                                         ...      80.4000
  Refrac                                          ...       1.3300
  Rsolv                                           ...       1.3000
  Surface type                                    ... GAUSSIAN VDW
  Epsilon function type                           ...         CPCM
Radii:
 Radius for H  used is    2.4944 Bohr (=   1.3200 Ang.)
 Radius for C  used is    3.8550 Bohr (=   2.0400 Ang.)
 Radius for N  used is    3.5149 Bohr (=   1.8600 Ang.)
Calculating surface                               ...        done! (  0.0s)
GEPOL surface points                              ...          771
GEPOL Volume                                      ...     841.9266
GEPOL Surface-area                                ...     485.0087
Calculating surface distance matrix               ...        done! (  0.0s)
Performing Cholesky decomposition & store         ...        done! (  0.2s)
Overall time for CPCM initialization              ...                 0.2s
--------------
SCF ITERATIONS
--------------
ITER       Energy         Delta-E        Max-DP      RMS-DP      [F,P]     Damp
               ***  Starting incremental Fock matrix formation  ***
  0   -286.5300057872   0.000000000000 0.70390099  0.01233403  0.3381137 0.7000
  1   -286.6840115670  -0.154005779843 0.64742269  0.01266184  0.1263397 0.7000
                               ***Turning on DIIS***
  2   -286.7334977013  -0.049486134242 0.56513648  0.01154415  0.0267599 0.0000
  3   -286.8084402764  -0.074942575105 0.67303126  0.01289654  0.0825481 0.0000
  4   -286.8329361460  -0.024495869648 0.15683711  0.00325018  0.0142166 0.0000
  5   -286.8349699791  -0.002033833094 0.08615729  0.00173323  0.0078279 0.0000
                      *** Initiating the SOSCF procedure ***
                           *** Shutting down DIIS ***
                      *** Re-Reading the Fockian *** 
                      *** Removing any level shift *** 
ITER      Energy       Delta-E        Grad      Rot      Max-DP    RMS-DP
  6   -286.83513343  -0.0001634467  0.000543  0.000543  0.062219  0.001214
               *** Restarting incremental Fock matrix formation ***
  7   -286.83513471  -0.0000012827  0.000786  0.005690  0.027805  0.000526
  8   -286.83508412   0.0000505913  0.002131  0.004233  0.018776  0.000362
  9   -286.83514345  -0.0000593363  0.000134  0.000420  0.000607  0.000014
 10   -286.83514231   0.0000011438  0.000273  0.000284  0.000445  0.000009
 11   -286.83514389  -0.0000015831  0.000041  0.000198  0.001220  0.000023
 12   -286.83514380   0.0000000916  0.000082  0.000134  0.000730  0.000014
 13   -286.83514392  -0.0000001206  0.000003  0.000007  0.000039  0.000001
 14   -286.83514392   0.0000000023  0.000005  0.000005  0.000183  0.000004
                  ***Gradient check signals convergence***
              ***Rediagonalizing the Fockian in SOSCF/NRSCF***

               *****************************************************
               *                     SUCCESS                       *
               *           SCF CONVERGED AFTER  15 CYCLES          *
               *****************************************************


----------------
TOTAL SCF ENERGY
----------------

Total Energy       :         -286.83514391 Eh           -7805.18107 eV

Components:
Nuclear Repulsion  :          262.16282168 Eh            7133.81305 eV
Electronic Energy  :         -548.99796560 Eh          -14938.99413 eV
One Electron Energy:         -915.87856401 Eh          -24922.32275 eV
Two Electron Energy:          366.88059842 Eh            9983.32863 eV
CPCM Dielectric    :           -0.10142904 Eh              -2.76002 eV

Virial components:
Potential Energy   :         -572.59278954 Eh          -15581.04193 eV
Kinetic Energy     :          285.75764562 Eh            7775.86085 eV
Virial Ratio       :            2.00377067


DFT components:
N(Alpha)           :       25.000019334453 electrons
N(Beta)            :       25.000019334453 electrons
N(Total)           :       50.000038668907 electrons
E(X)               :      -39.985843334870 Eh       
E(C)               :       -1.650713303271 Eh       
E(XC)              :      -41.636556638141 Eh       
DFET-embed. en.    :        0.000000000000 Eh       
CPCM Solvation Model Properties:
Surface-charge          :            0.96211934
Charge-correction       :           -0.00590974 Eh              -0.16081 eV
Free-energy (cav+disp)  :  This term is not implemented in the current solvation scheme

---------------
SCF CONVERGENCE
---------------

  Last Energy change         ...    4.7345e-09  Tolerance :   1.0000e-08
  Last MAX-Density change    ...    7.3403e-04  Tolerance :   1.0000e-07
  Last RMS-Density change    ...    1.3215e-05  Tolerance :   5.0000e-09
  Last Orbital Gradient      ...    1.3103e-06  Tolerance :   1.0000e-05
  Last Orbital Rotation      ...    1.7241e-06  Tolerance :   1.0000e-05

             **** THE GBW FILE WAS UPDATED (inp.gbw) ****
             **** DENSITY inp.scfp WAS UPDATED ****
             **** ENERGY FILE WAS UPDATED (inp.en.tmp) ****
             **** THE GBW FILE WAS UPDATED (inp.gbw) ****
             **** DENSITY inp.scfp WAS UPDATED ****
----------------
ORBITAL ENERGIES
----------------

  NO   OCC          E(Eh)            E(eV) 
   0   2.0000     -13.886954      -377.8832 
   1   2.0000      -9.870340      -268.5856 
   2   2.0000      -9.859261      -268.2841 
   3   2.0000      -9.859117      -268.2802 
   4   2.0000      -9.843130      -267.8452 
   5   2.0000      -9.843114      -267.8448 
   6   2.0000      -9.841930      -267.8125 
   7   2.0000      -0.772023       -21.0078 
   8   2.0000      -0.714812       -19.4510 
   9   2.0000      -0.644269       -17.5314 
  10   2.0000      -0.606018       -16.4906 
  11   2.0000      -0.519971       -14.1491 
  12   2.0000      -0.492952       -13.4139 
  13   2.0000      -0.429596       -11.6899 
  14   2.0000      -0.390158       -10.6167 
  15   2.0000      -0.372007       -10.1228 
  16   2.0000      -0.344149        -9.3648 
  17   2.0000      -0.338173        -9.2022 
  18   2.0000      -0.315318        -8.5802 
  19   2.0000      -0.284909        -7.7528 
  20   2.0000      -0.272530        -7.4159 
  21   2.0000      -0.237822        -6.4715 
  22   2.0000      -0.204637        -5.5684 
  23   2.0000      -0.184599        -5.0232 
  24   2.0000      -0.119606        -3.2546 
  25   0.0000      -0.018627        -0.5069 
  26   0.0000       0.018284         0.4975 
  27   0.0000       0.046830         1.2743 
  28   0.0000       0.062410         1.6983 
  29   0.0000       0.077025         2.0960 
  30   0.0000       0.095111         2.5881 
  31   0.0000       0.108107         2.9417 
  32   0.0000       0.119322         3.2469 
  33   0.0000       0.133564         3.6345 
  34   0.0000       0.134208         3.6520 
  35   0.0000       0.180776         4.9192 
  36   0.0000       0.190658         5.1881 
  37   0.0000       0.195567         5.3217 
  38   0.0000       0.208653         5.6777 
  39   0.0000       0.214407         5.8343 
  40   0.0000       0.229705         6.2506 
  41   0.0000       0.233832         6.3629 
  42   0.0000       0.245344         6.6761 
  43   0.0000       0.251082         6.8323 
  44   0.0000       0.277354         7.5472 
  45   0.0000       0.307248         8.3607 
  46   0.0000       0.313957         8.5432 
  47   0.0000       0.314290         8.5523 
  48   0.0000       0.328054         8.9268 
  49   0.0000       0.329637         8.9699 
  50   0.0000       0.342275         9.3138 
  51   0.0000       0.368363        10.0237 
  52   0.0000       0.384618        10.4660 
  53   0.0000       0.384828        10.4717 
  54   0.0000       0.403613        10.9829 
  55   0.0000       0.406011        11.0481 
  56   0.0000       0.411081        11.1861 
  57   0.0000       0.421408        11.4671 
  58   0.0000       0.436189        11.8693 
  59   0.0000       0.453818        12.3490 
  60   0.0000       0.457802        12.4574 
  61   0.0000       0.466740        12.7006 
  62   0.0000       0.480582        13.0773 
  63   0.0000       0.486789        13.2462 
  64   0.0000       0.499331        13.5875 
  65   0.0000       0.522666        14.2225 
  66   0.0000       0.558667        15.2021 
  67   0.0000       0.587596        15.9893 
  68   0.0000       0.608181        16.5494 
  69   0.0000       0.615460        16.7475 
  70   0.0000       0.631017        17.1708 
  71   0.0000       0.646319        17.5872 
  72   0.0000       0.670009        18.2319 
  73   0.0000       0.685952        18.6657 
  74   0.0000       0.712484        19.3877 
  75   0.0000       0.721431        19.6311 
  76   0.0000       0.736617        20.0444 
  77   0.0000       0.745460        20.2850 
  78   0.0000       0.790438        21.5089 
  79   0.0000       0.791808        21.5462 
  80   0.0000       0.844160        22.9708 
  81   0.0000       0.846007        23.0210 
  82   0.0000       0.853931        23.2366 
  83   0.0000       0.869372        23.6568 
  84   0.0000       0.973206        26.4823 
  85   0.0000       0.976542        26.5731 
  86   0.0000       0.976887        26.5825 
  87   0.0000       1.005392        27.3581 
  88   0.0000       1.041744        28.3473 
  89   0.0000       1.052862        28.6498 
  90   0.0000       1.054307        28.6892 
  91   0.0000       1.111161        30.2362 
  92   0.0000       1.149469        31.2786 
  93   0.0000       1.156036        31.4573 
  94   0.0000       1.170877        31.8612 
  95   0.0000       1.187497        32.3134 
  96   0.0000       1.194213        32.4962 
  97   0.0000       1.234557        33.5940 
  98   0.0000       1.247296        33.9407 
  99   0.0000       1.251821        34.0638 
 100   0.0000       1.274127        34.6708 
 101   0.0000       1.341683        36.5090 
 102   0.0000       1.343718        36.5644 
 103   0.0000       1.348591        36.6970 
 104   0.0000       1.388462        37.7820 
 105   0.0000       1.423472        38.7346 
 106   0.0000       1.448071        39.4040 
 107   0.0000       1.451666        39.5018 
 108   0.0000       1.459096        39.7040 
 109   0.0000       1.468888        39.9705 
 110   0.0000       1.518011        41.3072 
 111   0.0000       1.518104        41.3097 
 112   0.0000       1.534485        41.7555 
 113   0.0000       1.590873        43.2899 
 114   0.0000       1.598888        43.5080 
 115   0.0000       1.613239        43.8985 
 116   0.0000       1.624577        44.2070 
 117   0.0000       1.650514        44.9128 
 118   0.0000       1.666329        45.3431 
 119   0.0000       1.671472        45.4831 
 120   0.0000       1.712441        46.5979 
 121   0.0000       1.719913        46.8012 
 122   0.0000       1.735684        47.2304 
 123   0.0000       1.803264        49.0693 
 124   0.0000       1.855746        50.4974 
 125   0.0000       1.868687        50.8496 
 126   0.0000       1.918235        52.1978 
 127   0.0000       1.927142        52.4402 
 128   0.0000       1.958981        53.3066 
 129   0.0000       1.967837        53.5476 
 130   0.0000       2.003786        54.5258 
 131   0.0000       2.039034        55.4849 
 132   0.0000       2.053548        55.8799 
 133   0.0000       2.073114        56.4123 
 134   0.0000       2.080147        56.6037 
 135   0.0000       2.137721        58.1704 
 136   0.0000       2.143721        58.3336 
 137   0.0000       2.177099        59.2419 
 138   0.0000       2.192445        59.6595 
 139   0.0000       2.212510        60.2055 
 140   0.0000       2.252892        61.3043 
 141   0.0000       2.300329        62.5951 
 142   0.0000       2.383270        64.8521 
 143   0.0000       2.431531        66.1653 
 144   0.0000       2.467357        67.1402 
 145   0.0000       2.487187        67.6798 
 146   0.0000       2.500447        68.0406 
 147   0.0000       2.515394        68.4474 
 148   0.0000       2.533499        68.9400 
 149   0.0000       2.546734        69.3001 
 150   0.0000       2.571318        69.9691 
 151   0.0000       2.610248        71.0285 
 152   0.0000       2.611033        71.0498 
 153   0.0000       2.627272        71.4917 
 154   0.0000       2.634185        71.6798 
 155   0.0000       2.640786        71.8595 
 156   0.0000       2.681402        72.9647 
 157   0.0000       2.707649        73.6789 
 158   0.0000       2.712204        73.8028 
 159   0.0000       2.716621        73.9230 
 160   0.0000       2.734021        74.3965 
 161   0.0000       2.775730        75.5315 
 162   0.0000       2.776581        75.5546 
 163   0.0000       2.793999        76.0286 
 164   0.0000       2.826303        76.9076 
 165   0.0000       2.838504        77.2396 
 166   0.0000       2.849978        77.5518 
 167   0.0000       2.856879        77.7396 
 168   0.0000       2.917047        79.3769 
 169   0.0000       2.934743        79.8584 
 170   0.0000       2.966514        80.7230 
 171   0.0000       3.012109        81.9637 
 172   0.0000       3.050065        82.9965 
 173   0.0000       3.054499        83.1171 
 174   0.0000       3.078152        83.7608 
 175   0.0000       3.080153        83.8152 
 176   0.0000       3.088859        84.0521 
 177   0.0000       3.096803        84.2683 
 178   0.0000       3.143110        85.5284 
 179   0.0000       3.161333        86.0242 
 180   0.0000       3.178296        86.4858 
 181   0.0000       3.180828        86.5547 
 182   0.0000       3.204926        87.2105 
 183   0.0000       3.214567        87.4728 
 184   0.0000       3.243962        88.2727 
 185   0.0000       3.275953        89.1432 
 186   0.0000       3.298009        89.7434 
 187   0.0000       3.303355        89.8889 
 188   0.0000       3.317276        90.2677 
 189   0.0000       3.354331        91.2760 
 190   0.0000       3.364548        91.5540 
 191   0.0000       3.401946        92.5717 
 192   0.0000       3.408232        92.7427 
 193   0.0000       3.427262        93.2605 
 194   0.0000       3.430367        93.3450 
 195   0.0000       3.460647        94.1690 
 196   0.0000       3.464640        94.2776 
 197   0.0000       3.516654        95.6930 
 198   0.0000       3.558507        96.8319 
 199   0.0000       3.632321        98.8405 
 200   0.0000       3.659178        99.5713 
 201   0.0000       3.678998       100.1106 
 202   0.0000       3.687277       100.3359 
 203   0.0000       3.757881       102.2571 
 204   0.0000       3.789215       103.1098 
 205   0.0000       3.858979       105.0082 
 206   0.0000       3.929589       106.9295 
 207   0.0000       3.933124       107.0257 
 208   0.0000       3.967402       107.9585 
 209   0.0000       3.978266       108.2541 
 210   0.0000       3.994819       108.7045 
 211   0.0000       4.017834       109.3308 
 212   0.0000       4.051532       110.2478 
 213   0.0000       4.056129       110.3729 
 214   0.0000       4.120113       112.1140 
 215   0.0000       4.135692       112.5379 
 216   0.0000       4.158260       113.1520 
 217   0.0000       4.177655       113.6798 
 218   0.0000       4.233360       115.1956 
 219   0.0000       4.236276       115.2749 
 220   0.0000       4.237307       115.3030 
 221   0.0000       4.354743       118.4986 
 222   0.0000       4.395692       119.6129 
 223   0.0000       4.522268       123.0572 
 224   0.0000       4.558327       124.0384 
 225   0.0000       4.590936       124.9257 
 226   0.0000       4.632142       126.0470 
 227   0.0000       4.636176       126.1568 
 228   0.0000       4.697518       127.8260 
 229   0.0000       4.708605       128.1276 
 230   0.0000       4.760758       129.5468 
 231   0.0000       4.805600       130.7670 
 232   0.0000       4.813379       130.9787 
 233   0.0000       4.904603       133.4610 
 234   0.0000       4.921693       133.9261 
 235   0.0000       5.027847       136.8147 
 236   0.0000       5.106333       138.9504 
 237   0.0000       5.181010       140.9825 
 238   0.0000       5.194145       141.3399 
 239   0.0000       5.226918       142.2317 
 240   0.0000       5.262394       143.1970 
 241   0.0000       5.397083       146.8621 
 242   0.0000       5.497289       149.5888 
 243   0.0000       5.548834       150.9915 
 244   0.0000       5.630490       153.2134 
 245   0.0000       5.957909       162.1230 
 246   0.0000      21.853524       594.6646 
 247   0.0000      22.350566       608.1898 
 248   0.0000      22.358951       608.4180 
 249   0.0000      22.485868       611.8716 
 250   0.0000      22.584865       614.5654 
 251   0.0000      23.045962       627.1125 
 252   0.0000      31.788399       865.0063 

                    ********************************
                    * MULLIKEN POPULATION ANALYSIS *
                    ********************************

-----------------------
MULLIKEN ATOMIC CHARGES
-----------------------
   0 H :    0.109723
   1 C :    0.168352
   2 C :   -0.144542
   3 H :    0.108247
   4 H :    0.044625
   5 C :   -0.241773
   6 C :   -0.329587
   7 C :   -0.136984
   8 H :    0.104044
   9 C :   -0.322407
  10 H :    0.097874
  11 N :   -0.637417
  12 H :    0.179845
Sum of atomic charges:   -1.0000000

--------------------------------
MULLIKEN REDUCED ORBITAL CHARGES
--------------------------------
  0 H s       :     0.868526  s :     0.868526
      pz      :     0.006084  p :     0.021751
      px      :     0.010507
      py      :     0.005159
  1 C s       :     2.949626  s :     2.949626
      pz      :     0.873944  p :     2.710849
      px      :     1.021358
      py      :     0.815548
      dz2     :     0.013320  d :     0.158079
      dxz     :     0.034733
      dyz     :     0.027986
      dx2y2   :     0.050878
      dxy     :     0.031162
      f0      :     0.001148  f :     0.013093
      f+1     :     0.001347
      f-1     :     0.001453
      f+2     :     0.000918
      f-2     :     0.002216
      f+3     :     0.003903
      f-3     :     0.002108
  2 C s       :     3.178824  s :     3.178824
      pz      :     0.982609  p :     2.866745
      px      :     0.952387
      py      :     0.931748
      dz2     :     0.007861  d :     0.092127
      dxz     :     0.015137
      dyz     :     0.019175
      dx2y2   :     0.026773
      dxy     :     0.023181
      f0      :     0.000878  f :     0.006846
      f+1     :     0.000307
      f-1     :     0.001264
      f+2     :     0.000625
      f-2     :     0.001196
      f+3     :     0.001840
      f-3     :     0.000737
  3 H s       :     0.870066  s :     0.870066
      pz      :     0.006262  p :     0.021687
      px      :     0.004138
      py      :     0.011287
  4 H s       :     0.933266  s :     0.933266
      pz      :     0.006614  p :     0.022109
      px      :     0.010505
      py      :     0.004990
  5 C s       :     3.196183  s :     3.196183
      pz      :     1.070685  p :     2.953259
      px      :     0.937626
      py      :     0.944948
      dz2     :     0.012533  d :     0.085556
      dxz     :     0.011937
      dyz     :     0.013751
      dx2y2   :     0.016109
      dxy     :     0.031226
      f0      :     0.000462  f :     0.006775
      f+1     :     0.001015
      f-1     :     0.001279
      f+2     :     0.000824
      f-2     :     0.000777
      f+3     :     0.001471
      f-3     :     0.000947
  6 C s       :     3.268952  s :     3.268952
      pz      :     1.066107  p :     2.973499
      px      :     0.913126
      py      :     0.994266
      dz2     :     0.006403  d :     0.080448
      dxz     :     0.019048
      dyz     :     0.009012
      dx2y2   :     0.029299
      dxy     :     0.016685
      f0      :     0.000905  f :     0.006688
      f+1     :     0.000893
      f-1     :     0.000459
      f+2     :     0.000641
      f-2     :     0.001081
      f+3     :     0.001690
      f-3     :     0.001021
  7 C s       :     3.187409  s :     3.187409
      pz      :     0.983042  p :     2.849744
      px      :     0.920073
      py      :     0.946630
      dz2     :     0.007230  d :     0.093004
      dxz     :     0.025168
      dyz     :     0.009535
      dx2y2   :     0.033593
      dxy     :     0.017478
      f0      :     0.000887  f :     0.006827
      f+1     :     0.001040
      f-1     :     0.000490
      f+2     :     0.000595
      f-2     :     0.001215
      f+3     :     0.001677
      f-3     :     0.000923
  8 H s       :     0.873584  s :     0.873584
      pz      :     0.005899  p :     0.022372
      px      :     0.009384
      py      :     0.007089
  9 C s       :     3.360660  s :     3.360660
      pz      :     1.055723  p :     2.873920
      px      :     0.852119
      py      :     0.966078
      dz2     :     0.006840  d :     0.081053
      dxz     :     0.012620
      dyz     :     0.014665
      dx2y2   :     0.025207
      dxy     :     0.021721
      f0      :     0.000890  f :     0.006774
      f+1     :     0.000331
      f-1     :     0.001146
      f+2     :     0.000583
      f-2     :     0.001149
      f+3     :     0.001896
      f-3     :     0.000778
 10 H s       :     0.879977  s :     0.879977
      pz      :     0.006865  p :     0.022149
      px      :     0.003957
      py      :     0.011327
 11 N s       :     3.418111  s :     3.418111
      pz      :     1.506032  p :     4.178711
      px      :     1.563310
      py      :     1.109369
      dz2     :     0.003870  d :     0.038232
      dxz     :     0.008616
      dyz     :     0.005577
      dx2y2   :     0.011662
      dxy     :     0.008507
      f0      :     0.000439  f :     0.002363
      f+1     :     0.000182
      f-1     :     0.000192
      f+2     :     0.000229
      f-2     :     0.000401
      f+3     :     0.000597
      f-3     :     0.000323
 12 H s       :     0.784324  s :     0.784324
      pz      :     0.012357  p :     0.035831
      px      :     0.008877
      py      :     0.014597


                     *******************************
                     * LOEWDIN POPULATION ANALYSIS *
                     *******************************

----------------------
LOEWDIN ATOMIC CHARGES
----------------------
   0 H :    0.137863
   1 C :   -0.400960
   2 C :   -0.199351
   3 H :    0.138676
   4 H :    0.130357
   5 C :   -0.254928
   6 C :   -0.196243
   7 C :   -0.199200
   8 H :    0.133336
   9 C :   -0.194479
  10 H :    0.135420
  11 N :   -0.351114
  12 H :    0.120622

-------------------------------
LOEWDIN REDUCED ORBITAL CHARGES
-------------------------------
  0 H s       :     0.802701  s :     0.802701
      pz      :     0.016623  p :     0.059436
      px      :     0.028233
      py      :     0.014580
  1 C s       :     2.717975  s :     2.717975
      pz      :     0.874550  p :     2.887682
      px      :     1.017514
      py      :     0.995618
      dz2     :     0.063459  d :     0.711761
      dxz     :     0.142195
      dyz     :     0.108063
      dx2y2   :     0.218552
      dxy     :     0.179492
      f0      :     0.006424  f :     0.083543
      f+1     :     0.007561
      f-1     :     0.006575
      f+2     :     0.007181
      f-2     :     0.015280
      f+3     :     0.026625
      f-3     :     0.013897
  2 C s       :     2.772020  s :     2.772020
      pz      :     0.928355  p :     2.973885
      px      :     1.000166
      py      :     1.045364
      dz2     :     0.035330  d :     0.410556
      dxz     :     0.056694
      dyz     :     0.079283
      dx2y2   :     0.122504
      dxy     :     0.116745
      f0      :     0.003991  f :     0.042890
      f+1     :     0.002062
      f-1     :     0.005570
      f+2     :     0.005128
      f-2     :     0.006697
      f+3     :     0.012541
      f-3     :     0.006903
  3 H s       :     0.801970  s :     0.801970
      pz      :     0.017078  p :     0.059354
      px      :     0.012002
      py      :     0.030274
  4 H s       :     0.809439  s :     0.809439
      pz      :     0.018103  p :     0.060204
      px      :     0.028028
      py      :     0.014073
  5 C s       :     2.764654  s :     2.764654
      pz      :     1.014800  p :     3.054035
      px      :     1.009616
      py      :     1.029619
      dz2     :     0.051622  d :     0.393176
      dxz     :     0.048957
      dyz     :     0.057574
      dx2y2   :     0.092852
      dxy     :     0.142171
      f0      :     0.003178  f :     0.043063
      f+1     :     0.004529
      f-1     :     0.004581
      f+2     :     0.006795
      f-2     :     0.005420
      f+3     :     0.010965
      f-3     :     0.007596
  6 C s       :     2.768911  s :     2.768911
      pz      :     0.980130  p :     3.008727
      px      :     1.045147
      py      :     0.983451
      dz2     :     0.029844  d :     0.377413
      dxz     :     0.074514
      dyz     :     0.038941
      dx2y2   :     0.137820
      dxy     :     0.096295
      f0      :     0.004047  f :     0.041192
      f+1     :     0.005340
      f-1     :     0.001626
      f+2     :     0.003697
      f-2     :     0.007178
      f+3     :     0.011614
      f-3     :     0.007690
  7 C s       :     2.771534  s :     2.771534
      pz      :     0.926650  p :     2.974258
      px      :     1.067558
      py      :     0.980050
      dz2     :     0.031121  d :     0.410479
      dxz     :     0.098636
      dyz     :     0.040293
      dx2y2   :     0.142038
      dxy     :     0.098391
      f0      :     0.003867  f :     0.042928
      f+1     :     0.006052
      f-1     :     0.001681
      f+2     :     0.003527
      f-2     :     0.008139
      f+3     :     0.011832
      f-3     :     0.007830
  8 H s       :     0.805293  s :     0.805293
      pz      :     0.016462  p :     0.061371
      px      :     0.025374
      py      :     0.019535
  9 C s       :     2.768177  s :     2.768177
      pz      :     0.978553  p :     3.011825
      px      :     1.000456
      py      :     1.032817
      dz2     :     0.031244  d :     0.373270
      dxz     :     0.049663
      dyz     :     0.061954
      dx2y2   :     0.117546
      dxy     :     0.112863
      f0      :     0.004043  f :     0.041207
      f+1     :     0.002085
      f-1     :     0.004923
      f+2     :     0.004605
      f-2     :     0.006424
      f+3     :     0.012121
      f-3     :     0.007005
 10 H s       :     0.804184  s :     0.804184
      pz      :     0.018769  p :     0.060396
      px      :     0.011492
      py      :     0.030134
 11 N s       :     3.184111  s :     3.184111
      pz      :     1.400282  p :     4.033425
      px      :     1.471837
      py      :     1.161307
      dz2     :     0.009255  d :     0.122452
      dxz     :     0.016471
      dyz     :     0.020035
      dx2y2   :     0.047144
      dxy     :     0.029548
      f0      :     0.001183  f :     0.011126
      f+1     :     0.000921
      f-1     :     0.000582
      f+2     :     0.000978
      f-2     :     0.001716
      f+3     :     0.003616
      f-3     :     0.002131
 12 H s       :     0.768224  s :     0.768224
      pz      :     0.036656  p :     0.111154
      px      :     0.030627
      py      :     0.043870


                      *****************************
                      * MAYER POPULATION ANALYSIS *
                      *****************************

  NA   - Mulliken gross atomic population
  ZA   - Total nuclear charge
  QA   - Mulliken gross atomic charge
  VA   - Mayer's total valence
  BVA  - Mayer's bonded valence
  FA   - Mayer's free valence

  ATOM       NA         ZA         QA         VA         BVA        FA
  0 H      0.8903     1.0000     0.1097     0.9640     0.9640     0.0000
  1 C      5.8316     6.0000     0.1684     4.1233     4.1233    -0.0000
  2 C      6.1445     6.0000    -0.1445     3.7959     3.7959    -0.0000
  3 H      0.8918     1.0000     0.1082     0.9625     0.9625    -0.0000
  4 H      0.9554     1.0000     0.0446     1.0380     1.0380    -0.0000
  5 C      6.2418     6.0000    -0.2418     3.8409     3.8409     0.0000
  6 C      6.3296     6.0000    -0.3296     3.8481     3.8481    -0.0000
  7 C      6.1370     6.0000    -0.1370     3.8886     3.8886    -0.0000
  8 H      0.8960     1.0000     0.1040     0.9662     0.9662     0.0000
  9 C      6.3224     6.0000    -0.3224     4.0528     4.0528    -0.0000
 10 H      0.9021     1.0000     0.0979     0.9672     0.9672    -0.0000
 11 N      7.6374     7.0000    -0.6374     2.9488     2.9488    -0.0000
 12 H      0.8202     1.0000     0.1798     0.9467     0.9467    -0.0000

  Mayer bond orders larger than 0.100000
B(  0-H ,  2-C ) :   0.9605 B(  1-C ,  6-C ) :   1.2222 B(  1-C ,  9-C ) :   1.2717 
B(  1-C , 11-N ) :   1.6765 B(  2-C ,  5-C ) :   1.3407 B(  2-C ,  6-C ) :   1.3797 
B(  3-H ,  7-C ) :   0.9760 B(  4-H ,  9-C ) :   1.0007 B(  5-C ,  7-C ) :   1.3524 
B(  5-C ,  8-H ) :   0.9780 B(  6-C , 10-H ) :   0.9871 B(  7-C ,  9-C ) :   1.4855 
B(  9-C , 11-N ) :   0.1012 B( 11-N , 12-H ) :   0.9560 

-------
TIMINGS
-------

Total SCF time: 0 days 0 hours 0 min 54 sec 

Total time                  ....      54.511 sec
Sum of individual times     ....      48.170 sec  ( 88.4%)

Fock matrix formation       ....      44.765 sec  ( 82.1%)
  Split-RI-J                ....       7.001 sec  ( 15.6% of F)
  XC integration            ....      22.348 sec  ( 49.9% of F)
    Basis function eval.    ....       6.176 sec  ( 27.6% of XC)
    Density eval.           ....       5.115 sec  ( 22.9% of XC)
    XC-Functional eval.     ....       0.847 sec  (  3.8% of XC)
    XC-Potential eval.      ....       6.718 sec  ( 30.1% of XC)
Diagonalization             ....       0.082 sec  (  0.2%)
Density matrix formation    ....       0.010 sec  (  0.0%)
Population analysis         ....       0.165 sec  (  0.3%)
Initial guess               ....       0.773 sec  (  1.4%)
Orbital Transformation      ....       0.000 sec  (  0.0%)
Orbital Orthonormalization  ....       0.000 sec  (  0.0%)
DIIS solution               ....       0.281 sec  (  0.5%)
SOSCF solution              ....       0.463 sec  (  0.8%)
Grid generation             ....       1.631 sec  (  3.0%)

Maximum memory used throughout the entire SCF-calculation: 95.9 MB


-------------------------------------------------------------------------------
                          DFT DISPERSION CORRECTION                            
                                                                               
                              DFTD3 V3.1  Rev 1                                
                          USING Becke-Johnson damping                          
-------------------------------------------------------------------------------
The PBE functional is recognized
Active option DFTDOPT                   ...         4   

molecular C6(AA) [au] = 2033.221392 


            DFT-D V3
 parameters
 s6 scaling factor         :     1.0000 
 a1 scaling factor         :     0.4289 
 s8 scaling factor         :     0.7875 
 a2 scaling factor         :     4.4407 
 ad hoc parameters k1-k3   :    16.0000     1.3333    -4.0000 

 Edisp/kcal,au: -7.988364755255  -0.012730268200 
 E6   /kcal   :  -5.561995008 
 E8   /kcal   :  -2.426369747 
 % E8         :  30.373797656 

-------------------------   ----------------
Dispersion correction           -0.012730268
-------------------------   ----------------


-------------------------   --------------------
FINAL SINGLE POINT ENERGY      -286.847874183162
-------------------------   --------------------

------------------------------------------------------------------------------
                         ORCA SCF GRADIENT CALCULATION
------------------------------------------------------------------------------

Gradient of the Kohn-Sham DFT energy:
Kohn-Sham wavefunction type      ... RKS
Hartree-Fock exchange scaling    ...    0.000
Number of operators              ...    1
Number of atoms                  ...   13
Basis set dimensions             ...  253
Integral neglect threshold       ... 2.5e-11
Integral primitive cutoff        ... 2.5e-12
SHARK Integral package           ... ON

Nuc. rep. gradient       (SHARK) ... done (  0.0 sec)
HCore & Overlap gradient (SHARK) ... done (  0.3 sec)
RI-J gradient            (SHARK) ... done (  2.1 sec)
Exchange-correlation gradient    ... done
Dispersion correction            ... done

------------------
CARTESIAN GRADIENT
------------------

   1   H   :    0.006030915   -0.001715652    0.002289846
   2   C   :   -0.025183069   -0.023257188    0.002928657
   3   C   :   -0.011835434   -0.010618491    0.001180239
   4   H   :    0.000029545    0.006035816   -0.002429360
   5   H   :   -0.004266815    0.000696282   -0.001388672
   6   C   :    0.012181550    0.008733503   -0.000454592
   7   C   :    0.035370158    0.005734542    0.007005743
   8   C   :   -0.013967924   -0.009189796    0.000074712
   9   H   :    0.004959637    0.003569919   -0.000130539
  10   C   :    0.011271265    0.031440592   -0.009931938
  11   H   :   -0.000543625   -0.005033044    0.001879280
  12   N   :   -0.014682270   -0.004199277   -0.002134086
  13   H   :    0.000636067   -0.002197204    0.001110709

Difference to translation invariance:
           :    0.0000000000   -0.0000000000   -0.0000000000

Difference to rotation invariance:
           :    0.0003936277   -0.0004523777    0.0002390899

Norm of the cartesian gradient     ...    0.0700555296
RMS gradient                       ...    0.0112178626
MAX gradient                       ...    0.0353701576

-------
TIMINGS
-------

Total SCF gradient time            ...       12.229 sec

One electron gradient       ....       0.308 sec  (  2.5%)
RI-J Coulomb gradient       ....       2.062 sec  ( 16.9%)
XC gradient                 ....       8.355 sec  ( 68.3%)
CPCM gradient               ....       0.542 sec  (  4.4%)
   A-Matrix (El+Nuc)        ....       0.036 sec  (  0.3%)
   Potential                ....       0.506 sec  (  4.1%)

Maximum memory used throughout the entire SCFGRAD-calculation: 99.2 MB
------------------------------------------------------------------------------
                         ORCA GEOMETRY RELAXATION STEP
------------------------------------------------------------------------------

Reading the OPT-File                    .... done
Getting information on internals        .... done
Copying old internal coords+grads       .... done
Making the new internal coordinates     .... (new redundants).... done
Validating the new internal coordinates .... (new redundants).... done
Calculating the B-matrix                .... done
Calculating the G,G- and P matrices     .... done
Transforming gradient to internals      .... done
Projecting the internal gradient        .... done
Number of atoms                         ....  13
Number of internal coordinates          ....  58
Current Energy                          ....  -286.847874183 Eh
Current gradient norm                   ....     0.070055530 Eh/bohr
Maximum allowed component of the step   ....  0.300
Current trust radius                    ....  0.300
Evaluating the initial hessian          ....  (Almloef) done
Projecting the Hessian                  .... done
Forming the augmented Hessian           .... done
Diagonalizing the augmented Hessian     .... done
Last element of RFO vector              ....  0.994928858
Lowest eigenvalues of augmented Hessian:
 -0.005565677  0.025075627  0.025162807  0.025301758  0.025496014
Length of the computed step             ....  0.101093811
The final length of the internal step   ....  0.101093811
Converting the step to cartesian space:
 Initial RMS(Int)=    0.0132742677
Transforming coordinates:
 Iter   0:  RMS(Cart)=    0.0260830600 RMS(Int)=    1.6500191637
 Iter   1:  RMS(Cart)=    0.0002094181 RMS(Int)=    0.0001246840
 Iter   2:  RMS(Cart)=    0.0000037956 RMS(Int)=    0.0000021474
 Iter   3:  RMS(Cart)=    0.0000000333 RMS(Int)=    0.0000000205
done
Storing new coordinates                 .... done

                                .--------------------.
          ----------------------|Geometry convergence|-------------------------
          Item                value                   Tolerance       Converged
          ---------------------------------------------------------------------
          RMS gradient        0.0073487293            0.0001000000      NO
          MAX gradient        0.0319965530            0.0003000000      NO
          RMS step            0.0132742677            0.0020000000      NO
          MAX step            0.0533930377            0.0040000000      NO
          ........................................................
          Max(Bonds)      0.0283      Max(Angles)    1.64
          Max(Dihed)        0.07      Max(Improp)    0.00
          ---------------------------------------------------------------------

The optimization has not yet converged - more geometry cycles are needed


    ---------------------------------------------------------------------------
                         Redundant Internal Coordinates
                            (Angstroem and degrees)

        Definition                    Value    dE/dq     Step     New-Value
    ----------------------------------------------------------------------------
     1. B(C   2,H   0)                1.0839 -0.006646  0.0094    1.0933   
     2. B(C   5,C   2)                1.3921 -0.012010  0.0098    1.4019   
     3. B(C   6,C   2)                1.3992  0.001928 -0.0017    1.3975   
     4. B(C   6,C   1)                1.4002 -0.031997  0.0283    1.4284   
     5. B(C   7,C   5)                1.3919 -0.012581  0.0103    1.4022   
     6. B(C   7,H   3)                1.0838 -0.006482  0.0092    1.0930   
     7. B(H   8,C   5)                1.0835 -0.006112  0.0086    1.0921   
     8. B(C   9,C   7)                1.3988  0.002075 -0.0018    1.3970   
     9. B(C   9,H   4)                1.0873 -0.004453  0.0064    1.0937   
    10. B(C   9,C   1)                1.3983 -0.031005  0.0272    1.4255   
    11. B(H  10,C   6)                1.0866 -0.005312  0.0076    1.0942   
    12. B(N  11,C   1)                1.3447 -0.015155  0.0120    1.3567   
    13. B(H  12,N  11)                1.0254 -0.002541  0.0032    1.0287   
    14. A(C   6,C   1,N  11)          122.48 -0.010569    1.33    123.82   
    15. A(C   6,C   1,C   9)          117.62  0.013323   -1.64    115.97   
    16. A(C   9,C   1,N  11)          119.90 -0.002753    0.31    120.21   
    17. A(C   5,C   2,C   6)          120.10 -0.004637    0.56    120.67   
    18. A(H   0,C   2,C   6)          119.43  0.001682   -0.18    119.25   
    19. A(H   0,C   2,C   5)          120.46  0.002954   -0.38    120.08   
    20. A(C   2,C   5,H   8)          120.30 -0.001568    0.29    120.59   
    21. A(C   2,C   5,C   7)          119.43  0.003261   -0.60    118.83   
    22. A(C   7,C   5,H   8)          120.27 -0.001693    0.31    120.58   
    23. A(C   1,C   6,H  10)          119.36  0.002788   -0.43    118.93   
    24. A(C   1,C   6,C   2)          121.34 -0.003577    0.55    121.89   
    25. A(C   2,C   6,H  10)          119.30  0.000789   -0.11    119.19   
    26. A(H   3,C   7,C   5)          120.55  0.003436   -0.45    120.11   
    27. A(C   5,C   7,C   9)          120.05 -0.005709    0.71    120.77   
    28. A(H   3,C   7,C   9)          119.39  0.002273   -0.26    119.13   
    29. A(H   4,C   9,C   7)          119.73  0.000419   -0.06    119.67   
    30. A(C   1,C   9,C   7)          121.46 -0.002661    0.42    121.88   
    31. A(C   1,C   9,H   4)          118.81  0.002242   -0.35    118.46   
    32. A(C   1,N  11,H  12)          107.97  0.000052   -0.01    107.97   
    33. D(C   7,C   5,C   2,H   0)   -180.00  0.000012   -0.02   -180.02   
    34. D(C   7,C   5,C   2,C   6)      0.00 -0.000005    0.01      0.01   
    35. D(H   8,C   5,C   2,H   0)      0.00 -0.000016    0.03      0.03   
    36. D(H   8,C   5,C   2,C   6)   -180.00 -0.000032    0.06   -179.94   
    37. D(C   2,C   6,C   1,N  11)    180.00  0.000010   -0.02    179.98   
    38. D(H  10,C   6,C   1,C   9)    180.00  0.000021   -0.04    179.96   
    39. D(C   1,C   6,C   2,H   0)   -180.00 -0.000016    0.03   -179.97   
    40. D(H  10,C   6,C   2,H   0)      0.00 -0.000020    0.04      0.04   
    41. D(C   1,C   6,C   2,C   5)      0.00  0.000001   -0.00     -0.00   
    42. D(C   2,C   6,C   1,C   9)     -0.00  0.000017   -0.03     -0.03   
    43. D(H  10,C   6,C   2,C   5)    180.00 -0.000003    0.01    180.01   
    44. D(H  10,C   6,C   1,N  11)     -0.00  0.000014   -0.03     -0.03   
    45. D(C   9,C   7,C   5,C   2)     -0.00 -0.000010    0.02      0.02   
    46. D(H   3,C   7,C   5,H   8)     -0.00  0.000007   -0.01     -0.01   
    47. D(H   3,C   7,C   5,C   2)    180.00 -0.000020    0.04    180.04   
    48. D(C   9,C   7,C   5,H   8)    180.00  0.000018   -0.03    179.97   
    49. D(H   4,C   9,C   7,C   5)   -180.00 -0.000006    0.01   -179.99   
    50. D(C   1,C   9,C   7,C   5)     -0.00  0.000028   -0.05     -0.05   
    51. D(C   1,C   9,C   7,H   3)    180.00  0.000039   -0.07    179.93   
    52. D(C   7,C   9,C   1,N  11)   -180.00 -0.000025    0.05   -179.95   
    53. D(C   7,C   9,C   1,C   6)      0.00 -0.000031    0.06      0.06   
    54. D(H   4,C   9,C   7,H   3)     -0.00  0.000005   -0.01     -0.01   
    55. D(H   4,C   9,C   1,N  11)      0.00  0.000009   -0.02     -0.02   
    56. D(H   4,C   9,C   1,C   6)   -180.00  0.000002   -0.00   -180.00   
    57. D(H  12,N  11,C   1,C   9)    179.99  0.000011   -0.02    179.98   
    58. D(H  12,N  11,C   1,C   6)     -0.00  0.000018   -0.03     -0.03   
    ----------------------------------------------------------------------------

         *************************************************************
         *                GEOMETRY OPTIMIZATION CYCLE   2            *
         *************************************************************
---------------------------------
CARTESIAN COORDINATES (ANGSTROEM)
---------------------------------
  H     -3.604233    3.402907   -1.067461
  C     -0.263169    3.441014   -0.203027
  C     -2.655280    3.035468   -0.667643
  H     -1.257585    0.300766    0.812425
  H      0.733920    1.760794    0.743819
  C     -2.574609    1.746625   -0.122039
  C     -1.530468    3.863801   -0.708616
  C     -1.344346    1.302067    0.382864
  H     -3.454182    1.099941   -0.091509
  C     -0.216773    2.125885    0.345080
  H     -1.620869    4.865426   -1.139803
  N      0.853081    4.211900   -0.223313
  H      0.608625    5.112940   -0.655219

----------------------------
CARTESIAN COORDINATES (A.U.)
----------------------------
  NO LB      ZA    FRAG     MASS         X           Y           Z
   0 H     1.0000    0     1.008   -6.811013    6.430562   -2.017209
   1 C     6.0000    0    12.011   -0.497317    6.502574   -0.383666
   2 C     6.0000    0    12.011   -5.017752    5.736204   -1.261663
   3 H     1.0000    0     1.008   -2.376492    0.568365    1.535261
   4 H     1.0000    0     1.008    1.386908    3.327419    1.405614
   5 C     6.0000    0    12.011   -4.865306    3.300643   -0.230620
   6 C     6.0000    0    12.011   -2.892166    7.301527   -1.339090
   7 C     6.0000    0    12.011   -2.540445    2.460551    0.723509
   8 H     1.0000    0     1.008   -6.527458    2.078586   -0.172928
   9 C     6.0000    0    12.011   -0.409642    4.017340    0.652106
  10 H     1.0000    0     1.008   -3.062999    9.194323   -2.153915
  11 N     7.0000    0    14.007    1.612090    7.959337   -0.422001
  12 H     1.0000    0     1.008    1.150135    9.662056   -1.238184

--------------------------------
INTERNAL COORDINATES (ANGSTROEM)
--------------------------------
 H      0   0   0     0.000000000000     0.00000000     0.00000000
 C      1   0   0     3.451290432132     0.00000000     0.00000000
 C      1   2   0     1.093332758349    21.85844807     0.00000000
 H      3   1   2     3.409215407090   141.64443209   180.08675595
 H      2   1   3     2.171138772954   123.04276844     0.03230810
 C      3   1   2     1.401894580118   120.08193291   180.05818539
 C      3   1   2     1.397503673639   119.25291236     0.02761543
 C      4   3   1     1.093002367985    20.27926885   180.02126563
 H      6   3   1     1.092145452658   120.59114838     0.02839264
 C      5   2   1     1.093664316253    35.25877853   359.97340639
 H      7   3   1     1.094233107481   119.18407952     0.03733840
 N      2   1   3     1.356720531211   143.03547313   180.01023016
 H     12   2   1     1.028676106493   107.96607816     0.00000000

---------------------------
INTERNAL COORDINATES (A.U.)
---------------------------
 H      0   0   0     0.000000000000     0.00000000     0.00000000
 C      1   0   0     6.521993725352     0.00000000     0.00000000
 C      1   2   0     2.066099486524    21.85844807     0.00000000
 H      3   1   2     6.442483450945   141.64443209   180.08675595
 H      2   1   3     4.102857679621   123.04276844     0.03230810
 C      3   1   2     2.649196825052   120.08193291   180.05818539
 C      3   1   2     2.640899214326   119.25291236     0.02761543
 C      4   3   1     2.065475139220    20.27926885   180.02126563
 H      6   3   1     2.063855803932   120.59114838     0.02839264
 C      5   2   1     2.066726040161    35.25877853   359.97340639
 H      7   3   1     2.067800899810   119.18407952     0.03733840
 N      2   1   3     2.563830244257   143.03547313   180.01023016
 H     12   2   1     1.943916121780   107.96607816     0.00000000

------------------------------------------------------------------------------
                   ___                                                        
                  /   \      - P O W E R E D   B Y -                         
                 /     \                                                     
                 |  |  |   _    _      __       _____    __    __             
                 |  |  |  | |  | |    /  \     |  _  \  |  |  /  |          
                  \  \/   | |  | |   /    \    | | | |  |  | /  /          
                 / \  \   | |__| |  /  /\  \   | |_| |  |  |/  /          
                |  |  |   |  __  | /  /__\  \  |    /   |      \           
                |  |  |   | |  | | |   __   |  |    \   |  |\   \          
                \     /   | |  | | |  |  |  |  | |\  \  |  | \   \       
                 \___/    |_|  |_| |__|  |__|  |_| \__\ |__|  \__/        
                                                                              
                      - O R C A' S   B I G   F R I E N D -                    
                                      &                                       
                       - I N T E G R A L  F E E D E R -                       
                                                                              
[...]
 195   0.0000       3.436029        93.4991 
 196   0.0000       3.439484        93.5931 
 197   0.0000       3.512843        95.5893 
 198   0.0000       3.549816        96.5954 
 199   0.0000       3.598734        97.9265 
 200   0.0000       3.647971        99.2663 
 201   0.0000       3.648980        99.2938 
 202   0.0000       3.662661        99.6661 
 203   0.0000       3.734972       101.6338 
 204   0.0000       3.770642       102.6044 
 205   0.0000       3.841164       104.5234 
 206   0.0000       3.894722       105.9808 
 207   0.0000       3.897645       106.0603 
 208   0.0000       3.924768       106.7984 
 209   0.0000       3.944454       107.3340 
 210   0.0000       3.950723       107.5046 
 211   0.0000       3.987106       108.4947 
 212   0.0000       4.000724       108.8652 
 213   0.0000       4.027681       109.5988 
 214   0.0000       4.069982       110.7498 
 215   0.0000       4.125589       112.2630 
 216   0.0000       4.162717       113.2733 
 217   0.0000       4.174486       113.5935 
 218   0.0000       4.192055       114.0716 
 219   0.0000       4.202679       114.3607 
 220   0.0000       4.211270       114.5945 
 221   0.0000       4.329444       117.8102 
 222   0.0000       4.352718       118.4435 
 223   0.0000       4.452753       121.1656 
 224   0.0000       4.534085       123.3787 
 225   0.0000       4.575764       124.5129 
 226   0.0000       4.606750       125.3560 
 227   0.0000       4.609008       125.4175 
 228   0.0000       4.661101       126.8350 
 229   0.0000       4.706445       128.0689 
 230   0.0000       4.737505       128.9141 
 231   0.0000       4.774088       129.9095 
 232   0.0000       4.784808       130.2012 
 233   0.0000       4.881547       132.8336 
 234   0.0000       4.891489       133.1042 
 235   0.0000       5.003305       136.1468 
 236   0.0000       5.077006       138.1524 
 237   0.0000       5.164062       140.5213 
 238   0.0000       5.165979       140.5734 
 239   0.0000       5.169499       140.6692 
 240   0.0000       5.250246       142.8665 
 241   0.0000       5.370452       146.1374 
 242   0.0000       5.465848       148.7333 
 243   0.0000       5.527264       150.4045 
 244   0.0000       5.591549       152.1538 
 245   0.0000       5.911930       160.8718 
 246   0.0000      21.820948       593.7782 
 247   0.0000      22.291272       606.5764 
 248   0.0000      22.306991       607.0041 
 249   0.0000      22.407446       609.7376 
 250   0.0000      22.517531       612.7332 
 251   0.0000      22.902530       623.2095 
 252   0.0000      31.761400       864.2716 

                    ********************************
                    * MULLIKEN POPULATION ANALYSIS *
                    ********************************

-----------------------
MULLIKEN ATOMIC CHARGES
-----------------------
   0 H :    0.108672
   1 C :    0.134306
   2 C :   -0.138879
   3 H :    0.105752
   4 H :    0.050792
   5 C :   -0.256127
   6 C :   -0.335621
   7 C :   -0.136169
   8 H :    0.109167
   9 C :   -0.303729
  10 H :    0.096902
  11 N :   -0.621058
  12 H :    0.185992
Sum of atomic charges:   -1.0000000

--------------------------------
MULLIKEN REDUCED ORBITAL CHARGES
--------------------------------
  0 H s       :     0.869939  s :     0.869939
      pz      :     0.005963  p :     0.021389
      px      :     0.010403
      py      :     0.005023
  1 C s       :     2.998688  s :     2.998688
      pz      :     0.880405  p :     2.701668
      px      :     1.004048
      py      :     0.817215
      dz2     :     0.011997  d :     0.153017
      dxz     :     0.033954
      dyz     :     0.026321
      dx2y2   :     0.051344
      dxy     :     0.029402
      f0      :     0.001194  f :     0.012321
      f+1     :     0.001254
      f-1     :     0.001281
      f+2     :     0.000954
      f-2     :     0.002003
      f+3     :     0.003561
      f-3     :     0.002073
  2 C s       :     3.175999  s :     3.175999
      pz      :     0.982970  p :     2.862598
      px      :     0.950908
      py      :     0.928720
      dz2     :     0.007894  d :     0.093472
      dxz     :     0.015157
      dyz     :     0.019726
      dx2y2   :     0.027782
      dxy     :     0.022913
      f0      :     0.000893  f :     0.006810
      f+1     :     0.000289
      f-1     :     0.001243
      f+2     :     0.000638
      f-2     :     0.001188
      f+3     :     0.001808
      f-3     :     0.000751
  3 H s       :     0.872910  s :     0.872910
      pz      :     0.006147  p :     0.021338
      px      :     0.004014
      py      :     0.011178
  4 H s       :     0.927326  s :     0.927326
      pz      :     0.006580  p :     0.021882
      px      :     0.010322
      py      :     0.004980
  5 C s       :     3.210888  s :     3.210888
      pz      :     1.078699  p :     2.955995
      px      :     0.935172
      py      :     0.942124
      dz2     :     0.012000  d :     0.082597
      dxz     :     0.011564
      dyz     :     0.013157
      dx2y2   :     0.015498
      dxy     :     0.030376
      f0      :     0.000484  f :     0.006647
      f+1     :     0.000986
      f-1     :     0.001216
      f+2     :     0.000832
      f-2     :     0.000741
      f+3     :     0.001404
      f-3     :     0.000985
  6 C s       :     3.271022  s :     3.271022
      pz      :     1.075465  p :     2.979134
      px      :     0.907829
      py      :     0.995841
      dz2     :     0.005885  d :     0.079026
      dxz     :     0.018494
      dyz     :     0.008858
      dx2y2   :     0.029018
      dxy     :     0.016771
      f0      :     0.000924  f :     0.006438
      f+1     :     0.000816
      f-1     :     0.000422
      f+2     :     0.000636
      f-2     :     0.001053
      f+3     :     0.001547
      f-3     :     0.001040
  7 C s       :     3.186417  s :     3.186417
      pz      :     0.982690  p :     2.848913
      px      :     0.918180
      py      :     0.948043
      dz2     :     0.007122  d :     0.094052
      dxz     :     0.025816
      dyz     :     0.009415
      dx2y2   :     0.033929
      dxy     :     0.017771
      f0      :     0.000908  f :     0.006787
      f+1     :     0.001027
      f-1     :     0.000456
      f+2     :     0.000611
      f-2     :     0.001201
      f+3     :     0.001641
      f-3     :     0.000943
  8 H s       :     0.868657  s :     0.868657
      pz      :     0.005836  p :     0.022175
      px      :     0.009301
      py      :     0.007038
  9 C s       :     3.342418  s :     3.342418
      pz      :     1.059997  p :     2.875003
      px      :     0.865330
      py      :     0.949676
      dz2     :     0.006357  d :     0.079715
      dxz     :     0.012484
      dyz     :     0.014414
      dx2y2   :     0.025562
      dxy     :     0.020899
      f0      :     0.000915  f :     0.006592
      f+1     :     0.000314
      f-1     :     0.001047
      f+2     :     0.000630
      f-2     :     0.001091
      f+3     :     0.001799
      f-3     :     0.000797
 10 H s       :     0.881218  s :     0.881218
      pz      :     0.006841  p :     0.021880
      px      :     0.003866
      py      :     0.011173
 11 N s       :     3.444044  s :     3.444044
      pz      :     1.485140  p :     4.135966
      px      :     1.539925
      py      :     1.110901
      dz2     :     0.003875  d :     0.038748
      dxz     :     0.008802
      dyz     :     0.005465
      dx2y2   :     0.012018
      dxy     :     0.008587
      f0      :     0.000436  f :     0.002300
      f+1     :     0.000181
      f-1     :     0.000183
      f+2     :     0.000230
      f-2     :     0.000383
      f+3     :     0.000563
      f-3     :     0.000322
 12 H s       :     0.778617  s :     0.778617
      pz      :     0.012075  p :     0.035391
      px      :     0.008790
      py      :     0.014526


                     *******************************
                     * LOEWDIN POPULATION ANALYSIS *
                     *******************************

----------------------
LOEWDIN ATOMIC CHARGES
----------------------
   0 H :    0.139840
   1 C :   -0.374748
   2 C :   -0.209517
   3 H :    0.140326
   4 H :    0.129562
   5 C :   -0.257234
   6 C :   -0.206359
   7 C :   -0.209579
   8 H :    0.133141
   9 C :   -0.201427
  10 H :    0.133879
  11 N :   -0.343919
  12 H :    0.126036

-------------------------------
LOEWDIN REDUCED ORBITAL CHARGES
-------------------------------
  0 H s       :     0.802371  s :     0.802371
      pz      :     0.016097  p :     0.057789
      px      :     0.027633
      py      :     0.014059
  1 C s       :     2.738714  s :     2.738714
      pz      :     0.878001  p :     2.880558
      px      :     1.014514
      py      :     0.988043
      dz2     :     0.057960  d :     0.680742
      dxz     :     0.138118
      dyz     :     0.100890
      dx2y2   :     0.218018
      dxy     :     0.165755
      f0      :     0.006011  f :     0.074734
      f+1     :     0.006946
      f-1     :     0.005737
      f+2     :     0.006523
      f-2     :     0.013275
      f+3     :     0.023613
      f-3     :     0.012630
  2 C s       :     2.777176  s :     2.777176
      pz      :     0.929897  p :     2.978067
      px      :     1.003497
      py      :     1.044673
      dz2     :     0.035098  d :     0.412183
      dxz     :     0.057043
      dyz     :     0.080448
      dx2y2   :     0.123753
      dxy     :     0.115842
      f0      :     0.003990  f :     0.042091
      f+1     :     0.002085
      f-1     :     0.005398
      f+2     :     0.004959
      f-2     :     0.006582
      f+3     :     0.012208
      f-3     :     0.006869
  3 H s       :     0.801957  s :     0.801957
      pz      :     0.016558  p :     0.057717
      px      :     0.011502
      py      :     0.029657
  4 H s       :     0.810813  s :     0.810813
      pz      :     0.017938  p :     0.059625
      px      :     0.027587
      py      :     0.014100
  5 C s       :     2.774205  s :     2.774205
      pz      :     1.023446  p :     3.062928
      px      :     1.010416
      py      :     1.029066
      dz2     :     0.049008  d :     0.378950
      dxz     :     0.047668
      dyz     :     0.055263
      dx2y2   :     0.089935
      dxy     :     0.137075
      f0      :     0.003108  f :     0.041152
      f+1     :     0.004375
      f-1     :     0.004368
      f+2     :     0.006602
      f-2     :     0.004991
      f+3     :     0.010411
      f-3     :     0.007295
  6 C s       :     2.781778  s :     2.781778
      pz      :     0.989782  p :     3.020713
      px      :     1.041142
      py      :     0.989789
      dz2     :     0.027626  d :     0.365373
      dxz     :     0.071840
      dyz     :     0.038112
      dx2y2   :     0.135999
      dxy     :     0.091795
      f0      :     0.003953  f :     0.038496
      f+1     :     0.004939
      f-1     :     0.001531
      f+2     :     0.003417
      f-2     :     0.006629
      f+3     :     0.010468
      f-3     :     0.007559
  7 C s       :     2.776770  s :     2.776770
      pz      :     0.928493  p :     2.978832
      px      :     1.068952
      py      :     0.981388
      dz2     :     0.030758  d :     0.411930
      dxz     :     0.100201
      dyz     :     0.039943
      dx2y2   :     0.142715
      dxy     :     0.098312
      f0      :     0.003850  f :     0.042047
      f+1     :     0.005961
      f-1     :     0.001626
      f+2     :     0.003483
      f-2     :     0.007838
      f+3     :     0.011435
      f-3     :     0.007854
  8 H s       :     0.805990  s :     0.805990
      pz      :     0.016218  p :     0.060870
      px      :     0.025241
      py      :     0.019411
  9 C s       :     2.780438  s :     2.780438
      pz      :     0.985244  p :     3.019892
      px      :     1.009295
      py      :     1.025353
      dz2     :     0.029175  d :     0.362498
      dxz     :     0.049213
      dyz     :     0.059386
      dx2y2   :     0.117204
      dxy     :     0.107519
      f0      :     0.003964  f :     0.038598
      f+1     :     0.002112
      f-1     :     0.004385
      f+2     :     0.004281
      f-2     :     0.005944
      f+3     :     0.011331
      f-3     :     0.006581
 10 H s       :     0.806550  s :     0.806550
      pz      :     0.018571  p :     0.059571
      px      :     0.011214
      py      :     0.029786
 11 N s       :     3.194270  s :     3.194270
      pz      :     1.386456  p :     4.018281
      px      :     1.468134
      py      :     1.163691
      dz2     :     0.009344  d :     0.120538
      dxz     :     0.016282
      dyz     :     0.019188
      dx2y2   :     0.046058
      dxy     :     0.029667
      f0      :     0.001146  f :     0.010829
      f+1     :     0.000946
      f-1     :     0.000564
      f+2     :     0.000998
      f-2     :     0.001609
      f+3     :     0.003386
      f-3     :     0.002180
 12 H s       :     0.764197  s :     0.764197
      pz      :     0.035709  p :     0.109766
      px      :     0.030095
      py      :     0.043963


                      *****************************
                      * MAYER POPULATION ANALYSIS *
                      *****************************

  NA   - Mulliken gross atomic population
  ZA   - Total nuclear charge
  QA   - Mulliken gross atomic charge
  VA   - Mayer's total valence
  BVA  - Mayer's bonded valence
  FA   - Mayer's free valence

  ATOM       NA         ZA         QA         VA         BVA        FA
  0 H      0.8913     1.0000     0.1087     0.9630     0.9630    -0.0000
  1 C      5.8657     6.0000     0.1343     4.1565     4.1565    -0.0000
  2 C      6.1389     6.0000    -0.1389     3.8017     3.8017     0.0000
  3 H      0.8942     1.0000     0.1058     0.9613     0.9613    -0.0000
  4 H      0.9492     1.0000     0.0508     1.0260     1.0260    -0.0000
  5 C      6.2561     6.0000    -0.2561     3.8327     3.8327     0.0000
  6 C      6.3356     6.0000    -0.3356     3.8141     3.8141    -0.0000
  7 C      6.1362     6.0000    -0.1362     3.8922     3.8922    -0.0000
  8 H      0.8908     1.0000     0.1092     0.9672     0.9672     0.0000
  9 C      6.3037     6.0000    -0.3037     4.0072     4.0072    -0.0000
 10 H      0.9031     1.0000     0.0969     0.9680     0.9680    -0.0000
 11 N      7.6211     7.0000    -0.6211     2.9618     2.9618     0.0000
 12 H      0.8140     1.0000     0.1860     0.9429     0.9429    -0.0000

  Mayer bond orders larger than 0.100000
B(  0-H ,  2-C ) :   0.9566 B(  1-C ,  6-C ) :   1.1911 B(  1-C ,  9-C ) :   1.2482 
B(  1-C , 11-N ) :   1.7352 B(  2-C ,  5-C ) :   1.3348 B(  2-C ,  6-C ) :   1.4019 
B(  3-H ,  7-C ) :   0.9720 B(  4-H ,  9-C ) :   0.9895 B(  5-C ,  7-C ) :   1.3391 
B(  5-C ,  8-H ) :   0.9772 B(  6-C , 10-H ) :   0.9798 B(  7-C ,  9-C ) :   1.5126 
B( 11-N , 12-H ) :   0.9482 

-------
TIMINGS
-------

Total SCF time: 0 days 0 hours 0 min 25 sec 

Total time                  ....      25.330 sec
Sum of individual times     ....      22.482 sec  ( 88.8%)

Fock matrix formation       ....      21.267 sec  ( 84.0%)
  Split-RI-J                ....       2.908 sec  ( 13.7% of F)
  XC integration            ....      10.231 sec  ( 48.1% of F)
    Basis function eval.    ....       2.698 sec  ( 26.4% of XC)
    Density eval.           ....       2.158 sec  ( 21.1% of XC)
    XC-Functional eval.     ....       0.375 sec  (  3.7% of XC)
    XC-Potential eval.      ....       1.914 sec  ( 18.7% of XC)
Diagonalization             ....       0.013 sec  (  0.0%)
Density matrix formation    ....       0.005 sec  (  0.0%)
Population analysis         ....       0.164 sec  (  0.6%)
Initial guess               ....       0.014 sec  (  0.1%)
Orbital Transformation      ....       0.000 sec  (  0.0%)
Orbital Orthonormalization  ....       0.011 sec  (  0.0%)
DIIS solution               ....       0.003 sec  (  0.0%)
SOSCF solution              ....       0.229 sec  (  0.9%)
Grid generation             ....       0.788 sec  (  3.1%)

Maximum memory used throughout the entire SCF-calculation: 95.5 MB


-------------------------------------------------------------------------------
                          DFT DISPERSION CORRECTION                            
                                                                               
                              DFTD3 V3.1  Rev 1                                
                          USING Becke-Johnson damping                          
-------------------------------------------------------------------------------
The PBE functional is recognized
Active option DFTDOPT                   ...         4   

molecular C6(AA) [au] = 2038.473555 


            DFT-D V3
 parameters
 s6 scaling factor         :     1.0000 
 a1 scaling factor         :     0.4289 
 s8 scaling factor         :     0.7875 
 a2 scaling factor         :     4.4407 
 ad hoc parameters k1-k3   :    16.0000     1.3333    -4.0000 

 Edisp/kcal,au: -7.919805556393  -0.012621012174 
 E6   /kcal   :  -5.513076216 
 E8   /kcal   :  -2.406729340 
 % E8         :  30.388742793 

-------------------------   ----------------
Dispersion correction           -0.012621012
-------------------------   ----------------


-------------------------   --------------------
FINAL SINGLE POINT ENERGY      -286.852090824841
-------------------------   --------------------

                                *** OPTIMIZATION RUN DONE ***

                            ***************************************
                            *     ORCA property calculations      *
                            ***************************************

                                    ---------------------
                                    Active property flags
                                    ---------------------
   (+) Dipole Moment


------------------------------------------------------------------------------
                       ORCA ELECTRIC PROPERTIES CALCULATION
------------------------------------------------------------------------------

Dipole Moment Calculation                       ... on
Quadrupole Moment Calculation                   ... off
Polarizability Calculation                      ... off
GBWName                                         ... inp.gbw
Electron density                                ... inp.scfp
The origin for moment calculation is the CENTER OF MASS  = (-2.045931,  5.376692 -0.332993)

-------------
DIPOLE MOMENT
-------------
                                X             Y             Z
Electronic contribution:     -0.16065      -0.28724       0.07648
Nuclear contribution   :     -1.96323      -0.49498      -0.31908
                        -----------------------------------------
Total Dipole Moment    :     -2.12389      -0.78222      -0.24260
                        -----------------------------------------
Magnitude (a.u.)       :      2.27631
Magnitude (Debye)      :      5.78593



--------------------
Rotational spectrum 
--------------------
 
Rotational constants in cm-1:     0.187969     0.088596     0.060215 
Rotational constants in MHz :  5635.160066  2656.051348  1805.198152 

 Dipole components along the rotational axes: 
x,y,z [a.u.] :    -2.162190     0.711715    -0.001954 
x,y,z [Debye]:    -5.495850     1.809036    -0.004966 

 

Timings for individual modules:

Sum of individual times         ...      319.415 sec (=   5.324 min)
GTO integral calculation        ...        9.500 sec (=   0.158 min)   3.0 %
SCF iterations                  ...      231.681 sec (=   3.861 min)  72.5 %
SCF Gradient evaluation         ...       74.477 sec (=   1.241 min)  23.3 %
Geometry relaxation             ...        3.757 sec (=   0.063 min)   1.2 %
                             ****ORCA TERMINATED NORMALLY****
TOTAL RUN TIME: 0 days 0 hours 5 minutes 27 seconds 15 msec
