 Entering Gaussian System
 *********************************************
 Gaussian 98:
 frequency output generated by the xtb code
 *********************************************
                         Standard orientation:
 --------------------------------------------------------------------
  Center     Atomic     Atomic              Coordinates (Angstroms)
  Number     Number      Type              X           Y           Z
 --------------------------------------------------------------------
    1          6             0       -7.043587   -4.578799    1.589833
    2          6             0       -8.047371   -3.415792    1.575395
    3          8             0       -7.523960   -5.723498    0.996456
    4          1             0       -6.115394   -4.231094    1.091017
    5          1             0       -6.791933   -4.853900    2.632607
    6          8             0       -7.724113   -5.471744   -0.412252
    7          1             0       -8.381372   -3.320370    0.544412
    8          1             0       -8.906511   -3.645346    2.204412
    9          1             0       -7.585138   -2.486352    1.911944
 --------------------------------------------------------------------
     1 basis functions        1 primitive gaussians
     1 alpha electrons        1 beta electrons
 
 Harmonic frequencies (cm**-1), IR intensities (km*mol⁻¹),
 Raman scattering activities (A**4/amu), Raman depolarization ratios,
 reduced masses (AMU), force constants (mDyne/A) and normal coordinates:
                      1                      2                      3
                        a                      a                      a 
 Frequencies --   122.8241               201.0565               332.6393
 Red. masses --    11.2095                 2.5936                10.5525
 Frc consts  --     0.0000                 0.0000                 0.0000
 IR Inten    --     9.6834                 2.2740                16.1080
 Raman Activ --     0.0000                 0.0000                 0.0000
 Depolar     --     0.0000                 0.0000                 0.0000
 Atom AN      X      Y      Z        X      Y      Z        X      Y      Z
   1   6     0.02  -0.12   0.26     0.02   0.05  -0.01     0.23  -0.03  -0.24
   2   6     0.01  -0.16  -0.40     0.03   0.05  -0.04    -0.03  -0.30  -0.19
   3   8     0.34  -0.13  -0.01     0.18  -0.00  -0.01    -0.38  -0.01   0.26
   4   1     0.09  -0.03   0.22     0.03   0.04   0.05    -0.04  -0.06  -0.29
   5   1    -0.15  -0.04   0.11    -0.04   0.01   0.01     0.25   0.10  -0.08
   6   8    -0.35   0.44   0.19    -0.23  -0.12   0.03     0.19   0.38   0.24
   7   1     0.07  -0.23  -0.16     0.38   0.40  -0.09     0.06  -0.06  -0.07
   8   1    -0.03   0.03  -0.13    -0.23  -0.23  -0.42    -0.03  -0.25  -0.15
   9   1    -0.03   0.01  -0.23    -0.12  -0.11   0.52    -0.15  -0.06   0.06
                      4                      5                      6
                        a                      a                      a 
 Frequencies --   471.2176               808.0495               920.8407
 Red. masses --    10.9793                 2.6410                 9.0833
 Frc consts  --     0.0000                 0.0000                 0.0000
 IR Inten    --     5.0762                 3.7158                 3.7594
 Raman Activ --     0.0000                 0.0000                 0.0000
 Depolar     --     0.0000                 0.0000                 0.0000
 Atom AN      X      Y      Z        X      Y      Z        X      Y      Z
   1   6    -0.33  -0.12  -0.29     0.04   0.00  -0.28     0.35  -0.02   0.15
   2   6    -0.05   0.26  -0.01     0.03  -0.04  -0.17    -0.12   0.48   0.04
   3   8     0.23  -0.52   0.06    -0.01   0.07   0.04    -0.09  -0.45  -0.00
   4   1    -0.16  -0.01  -0.20     0.28  -0.18   0.29     0.11  -0.17   0.00
   5   1     0.02   0.10  -0.07    -0.45   0.06   0.07     0.04   0.03   0.05
   6   8     0.10   0.26   0.23     0.02   0.02   0.14    -0.02   0.05  -0.18
   7   1    -0.07   0.26   0.04    -0.38   0.27   0.12    -0.09  -0.03   0.02
   8   1    -0.01   0.21   0.06     0.26  -0.32   0.20     0.02  -0.16  -0.02
   9   1     0.22  -0.06   0.05    -0.02  -0.06   0.13    -0.41   0.32  -0.01
                      7                      8                      9
                        a                      a                      a 
 Frequencies --   963.4032              1045.4540              1105.0193
 Red. masses --    12.0253                 9.7076                10.4017
 Frc consts  --     0.0000                 0.0000                 0.0000
 IR Inten    --    13.2145                23.5407                39.2877
 Raman Activ --     0.0000                 0.0000                 0.0000
 Depolar     --     0.0000                 0.0000                 0.0000
 Atom AN      X      Y      Z        X      Y      Z        X      Y      Z
   1   6     0.06  -0.18  -0.21    -0.39   0.49   0.04     0.31   0.28   0.37
   2   6    -0.07   0.19   0.10     0.44  -0.11   0.09    -0.15  -0.12  -0.17
   3   8    -0.04   0.15  -0.46    -0.04  -0.25  -0.23    -0.22  -0.20  -0.46
   4   1     0.05   0.02   0.04    -0.10   0.01  -0.05    -0.01   0.10  -0.01
   5   1    -0.05  -0.35  -0.12    -0.09   0.14   0.00     0.11   0.20   0.09
   6   8     0.10  -0.09   0.62     0.03  -0.01   0.13     0.02  -0.05   0.22
   7   1     0.08  -0.12  -0.03     0.10  -0.23   0.00    -0.12   0.25   0.02
   8   1    -0.08   0.03  -0.07     0.16  -0.29  -0.01     0.01   0.13   0.08
   9   1    -0.16   0.15  -0.06    -0.18   0.12  -0.01     0.24  -0.20   0.07
                     10                     11                     12
                        a                      a                      a 
 Frequencies --  1174.2825              1285.3887              1336.5068
 Red. masses --     7.2531                 3.0604                 3.1569
 Frc consts  --     0.0000                 0.0000                 0.0000
 IR Inten    --    14.8097                12.9639                21.7617
 Raman Activ --     0.0000                 0.0000                 0.0000
 Depolar     --     0.0000                 0.0000                 0.0000
 Atom AN      X      Y      Z        X      Y      Z        X      Y      Z
   1   6     0.24   0.33  -0.36     0.01  -0.18  -0.05    -0.03   0.28   0.07
   2   6    -0.11  -0.13   0.28    -0.06  -0.03   0.20    -0.27   0.16  -0.04
   3   8    -0.14  -0.28   0.12     0.08   0.18  -0.18     0.07   0.00   0.03
   4   1     0.22   0.12   0.28     0.07  -0.49  -0.18     0.10  -0.55  -0.18
   5   1    -0.31   0.01  -0.02    -0.15   0.66   0.22     0.02  -0.33  -0.10
   6   8     0.01   0.05  -0.06    -0.01  -0.05   0.07    -0.00  -0.00  -0.02
   7   1     0.24  -0.15  -0.04     0.12  -0.10  -0.01     0.19  -0.25  -0.11
   8   1    -0.21   0.27  -0.08    -0.13   0.11  -0.06     0.11  -0.18   0.12
   9   1     0.12  -0.05  -0.10    -0.01   0.03  -0.06     0.33  -0.23   0.14
                     13                     14                     15
                        a                      a                      a 
 Frequencies --  1357.8352              1458.1087              1481.4355
 Red. masses --     3.0730                 1.8487                 1.6262
 Frc consts  --     0.0000                 0.0000                 0.0000
 IR Inten    --    40.2763                18.0757                 2.4735
 Raman Activ --     0.0000                 0.0000                 0.0000
 Depolar     --     0.0000                 0.0000                 0.0000
 Atom AN      X      Y      Z        X      Y      Z        X      Y      Z
   1   6    -0.02   0.25   0.07     0.25  -0.03   0.09     0.03  -0.02   0.05
   2   6     0.13  -0.31   0.03     0.03   0.01  -0.04    -0.13   0.01   0.19
   3   8     0.07   0.01   0.04     0.02   0.02   0.04     0.00   0.00   0.00
   4   1     0.05  -0.43  -0.19    -0.36   0.19  -0.52    -0.07   0.05  -0.07
   5   1    -0.03  -0.32  -0.08    -0.66  -0.14   0.11    -0.07  -0.03   0.02
   6   8    -0.01   0.01  -0.01    -0.01   0.00  -0.02    -0.00   0.00  -0.00
   7   1    -0.20   0.39   0.11     0.01  -0.08  -0.01     0.20   0.38  -0.01
   8   1    -0.19   0.33  -0.12     0.04   0.03   0.06     0.02  -0.47  -0.13
   9   1    -0.25   0.16  -0.16    -0.03  -0.02   0.11     0.27   0.10  -0.64
                     16                     17                     18
                        a                      a                      a 
 Frequencies --  1501.4268              2725.7404              2777.4803
 Red. masses --     1.6260                 1.8285                 1.4755
 Frc consts  --     0.0000                 0.0000                 0.0000
 IR Inten    --     3.4741               177.1043               212.2767
 Raman Activ --     0.0000                 0.0000                 0.0000
 Depolar     --     0.0000                 0.0000                 0.0000
 Atom AN      X      Y      Z        X      Y      Z        X      Y      Z
   1   6     0.03   0.03   0.02     0.16   0.08  -0.20    -0.11   0.05  -0.16
   2   6     0.15   0.15   0.09     0.00  -0.01  -0.00    -0.00   0.01   0.00
   3   8    -0.00  -0.00  -0.01     0.01   0.02  -0.00    -0.01  -0.02  -0.02
   4   1    -0.01  -0.01  -0.02    -0.75  -0.27   0.42     0.27   0.12  -0.20
   5   1    -0.02  -0.03   0.00     0.11  -0.08   0.30     0.18  -0.24   0.86
   6   8     0.00   0.00   0.00    -0.00  -0.00   0.00    -0.00  -0.00  -0.00
   7   1    -0.56  -0.26   0.17    -0.01   0.00  -0.01    -0.01   0.00  -0.02
   8   1    -0.34  -0.17  -0.54     0.03   0.00  -0.02     0.00   0.00  -0.00
   9   1     0.30  -0.13   0.00     0.01   0.02   0.01    -0.01  -0.02  -0.01
                     19                     20                     21
                        a                      a                      a 
 Frequencies --  2964.5267              3002.4851              3027.4277
 Red. masses --     1.6849                 1.7034                 1.7343
 Frc consts  --     0.0000                 0.0000                 0.0000
 IR Inten    --   127.8493                78.5237                10.6149
 Raman Activ --     0.0000                 0.0000                 0.0000
 Depolar     --     0.0000                 0.0000                 0.0000
 Atom AN      X      Y      Z        X      Y      Z        X      Y      Z
   1   6     0.01   0.01   0.00     0.01   0.00  -0.01    -0.01   0.01  -0.01
   2   6     0.11   0.21   0.06     0.19   0.05  -0.15    -0.08   0.01  -0.24
   3   8    -0.00   0.00  -0.00    -0.00  -0.00   0.00    -0.00  -0.00  -0.00
   4   1    -0.02  -0.01   0.01    -0.02  -0.01   0.01     0.00  -0.00  -0.00
   5   1    -0.00   0.00  -0.01     0.00  -0.00   0.01     0.00  -0.01   0.02
   6   8    -0.00  -0.00  -0.00    -0.00  -0.00  -0.00    -0.00   0.00   0.00
   7   1     0.04   0.03   0.06     0.03   0.01  -0.01     0.29  -0.09   0.91
   8   1    -0.00   0.03   0.03    -0.75  -0.22   0.56     0.00   0.00  -0.04
   9   1    -0.43  -0.81  -0.30     0.04   0.03  -0.02     0.01   0.04  -0.01
