9
 energy: -15.043743742363 gnorm: 0.000276385543 xtb: 6.7.1 (edcfbbe)
C           -7.04358637988138       -4.57879811697904        1.58983289120379
C           -8.04737066064731       -3.41579184482341        1.57539493786023
O           -7.52395953023811       -5.72349735801271        0.99645604565826
H           -6.11539306882369       -4.23109359021378        1.09101739461708
H           -6.79193246855904       -4.85389976641940        2.63260661610049
O           -7.72411249449363       -5.47174381199510       -0.41225179033617
H           -8.38137149274110       -3.32036920300584        0.54441185849117
H           -8.90650984639366       -3.64534539024403        2.20441195105452
H           -7.58513724207636       -2.48635206957504        1.91194372269201
