9
 energy: -15.039809118600 gnorm: 0.054267895041 xtb: 6.7.1 (edcfbbe)
C           -7.04600200000000       -4.55272200000000        1.55869100000000
C           -8.04366800000000       -3.40985800000000        1.58447900000000
O           -7.65247100000000       -5.72799700000000        1.02923500000000
H           -6.14868500000000       -4.28703500000000        0.98743700000000
H           -6.72769700000000       -4.78262800000000        2.58065200000000
O           -7.58724800000000       -5.59982300000000       -0.36998200000000
H           -8.36782900000000       -3.15091400000000        0.57126800000000
H           -8.94102600000000       -3.69441100000000        2.14373200000000
H           -7.60459200000000       -2.52188100000000        2.04800800000000
9
 energy: -15.042619634280 gnorm: 0.026314509046 xtb: 6.7.1 (edcfbbe)
C           -7.05750201615494       -4.55806692133208        1.56956505481389
C           -8.04401588515072       -3.39543172374372        1.59215657263293
O           -7.60402958135164       -5.73259455154782        1.02327491117100
H           -6.17184936661481       -4.27132881145101        0.98530616238372
H           -6.74151603025164       -4.79810556862781        2.60007965811440
O           -7.61397541452596       -5.61451533222790       -0.40286132863751
H           -8.34539184834842       -3.17293728175149        0.56799444950136
H           -8.93472604676627       -3.68404825566611        2.15238741211299
H           -7.60621181083559       -2.50024055365205        2.04561710790722
9
 energy: -15.043321607963 gnorm: 0.009756161244 xtb: 6.7.1 (edcfbbe)
C           -7.05345727725608       -4.56331631039960        1.57144979268344
C           -8.04903311922343       -3.39673181862022        1.58953010111123
O           -7.57410710971903       -5.72817123366155        1.03049849846559
H           -6.16163280895279       -4.25535455490946        0.99848033933952
H           -6.75045532410372       -4.81407742758879        2.60731699063913
O           -7.64886535952582       -5.59684893130639       -0.40984940556867
H           -8.33860735178785       -3.19520611965657        0.56067126119430
H           -8.93823828032964       -3.67594267565711        2.15307079447113
H           -7.60482136910165       -2.50161992820031        2.03235162766434
9
 energy: -15.043504843097 gnorm: 0.006406474605 xtb: 6.7.1 (edcfbbe)
C           -7.05355522735409       -4.57068223870966        1.57134801309630
C           -8.05033683320124       -3.39966566703437        1.58549033464892
O           -7.56154428911951       -5.72904619108065        1.02959361003259
H           -6.15263971804330       -4.24452938558128        1.01695858695334
H           -6.75914835274794       -4.82113373799838        2.61037221654635
O           -7.66453484817450       -5.57545618646200       -0.41071653255853
H           -8.34649000554192       -3.21421657776749        0.55645345926584
H           -8.93393823390467       -3.67035287388111        2.16113730699930
H           -7.59703049191283       -2.50218614148506        2.01288300501590
9
 energy: -15.043598967734 gnorm: 0.005134844112 xtb: 6.7.1 (edcfbbe)
C           -7.05373341201643       -4.57662386130801        1.57252529427321
C           -8.05106589343528       -3.40348047639899        1.58239490849141
O           -7.55542656525266       -5.72830541013360        1.02262390864738
H           -6.14339944684005       -4.24062123245712        1.03558874437813
H           -6.76781936145406       -4.82620620021715        2.61432456418330
O           -7.67096759204585       -5.55263159366196       -0.41179113436626
H           -8.36109366210355       -3.23595254514035        0.55399643107350
H           -8.92746947748695       -3.66251239673672        2.17547883391040
H           -7.58824258936515       -2.50093528394609        1.98837844940893
9
 energy: -15.043651562381 gnorm: 0.003864044857 xtb: 6.7.1 (edcfbbe)
C           -7.05267981689662       -4.57916314353298        1.57535287939025
C           -8.05057089667177       -3.40653017781280        1.58058363837219
O           -7.54925493912618       -5.72867194898614        1.01591613474055
H           -6.13692354465263       -4.23948669408183        1.04900948377274
H           -6.77389664311216       -4.83079022659592        2.61863642806152
O           -7.67886718225680       -5.53370309410996       -0.41241505592724
H           -8.37003214486995       -3.25377993114681        0.55216426375897
H           -8.92214611608185       -3.65695580725970        2.18490726485156
H           -7.58484671633203       -2.49818797647386        1.96936496297946
9
 energy: -15.043702263184 gnorm: 0.002092819896 xtb: 6.7.1 (edcfbbe)
C           -7.04974193219998       -4.57953924930933        1.58003631595015
C           -8.04940724840959       -3.41010326277496        1.57871777479023
O           -7.54078695698007       -5.72809119005694        1.00908238651276
H           -6.12974705249297       -4.23780916016046        1.06280511378954
H           -6.77999923308026       -4.83712750686089        2.62410223259971
O           -7.69316125463713       -5.51209767671639       -0.41228414597169
H           -8.37526900091508       -3.27480493740653        0.54938805265410
H           -8.91679439194754       -3.65297500726895        2.19176450418347
H           -7.58431092933739       -2.49472100944555        1.94990776549171
9
 energy: -15.043735655596 gnorm: 0.001121743813 xtb: 6.7.1 (edcfbbe)
C           -7.04590946136685       -4.57898060545730        1.58576266982612
C           -8.04807396234842       -3.41377912928874        1.57667789403057
O           -7.53072819330862       -5.72612001675713        1.00226509383750
H           -6.12155107334211       -4.23434510119827        1.07830309109379
H           -6.78669316972125       -4.84590846111388        2.62975855875066
O           -7.71198240001483       -5.48810619162558       -0.41189556247654
H           -8.37830828538990       -3.30008159833736        0.54565790155218
H           -8.91118133295259       -3.64976801408178        2.19805157578564
H           -7.58479012155542       -2.49017988213996        1.92893877760006
9
 energy: -15.043742685849 gnorm: 0.000977581381 xtb: 6.7.1 (edcfbbe)
C           -7.04302332118896       -4.57822037124420        1.59058090259987
C           -8.04706164563890       -3.41637183797588        1.57525091326715
O           -7.52371399247974       -5.72233445514534        0.99507832467659
H           -6.11425387412556       -4.23092862017027        1.09274732652928
H           -6.79330917888391       -4.85552048070951        2.63341563618873
O           -7.72549912288980       -5.46864317067246       -0.41200606354859
H           -8.38222788515733       -3.32459091080193        0.54364887592801
H           -8.90526063183399       -3.64540902439594        2.20605332965821
H           -7.58486834780181       -2.48525012888447        1.90875075470073
9
 energy: -15.043743742335 gnorm: 0.000276073458 xtb: 6.7.1 (edcfbbe)
C           -7.04356795477474       -4.57883777178028        1.58980031294601
C           -8.04735827460943       -3.41583673023948        1.57536088553286
O           -7.52393304021481       -5.72353849238356        0.99641979272584
H           -6.11537472311752       -4.23112751441989        1.09098866322999
H           -6.79191624299548       -4.85393992354467        2.63257443613702
O           -7.72408240532687       -5.47178353570804       -0.41228830253711
H           -8.38135600751854       -3.32041403784066        0.54437680682794
H           -8.90649845408281       -3.64539587193541        2.20437449911069
H           -7.58513089735980       -2.48639512214800        1.91191290602676
