
                                 *****************
                                 * O   R   C   A *
                                 *****************

                                            #,                                       
                                            ###                                      
                                            ####                                     
                                            #####                                    
                                            ######                                   
                                           ########,                                 
                                     ,,################,,,,,                         
                               ,,#################################,,                 
                          ,,##########################################,,             
                       ,#########################################, ''#####,          
                    ,#############################################,,   '####,        
                  ,##################################################,,,,####,       
                ,###########''''           ''''###############################       
              ,#####''   ,,,,##########,,,,          '''####'''          '####       
            ,##' ,,,,###########################,,,                        '##       
           ' ,,###''''                  '''############,,,                           
         ,,##''                                '''############,,,,        ,,,,,,###''
      ,#''                                            '''#######################'''  
     '                                                          ''''####''''         
             ,#######,   #######,   ,#######,      ##                                
            ,#'     '#,  ##    ##  ,#'     '#,    #''#        ######   ,####,        
            ##       ##  ##   ,#'  ##            #'  '#       #        #'  '#        
            ##       ##  #######   ##           ,######,      #####,   #    #        
            '#,     ,#'  ##    ##  '#,     ,#' ,#      #,         ##   #,  ,#        
             '#######'   ##     ##  '#######'  #'      '#     #####' # '####'        



                  #######################################################
                  #                        -***-                        #
                  #          Department of theory and spectroscopy      #
                  #    Directorship and core code : Frank Neese         #
                  #        Max Planck Institute fuer Kohlenforschung    #
                  #                Kaiser Wilhelm Platz 1               #
                  #                 D-45470 Muelheim/Ruhr               #
                  #                      Germany                        #
                  #                                                     #
                  #                  All rights reserved                #
                  #                        -***-                        #
                  #######################################################


                         Program Version 5.0.4 -  RELEASE  -


 With contributions from (in alphabetic order):
   Daniel Aravena         : Magnetic Suceptibility
   Michael Atanasov       : Ab Initio Ligand Field Theory (pilot matlab implementation)
   Alexander A. Auer      : GIAO ZORA, VPT2 properties, NMR spectrum
   Ute Becker             : Parallelization
   Giovanni Bistoni       : ED, misc. LED, open-shell LED, HFLD
   Martin Brehm           : Molecular dynamics
   Dmytro Bykov           : SCF Hessian
   Vijay G. Chilkuri      : MRCI spin determinant printing, contributions to CSF-ICE
   Dipayan Datta          : RHF DLPNO-CCSD density
   Achintya Kumar Dutta   : EOM-CC, STEOM-CC
   Dmitry Ganyushin       : Spin-Orbit,Spin-Spin,Magnetic field MRCI
   Miquel Garcia          : C-PCM and meta-GGA Hessian, CC/C-PCM, Gaussian charge scheme
   Yang Guo               : DLPNO-NEVPT2, F12-NEVPT2, CIM, IAO-localization
   Andreas Hansen         : Spin unrestricted coupled pair/coupled cluster methods
   Benjamin Helmich-Paris : MC-RPA, TRAH-SCF, COSX integrals
   Lee Huntington         : MR-EOM, pCC
   Robert Izsak           : Overlap fitted RIJCOSX, COSX-SCS-MP3, EOM
   Marcus Kettner         : VPT2
   Christian Kollmar      : KDIIS, OOCD, Brueckner-CCSD(T), CCSD density, CASPT2, CASPT2-K
   Simone Kossmann        : Meta GGA functionals, TD-DFT gradient, OOMP2, MP2 Hessian
   Martin Krupicka        : Initial AUTO-CI
   Lucas Lang             : DCDCAS
   Marvin Lechner         : AUTO-CI (C++ implementation), FIC-MRCC
   Dagmar Lenk            : GEPOL surface, SMD
   Dimitrios Liakos       : Extrapolation schemes; Compound Job, initial MDCI parallelization
   Dimitrios Manganas     : Further ROCIS development; embedding schemes
   Dimitrios Pantazis     : SARC Basis sets
   Anastasios Papadopoulos: AUTO-CI, single reference methods and gradients
   Taras Petrenko         : DFT Hessian,TD-DFT gradient, ASA, ECA, R-Raman, ABS, FL, XAS/XES, NRVS
   Peter Pinski           : DLPNO-MP2, DLPNO-MP2 Gradient
   Christoph Reimann      : Effective Core Potentials
   Marius Retegan         : Local ZFS, SOC
   Christoph Riplinger    : Optimizer, TS searches, QM/MM, DLPNO-CCSD(T), (RO)-DLPNO pert. Triples
   Tobias Risthaus        : Range-separated hybrids, TD-DFT gradient, RPA, STAB
   Michael Roemelt        : Original ROCIS implementation
   Masaaki Saitow         : Open-shell DLPNO-CCSD energy and density
   Barbara Sandhoefer     : DKH picture change effects
   Avijit Sen             : IP-ROCIS
   Kantharuban Sivalingam : CASSCF convergence, NEVPT2, FIC-MRCI
   Bernardo de Souza      : ESD, SOC TD-DFT
   Georgi Stoychev        : AutoAux, RI-MP2 NMR, DLPNO-MP2 response
   Willem Van den Heuvel  : Paramagnetic NMR
   Boris Wezisla          : Elementary symmetry handling
   Frank Wennmohs         : Technical directorship


 We gratefully acknowledge several colleagues who have allowed us to
 interface, adapt or use parts of their codes:
   Stefan Grimme, W. Hujo, H. Kruse, P. Pracht,  : VdW corrections, initial TS optimization,
                  C. Bannwarth, S. Ehlert          DFT functionals, gCP, sTDA/sTD-DF
   Ed Valeev, F. Pavosevic, A. Kumar             : LibInt (2-el integral package), F12 methods
   Garnet Chan, S. Sharma, J. Yang, R. Olivares  : DMRG
   Ulf Ekstrom                                   : XCFun DFT Library
   Mihaly Kallay                                 : mrcc  (arbitrary order and MRCC methods)
   Jiri Pittner, Ondrej Demel                    : Mk-CCSD
   Frank Weinhold                                : gennbo (NPA and NBO analysis)
   Christopher J. Cramer and Donald G. Truhlar   : smd solvation model
   Lars Goerigk                                  : TD-DFT with DH, B97 family of functionals
   V. Asgeirsson, H. Jonsson                     : NEB implementation
   FAccTs GmbH                                   : IRC, NEB, NEB-TS, DLPNO-Multilevel, CI-OPT
                                                   MM, QMMM, 2- and 3-layer-ONIOM, Crystal-QMMM,
                                                   LR-CPCM, SF, NACMEs, symmetry and pop. for TD-DFT,
                                                   nearIR, NL-DFT gradient (VV10), updates on ESD,
                                                   ML-optimized integration grids
   S Lehtola, MJT Oliveira, MAL Marques          : LibXC Library
   Liviu Ungur et al                             : ANISO software


 Your calculation uses the libint2 library for the computation of 2-el integrals
 For citations please refer to: http://libint.valeyev.net

 Your ORCA version has been built with support for libXC version: 5.1.0
 For citations please refer to: https://tddft.org/programs/libxc/

 This ORCA versions uses:
   CBLAS   interface :  Fast vector & matrix operations
   LAPACKE interface :  Fast linear algebra routines
   SCALAPACK package :  Parallel linear algebra routines
   Shared memory     :  Shared parallel matrices
   BLAS/LAPACK       :  OpenBLAS 0.3.15  USE64BITINT DYNAMIC_ARCH NO_AFFINITY Haswell SINGLE_THREADED
        Core in use  :  Haswell
   Copyright (c) 2011-2014, The OpenBLAS Project


================================================================================

----- Orbital basis set information -----
Your calculation utilizes the basis: def2-TZVP
   F. Weigend and R. Ahlrichs, Phys. Chem. Chem. Phys. 7, 3297 (2005).

----- AuxJ basis set information -----
Your calculation utilizes the auxiliary basis: def2/J
   F. Weigend, Phys. Chem. Chem. Phys. 8, 1057 (2006).

================================================================================
                                        WARNINGS
                       Please study these warnings very carefully!
================================================================================


WARNING: Geometry Optimization
  ===> : Switching off AutoStart
         For restart on a previous wavefunction, please use MOREAD

INFO   : the flag for use of the SHARK integral package has been found!

================================================================================
                                       INPUT FILE
================================================================================
NAME = inp.inp
|  1> !OPT PBE def2-TZVP CPCM(water)
|  2> 
|  3> *xyz -1 1
|  4> C     -5.257170   -6.506591    2.925147
|  5> C     -5.094353   -5.261262    3.507937
|  6> C     -2.945980   -6.292666   -0.068029
|  7> H     -4.667426   -7.779365    1.305090
|  8> C     -4.222943   -4.329690    2.928324
|  9> H     -5.633874   -4.996330    4.409787
| 10> C     -3.474591   -4.574746    1.756373
| 11> H     -4.113008   -3.356615    3.407125
| 12> C     -3.668142   -5.861956    1.188204
| 13> O     -2.696161   -3.682207    1.277547
| 14> C     -4.546572   -6.805598    1.769544
| 15> H     -5.927581   -7.236385    3.362617
| 16> H     -2.280912   -5.525699   -0.474282
| 17> H     -2.335436   -7.177558    0.141837
| 18> H     -3.675281   -6.539569   -0.847131
| 19> *
| 20> 
| 21>                          ****END OF INPUT****
================================================================================

                       *****************************
                       * Geometry Optimization Run *
                       *****************************

Geometry optimization settings:
Update method            Update   .... BFGS
Choice of coordinates    CoordSys .... Z-matrix Internals
Initial Hessian          InHess   .... Almoef's Model

Convergence Tolerances:
Energy Change            TolE     ....  5.0000e-06 Eh
Max. Gradient            TolMAXG  ....  3.0000e-04 Eh/bohr
RMS Gradient             TolRMSG  ....  1.0000e-04 Eh/bohr
Max. Displacement        TolMAXD  ....  4.0000e-03 bohr
RMS Displacement         TolRMSD  ....  2.0000e-03 bohr
Strict Convergence                ....  False
------------------------------------------------------------------------------
                        ORCA OPTIMIZATION COORDINATE SETUP
------------------------------------------------------------------------------

The optimization will be done in new redundant internal coordinates
Making redundant internal coordinates   ...  (new redundants) done
Evaluating the initial hessian          ...  (Almloef) done
Evaluating the coordinates              ...  done
Calculating the B-matrix                .... done
Calculating the G-matrix                .... done
Diagonalizing the G-matrix              .... done
The first mode is                       ....   30
The number of degrees of freedom        ....   39

    -----------------------------------------------------------------
                    Redundant Internal Coordinates


    -----------------------------------------------------------------
         Definition                    Initial Value    Approx d2E/dq
    -----------------------------------------------------------------
      1. B(C   1,C   0)                  1.3846         0.637416   
      2. B(C   4,C   1)                  1.4011         0.599791   
      3. B(H   5,C   1)                  1.0838         0.368407   
      4. B(C   6,C   4)                  1.4119         0.576431   
      5. B(H   7,C   4)                  1.0901         0.360033   
      6. B(C   8,C   6)                  1.4203         0.559027   
      7. B(C   8,C   2)                  1.5117         0.399595   
      8. B(O   9,C   6)                  1.2774         0.846170   
      9. B(C  10,C   8)                  1.4142         0.571579   
     10. B(C  10,H   3)                  1.0856         0.365957   
     11. B(C  10,C   0)                  1.3892         0.626721   
     12. B(H  11,C   0)                  1.0832         0.369141   
     13. B(H  12,C   2)                  1.0934         0.355587   
     14. B(H  13,C   2)                  1.0954         0.353062   
     15. B(H  14,C   2)                  1.0954         0.353063   
     16. A(C   1,C   0,H  11)          120.5806         0.356064   
     17. A(C   1,C   0,C  10)          118.9206         0.437085   
     18. A(C  10,C   0,H  11)          120.4988         0.355043   
     19. A(C   0,C   1,C   4)          119.8037         0.433642   
     20. A(C   0,C   1,H   5)          120.7696         0.355943   
     21. A(C   4,C   1,H   5)          119.4267         0.352292   
     22. A(C   8,C   2,H  13)          109.7083         0.326867   
     23. A(H  12,C   2,H  14)          107.3861         0.289367   
     24. A(H  13,C   2,H  14)          108.9831         0.289044   
     25. A(C   8,C   2,H  14)          109.7083         0.326868   
     26. A(C   8,C   2,H  12)          113.5453         0.327251   
     27. A(H  12,C   2,H  13)          107.3861         0.289367   
     28. A(C   6,C   4,H   7)          117.7795         0.348581   
     29. A(C   1,C   4,H   7)          118.3298         0.350926   
     30. A(C   1,C   4,C   6)          123.8907         0.425886   
     31. A(C   4,C   6,C   8)          114.6527         0.420561   
     32. A(C   8,C   6,O   9)          124.4945         0.447681   
     33. A(C   4,C   6,O   9)          120.8528         0.450179   
     34. A(C   6,C   8,C  10)          121.6639         0.419928   
     35. A(C   2,C   8,C  10)          116.6296         0.395711   
     36. A(C   2,C   8,C   6)          121.7065         0.394174   
     37. A(C   0,C  10,C   8)          121.0684         0.428601   
     38. A(C   0,C  10,H   3)          119.4734         0.354522   
     39. A(H   3,C  10,C   8)          119.4582         0.349044   
     40. D(H   5,C   1,C   0,C  10)   -179.9999         0.028214   
     41. D(C   4,C   1,C   0,C  10)      0.0000         0.028214   
     42. D(C   4,C   1,C   0,H  11)   -180.0000         0.028214   
     43. D(H   5,C   1,C   0,H  11)      0.0001         0.028214   
     44. D(C   6,C   4,C   1,H   5)   -180.0000         0.024799   
     45. D(H   7,C   4,C   1,C   0)   -180.0000         0.024799   
     46. D(C   6,C   4,C   1,C   0)      0.0001         0.024799   
     47. D(H   7,C   4,C   1,H   5)     -0.0000         0.024799   
     48. D(O   9,C   6,C   4,H   7)      0.0000         0.022815   
     49. D(C   8,C   6,C   4,H   7)    180.0000         0.022815   
     50. D(O   9,C   6,C   4,C   1)    180.0000         0.022815   
     51. D(C   8,C   6,C   4,C   1)     -0.0001         0.022815   
     52. D(C   6,C   8,C   2,H  14)   -120.1537         0.011851   
     53. D(C   6,C   8,C   2,H  12)     -0.0001         0.011851   
     54. D(C   6,C   8,C   2,H  13)    120.1536         0.011851   
     55. D(C  10,C   8,C   6,O   9)    180.0000         0.021404   
     56. D(C  10,C   8,C   6,C   4)      0.0000         0.021404   
     57. D(C   2,C   8,C   6,O   9)      0.0000         0.021404   
     58. D(C   2,C   8,C   6,C   4)   -179.9999         0.021404   
     59. D(C  10,C   8,C   2,H  14)     59.8463         0.011851   
     60. D(C  10,C   8,C   2,H  13)    -59.8464         0.011851   
     61. D(C  10,C   8,C   2,H  12)   -180.0000         0.011851   
     62. D(H   3,C  10,C   8,C   6)    180.0000         0.022416   
     63. D(H   3,C  10,C   8,C   2)     -0.0001         0.022416   
     64. D(C   0,C  10,C   8,C   6)      0.0001         0.022416   
     65. D(C   0,C  10,C   8,C   2)   -180.0000         0.022416   
     66. D(C   8,C  10,C   0,H  11)    179.9999         0.027215   
     67. D(C   8,C  10,C   0,C   1)     -0.0001         0.027215   
     68. D(H   3,C  10,C   0,H  11)      0.0000         0.027215   
     69. D(H   3,C  10,C   0,C   1)   -180.0000         0.027215   
    -----------------------------------------------------------------

Number of atoms                         .... 15
Number of degrees of freedom            .... 69

         *************************************************************
         *                GEOMETRY OPTIMIZATION CYCLE   1            *
         *************************************************************
---------------------------------
CARTESIAN COORDINATES (ANGSTROEM)
---------------------------------
  C     -5.257170   -6.506591    2.925147
  C     -5.094353   -5.261262    3.507937
  C     -2.945980   -6.292666   -0.068029
  H     -4.667426   -7.779365    1.305090
  C     -4.222943   -4.329690    2.928324
  H     -5.633874   -4.996330    4.409787
  C     -3.474591   -4.574746    1.756373
  H     -4.113008   -3.356615    3.407125
  C     -3.668142   -5.861956    1.188204
  O     -2.696161   -3.682207    1.277547
  C     -4.546572   -6.805598    1.769544
  H     -5.927581   -7.236385    3.362617
  H     -2.280912   -5.525699   -0.474282
  H     -2.335436   -7.177558    0.141837
  H     -3.675281   -6.539569   -0.847131

----------------------------
CARTESIAN COORDINATES (A.U.)
----------------------------
  NO LB      ZA    FRAG     MASS         X           Y           Z
   0 C     6.0000    0    12.011   -9.934612  -12.295675    5.527727
   1 C     6.0000    0    12.011   -9.626932   -9.942344    6.629040
   2 C     6.0000    0    12.011   -5.567095  -11.891415   -0.128556
   3 H     1.0000    0     1.008   -8.820157  -14.700869    2.466263
   4 C     6.0000    0    12.011   -7.980206   -8.181928    5.533730
   5 H     1.0000    0     1.008  -10.646479   -9.441695    8.333290
   6 C     6.0000    0    12.011   -6.566025   -8.645017    3.319064
   7 H     1.0000    0     1.008   -7.772459   -6.343083    6.438533
   8 C     6.0000    0    12.011   -6.931784  -11.077491    2.245380
   9 O     8.0000    0    15.999   -5.095006   -6.958363    2.414214
  10 C     6.0000    0    12.011   -8.591776  -12.860716    3.343954
  11 H     1.0000    0     1.008  -11.201505  -13.674786    6.354425
  12 H     1.0000    0     1.008   -4.310299  -10.442058   -0.896263
  13 H     1.0000    0     1.008   -4.413334  -13.563619    0.268033
  14 H     1.0000    0     1.008   -6.945275  -12.357994   -1.600846

--------------------------------
INTERNAL COORDINATES (ANGSTROEM)
--------------------------------
 C      0   0   0     0.000000000000     0.00000000     0.00000000
 C      1   0   0     1.384556924734     0.00000000     0.00000000
 C      1   2   0     3.787672859250   102.12674155     0.00000000
 H      1   2   3     2.142973710492   145.09013787     0.00000000
 C      2   1   3     1.401118485016   119.80365813     0.00000000
 H      2   1   3     1.083792091023   120.76961584   180.00004732
 C      5   2   1     1.411932117859   123.89071218     0.00000000
 H      5   2   1     1.090050942594   118.32975115   180.00001513
 C      7   5   2     1.420277292032   114.65273995     0.00000000
 O      7   5   2     1.277440202004   120.85280970   179.99996865
 C      4   1   2     1.085608298476    34.35701537     0.00000000
 H      1   2   3     1.083249829105   120.58064089   180.00001588
 H      3   1   2     1.093432816282   134.77796720     0.00000000
 H      3   1   2     1.095372797524    98.22597531   124.66486811
 H      3   1   2     1.095372524036    98.22598733   235.33493348

---------------------------
INTERNAL COORDINATES (A.U.)
---------------------------
 C      0   0   0     0.000000000000     0.00000000     0.00000000
 C      1   0   0     2.616433404572     0.00000000     0.00000000
 C      1   2   0     7.157664388869   102.12674155     0.00000000
 H      1   2   3     4.049633425023   145.09013787     0.00000000
 C      2   1   3     2.647730217855   119.80365813     0.00000000
 H      2   1   3     2.048070238144   120.76961584   180.00004732
 C      5   2   1     2.668165022440   123.89071218     0.00000000
 H      5   2   1     2.059897753526   118.32975115   180.00001513
 C      7   5   2     2.683935116168   114.65273995     0.00000000
 O      7   5   2     2.414012134249   120.85280970   179.99996865
 C      4   1   2     2.051502372833    34.35701537     0.00000000
 H      1   2   3     2.047045511626   120.58064089   180.00001588
 H      3   1   2     2.066288568615   134.77796720     0.00000000
 H      3   1   2     2.069954601868    98.22597531   124.66486811
 H      3   1   2     2.069954085051    98.22598733   235.33493348

---------------------
BASIS SET INFORMATION
---------------------
There are 3 groups of distinct atoms

 Group   1 Type C   : 11s6p2d1f contracted to 5s3p2d1f pattern {62111/411/11/1}
 Group   2 Type H   : 5s1p contracted to 3s1p pattern {311/1}
 Group   3 Type O   : 11s6p2d1f contracted to 5s3p2d1f pattern {62111/411/11/1}

Atom   0C    basis set group =>   1
Atom   1C    basis set group =>   1
Atom   2C    basis set group =>   1
Atom   3H    basis set group =>   2
Atom   4C    basis set group =>   1
Atom   5H    basis set group =>   2
Atom   6C    basis set group =>   1
Atom   7H    basis set group =>   2
Atom   8C    basis set group =>   1
Atom   9O    basis set group =>   3
Atom  10C    basis set group =>   1
Atom  11H    basis set group =>   2
Atom  12H    basis set group =>   2
Atom  13H    basis set group =>   2
Atom  14H    basis set group =>   2
---------------------------------
AUXILIARY/J BASIS SET INFORMATION
---------------------------------
There are 3 groups of distinct atoms

 Group   1 Type C   : 12s5p4d2f1g contracted to 6s4p3d1f1g pattern {711111/2111/211/2/1}
 Group   2 Type H   : 5s2p1d contracted to 3s1p1d pattern {311/2/1}
 Group   3 Type O   : 12s5p4d2f1g contracted to 6s4p3d1f1g pattern {711111/2111/211/2/1}

Atom   0C    basis set group =>   1
Atom   1C    basis set group =>   1
Atom   2C    basis set group =>   1
Atom   3H    basis set group =>   2
Atom   4C    basis set group =>   1
Atom   5H    basis set group =>   2
Atom   6C    basis set group =>   1
Atom   7H    basis set group =>   2
Atom   8C    basis set group =>   1
Atom   9O    basis set group =>   3
Atom  10C    basis set group =>   1
Atom  11H    basis set group =>   2
Atom  12H    basis set group =>   2
Atom  13H    basis set group =>   2
Atom  14H    basis set group =>   2
------------------------------------------------------------------------------
                           ORCA GTO INTEGRAL CALCULATION
                           -- RI-GTO INTEGRALS CHOSEN --
------------------------------------------------------------------------------
------------------------------------------------------------------------------
                   ___                                                        
                  /   \      - P O W E R E D   B Y -                         
                 /     \                                                     
                 |  |  |   _    _      __       _____    __    __             
                 |  |  |  | |  | |    /  \     |  _  \  |  |  /  |          
                  \  \/   | |  | |   /    \    | | | |  |  | /  /          
                 / \  \   | |__| |  /  /\  \   | |_| |  |  |/  /          
                |  |  |   |  __  | /  /__\  \  |    /   |      \           
                |  |  |   | |  | | |   __   |  |    \   |  |\   \          
                \     /   | |  | | |  |  |  |  | |\  \  |  | \   \       
                 \___/    |_|  |_| |__|  |__|  |_| \__\ |__|  \__/        
                                                                              
                      - O R C A' S   B I G   F R I E N D -                    
                                      &                                       
                       - I N T E G R A L  F E E D E R -                       
                                                                              
 v1 FN, 2020, v2 2021                                                         
------------------------------------------------------------------------------


Reading SHARK input file inp.SHARKINP.tmp ... ok
----------------------
SHARK INTEGRAL PACKAGE
----------------------

Number of atoms                             ...     15
Number of basis functions                   ...    290
Number of shells                            ...    116
Maximum angular momentum                    ...      3
Integral batch strategy                     ... SHARK/LIBINT Hybrid
RI-J (if used) integral strategy            ... SPLIT-RIJ (Revised 2003 algorithm where possible)
Printlevel                                  ...      1
Contraction scheme used                     ... SEGMENTED contraction
Coulomb Range Separation                    ... NOT USED
Exchange Range Separation                   ... NOT USED
Finite Nucleus Model                        ... NOT USED
Auxiliary Coulomb fitting basis             ... AVAILABLE
   # of basis functions in Aux-J            ...    469
   # of shells in Aux-J                     ...    155
   Maximum angular momentum in Aux-J        ...      4
Auxiliary J/K fitting basis                 ... NOT available
Auxiliary Correlation fitting basis         ... NOT available
Auxiliary 'external' fitting basis          ... NOT available
Integral threshold                          ...     2.500000e-11
Primitive cut-off                           ...     2.500000e-12
Primitive pair pre-selection threshold      ...     2.500000e-12

Calculating pre-screening integrals         ... done (  0.1 sec) Dimension = 116
Organizing shell pair data                  ... done (  0.2 sec)
Shell pair information
Total number of shell pairs                 ...      6786
Shell pairs after pre-screening             ...      6291
Total number of primitive shell pairs       ...     20700
Primitive shell pairs kept                  ...     14538
          la=0 lb=0:   1669 shell pairs
          la=1 lb=0:   1757 shell pairs
          la=1 lb=1:    474 shell pairs
          la=2 lb=0:    919 shell pairs
          la=2 lb=1:    481 shell pairs
          la=2 lb=2:    132 shell pairs
          la=3 lb=0:    453 shell pairs
          la=3 lb=1:    244 shell pairs
          la=3 lb=2:    126 shell pairs
          la=3 lb=3:     36 shell pairs

Calculating one electron integrals          ... done (  0.0 sec)
Calculating RI/J V-Matrix + Cholesky decomp.... done (  0.3 sec)
Calculating Nuclear repulsion               ... done (  0.0 sec) ENN=    335.915116551596 Eh

SHARK setup successfully completed in   1.5 seconds

Maximum memory used throughout the entire GTOINT-calculation: 95.9 MB
-------------------------------------------------------------------------------
                                 ORCA SCF
-------------------------------------------------------------------------------

------------
SCF SETTINGS
------------
Hamiltonian:
 Density Functional     Method          .... DFT(GTOs)
 Exchange Functional    Exchange        .... PBE
   PBE kappa parameter   XKappa         ....  0.804000
   PBE mue parameter    XMuePBE         ....  0.219520
 Correlation Functional Correlation     .... PBE
   PBE beta parameter  CBetaPBE         ....  0.066725
 LDA part of GGA corr.  LDAOpt          .... PW91-LDA
 Gradients option       PostSCFGGA      .... off
   Density functional embedding theory  .... OFF
   NL short-range parameter             ....  6.400000
 RI-approximation to the Coulomb term is turned on
   Number of AuxJ basis functions       .... 469


General Settings:
 Integral files         IntName         .... inp
 Hartree-Fock type      HFTyp           .... RHF
 Total Charge           Charge          ....   -1
 Multiplicity           Mult            ....    1
 Number of Electrons    NEL             ....   58
 Basis Dimension        Dim             ....  290
 Nuclear Repulsion      ENuc            ....    335.9151165516 Eh

Convergence Acceleration:
 DIIS                   CNVDIIS         .... on
   Start iteration      DIISMaxIt       ....    12
   Startup error        DIISStart       ....  0.200000
   # of expansion vecs  DIISMaxEq       ....     5
   Bias factor          DIISBfac        ....   1.050
   Max. coefficient     DIISMaxC        ....  10.000
 Trust-Rad. Augm. Hess. CNVTRAH         .... auto
   Auto Start mean grad. ratio tolernc. ....  1.125000
   Auto Start start iteration           ....    20
   Auto Start num. interpolation iter.  ....    10
   Max. Number of Micro iterations      ....    16
   Max. Number of Macro iterations      .... Maxiter - #DIIS iter
   Number of Davidson start vectors     ....     2
   Converg. threshold I  (grad. norm)   ....   1.000e-05
   Converg. threshold II (energy diff.) ....   1.000e-08
   Grad. Scal. Fac. for Micro threshold ....   0.100
   Minimum threshold for Micro iter.    ....   0.010
   NR start threshold (gradient norm)   ....   0.001
   Initial trust radius                 ....   0.400
   Minimum AH scaling param. (alpha)    ....   1.000
   Maximum AH scaling param. (alpha)    .... 1000.000
   Orbital update algorithm             .... Taylor
   White noise on init. David. guess    .... on
   Maximum white noise                  ....   0.010
   Quad. conv. algorithm                .... NR
 SOSCF                  CNVSOSCF        .... on
   Start iteration      SOSCFMaxIt      ....   150
   Startup grad/error   SOSCFStart      ....  0.003300
 Level Shifting         CNVShift        .... on
   Level shift para.    LevelShift      ....    0.2500
   Turn off err/grad.   ShiftErr        ....    0.0010
 Zerner damping         CNVZerner       .... off
 Static damping         CNVDamp         .... on
   Fraction old density DampFac         ....    0.7000
   Max. Damping (<1)    DampMax         ....    0.9800
   Min. Damping (>=0)   DampMin         ....    0.0000
   Turn off err/grad.   DampErr         ....    0.1000
 Fernandez-Rico         CNVRico         .... off

SCF Procedure:
 Maximum # iterations   MaxIter         ....   125
 SCF integral mode      SCFMode         .... Direct
   Integral package                     .... SHARK and LIBINT hybrid scheme
 Reset frequency        DirectResetFreq ....    20
 Integral Threshold     Thresh          ....  2.500e-11 Eh
 Primitive CutOff       TCut            ....  2.500e-12 Eh

Convergence Tolerance:
 Convergence Check Mode ConvCheckMode   .... Total+1el-Energy
 Convergence forced     ConvForced      .... 0
 Energy Change          TolE            ....  1.000e-08 Eh
 1-El. energy change                    ....  1.000e-05 Eh
 Orbital Gradient       TolG            ....  1.000e-05
 Orbital Rotation angle TolX            ....  1.000e-05
 DIIS Error             TolErr          ....  5.000e-07


Diagonalization of the overlap matrix:
Smallest eigenvalue                        ... 1.183e-05
Time for diagonalization                   ...    0.012 sec
Threshold for overlap eigenvalues          ... 1.000e-08
Number of eigenvalues below threshold      ... 0
Time for construction of square roots      ...    0.130 sec
Total time needed                          ...    0.142 sec

Time for model grid setup =    0.366 sec

------------------------------
INITIAL GUESS: MODEL POTENTIAL
------------------------------
Loading Hartree-Fock densities                     ... done
Calculating cut-offs                               ... done
Initializing the effective Hamiltonian             ... done
Setting up the integral package (SHARK)            ... done
Starting the Coulomb interaction                   ... done (   0.4 sec)
Reading the grid                                   ... done
Mapping shells                                     ... done
Starting the XC term evaluation                    ... done (   0.5 sec)
  promolecular density results
     # of electrons  =     56.992689273
     EX              =    -45.968600113
     EC              =     -1.879054244
     EX+EC           =    -47.847654357
Transforming the Hamiltonian                       ... done (   0.0 sec)
Diagonalizing the Hamiltonian                      ... done (   0.0 sec)
Back transforming the eigenvectors                 ... done (   0.0 sec)
Now organizing SCF variables                       ... done
                      ------------------
                      INITIAL GUESS DONE (   1.3 sec)
                      ------------------
-------------------
DFT GRID GENERATION
-------------------

General Integration Accuracy     IntAcc      ... 4.388
Radial Grid Type                 RadialGrid  ... OptM3 with GC (2021)
Angular Grid (max. ang.)         AngularGrid ... 4 (Lebedev-302)
Angular grid pruning method      GridPruning ... 4 (adaptive)
Weight generation scheme         WeightScheme... Becke
Basis function cutoff            BFCut       ... 1.0000e-11
Integration weight cutoff        WCut        ... 1.0000e-14
Angular grids for H and He will be reduced by one unit
Partially contracted basis set               ... off
Rotationally invariant grid construction     ... off

Total number of grid points                  ...    70852
Total number of batches                      ...     1116
Average number of points per batch           ...       63
Average number of grid points per atom       ...     4723
Time for grid setup =    1.111 sec


--------------------
CPCM SOLVATION MODEL
--------------------
CPCM parameters:
  Epsilon                                         ...      80.4000
  Refrac                                          ...       1.3300
  Rsolv                                           ...       1.3000
  Surface type                                    ... GAUSSIAN VDW
  Epsilon function type                           ...         CPCM
Radii:
 Radius for C  used is    3.8550 Bohr (=   2.0400 Ang.)
 Radius for H  used is    2.4944 Bohr (=   1.3200 Ang.)
 Radius for O  used is    3.4469 Bohr (=   1.8240 Ang.)
Calculating surface                               ...        done! (  0.0s)
GEPOL surface points                              ...          855
GEPOL Volume                                      ...     957.4194
GEPOL Surface-area                                ...     544.0440
Calculating surface distance matrix               ...        done! (  0.0s)
Performing Cholesky decomposition & store         ...        done! (  0.2s)
Overall time for CPCM initialization              ...                 0.2s
--------------
SCF ITERATIONS
--------------
ITER       Energy         Delta-E        Max-DP      RMS-DP      [F,P]     Damp
               ***  Starting incremental Fock matrix formation  ***
  0   -345.7036901844   0.000000000000 1.18212794  0.01161673  0.3234790 0.7000
  1   -345.8522781070  -0.148587922674 0.91775401  0.00913053  0.1019195 0.7000
                               ***Turning on DIIS***
  2   -345.9022457151  -0.049967608095 0.41523408  0.00543927  0.0270463 0.0000
  3   -345.9800232860  -0.077777570881 0.89417905  0.00869208  0.0543704 0.0000
  4   -346.0021029447  -0.022079658653 0.13079784  0.00135551  0.0230395 0.0000
  5   -346.0042233800  -0.002120435298 0.07953545  0.00084009  0.0106401 0.0000
                      *** Initiating the SOSCF procedure ***
                           *** Shutting down DIIS ***
                      *** Re-Reading the Fockian *** 
                      *** Removing any level shift *** 
ITER      Energy       Delta-E        Grad      Rot      Max-DP    RMS-DP
  6   -346.00442652  -0.0002031418  0.000380  0.000380  0.042627  0.000485
               *** Restarting incremental Fock matrix formation ***
  7   -346.00443031  -0.0000037931  0.000610  0.003901  0.037127  0.000360
  8   -346.00440270   0.0000276173  0.001643  0.002866  0.024816  0.000239
  9   -346.00443507  -0.0000323685  0.000082  0.000274  0.001337  0.000015
 10   -346.00443442   0.0000006491  0.000155  0.000279  0.000190  0.000005
 11   -346.00443533  -0.0000009107  0.000037  0.000168  0.001712  0.000018
 12   -346.00443525   0.0000000774  0.000064  0.000106  0.000903  0.000009
 13   -346.00443536  -0.0000001057  0.000004  0.000017  0.000405  0.000005
 14   -346.00443536  -0.0000000025  0.000008  0.000012  0.000026  0.000000
                  ***Gradient check signals convergence***
              ***Rediagonalizing the Fockian in SOSCF/NRSCF***

               *****************************************************
               *                     SUCCESS                       *
               *           SCF CONVERGED AFTER  15 CYCLES          *
               *****************************************************


----------------
TOTAL SCF ENERGY
----------------

Total Energy       :         -346.00443535 Eh           -9415.25935 eV

Components:
Nuclear Repulsion  :          335.91511655 Eh            9140.71503 eV
Electronic Energy  :         -681.91955191 Eh          -18555.97437 eV
One Electron Energy:        -1145.58680917 Eh          -31173.00188 eV
Two Electron Energy:          463.66725727 Eh           12617.02751 eV
CPCM Dielectric    :           -0.09867988 Eh              -2.68522 eV

Virial components:
Potential Energy   :         -690.64078577 Eh          -18793.29121 eV
Kinetic Energy     :          344.63635042 Eh            9378.03186 eV
Virial Ratio       :            2.00396965


DFT components:
N(Alpha)           :       29.000020773550 electrons
N(Beta)            :       29.000020773550 electrons
N(Total)           :       58.000041547100 electrons
E(X)               :      -47.141226211171 Eh       
E(C)               :       -1.920784490198 Eh       
E(XC)              :      -49.062010701370 Eh       
DFET-embed. en.    :        0.000000000000 Eh       
CPCM Solvation Model Properties:
Surface-charge          :            0.96506783
Charge-correction       :           -0.00523622 Eh              -0.14248 eV
Free-energy (cav+disp)  :  This term is not implemented in the current solvation scheme

---------------
SCF CONVERGENCE
---------------

  Last Energy change         ...    3.5444e-09  Tolerance :   1.0000e-08
  Last MAX-Density change    ...    3.7354e-04  Tolerance :   1.0000e-07
  Last RMS-Density change    ...    6.0588e-06  Tolerance :   5.0000e-09
  Last Orbital Gradient      ...    1.0637e-06  Tolerance :   1.0000e-05
  Last Orbital Rotation      ...    7.6617e-06  Tolerance :   1.0000e-05

             **** THE GBW FILE WAS UPDATED (inp.gbw) ****
             **** DENSITY inp.scfp WAS UPDATED ****
             **** ENERGY FILE WAS UPDATED (inp.en.tmp) ****
             **** THE GBW FILE WAS UPDATED (inp.gbw) ****
             **** DENSITY inp.scfp WAS UPDATED ****
----------------
ORBITAL ENERGIES
----------------

  NO   OCC          E(Eh)            E(eV) 
   0   2.0000     -18.652972      -507.5732 
   1   2.0000      -9.889220      -269.0994 
   2   2.0000      -9.856389      -268.2060 
   3   2.0000      -9.856280      -268.2030 
   4   2.0000      -9.854858      -268.1643 
   5   2.0000      -9.853251      -268.1206 
   6   2.0000      -9.845721      -267.9157 
   7   2.0000      -9.841206      -267.7928 
   8   2.0000      -0.860592       -23.4179 
   9   2.0000      -0.737136       -20.0585 
  10   2.0000      -0.669219       -18.2104 
  11   2.0000      -0.624170       -16.9845 
  12   2.0000      -0.585721       -15.9383 
  13   2.0000      -0.508686       -13.8421 
  14   2.0000      -0.484126       -13.1737 
  15   2.0000      -0.418420       -11.3858 
  16   2.0000      -0.390827       -10.6350 
  17   2.0000      -0.366697        -9.9783 
  18   2.0000      -0.358938        -9.7672 
  19   2.0000      -0.333337        -9.0706 
  20   2.0000      -0.325905        -8.8683 
  21   2.0000      -0.316381        -8.6092 
  22   2.0000      -0.309356        -8.4180 
  23   2.0000      -0.274788        -7.4774 
  24   2.0000      -0.272903        -7.4261 
  25   2.0000      -0.256277        -6.9737 
  26   2.0000      -0.194127        -5.2825 
  27   2.0000      -0.157445        -4.2843 
  28   2.0000      -0.138963        -3.7814 
  29   0.0000      -0.018345        -0.4992 
  30   0.0000       0.017207         0.4682 
  31   0.0000       0.043685         1.1887 
  32   0.0000       0.053958         1.4683 
  33   0.0000       0.078497         2.1360 
  34   0.0000       0.101968         2.7747 
  35   0.0000       0.103987         2.8296 
  36   0.0000       0.105597         2.8734 
  37   0.0000       0.110005         2.9934 
  38   0.0000       0.131194         3.5700 
  39   0.0000       0.149920         4.0795 
  40   0.0000       0.158424         4.3109 
  41   0.0000       0.168362         4.5814 
  42   0.0000       0.177989         4.8433 
  43   0.0000       0.185658         5.0520 
  44   0.0000       0.205793         5.5999 
  45   0.0000       0.210544         5.7292 
  46   0.0000       0.222285         6.0487 
  47   0.0000       0.241375         6.5681 
  48   0.0000       0.243594         6.6285 
  49   0.0000       0.256717         6.9856 
  50   0.0000       0.272423         7.4130 
  51   0.0000       0.285404         7.7663 
  52   0.0000       0.296982         8.0813 
  53   0.0000       0.312953         8.5159 
  54   0.0000       0.329836         8.9753 
  55   0.0000       0.331947         9.0327 
  56   0.0000       0.335020         9.1164 
  57   0.0000       0.339707         9.2439 
  58   0.0000       0.351937         9.5767 
  59   0.0000       0.366878         9.9833 
  60   0.0000       0.396359        10.7855 
  61   0.0000       0.396601        10.7921 
  62   0.0000       0.403360        10.9760 
  63   0.0000       0.404364        11.0033 
  64   0.0000       0.424427        11.5492 
  65   0.0000       0.431606        11.7446 
  66   0.0000       0.440255        11.9800 
  67   0.0000       0.446347        12.1457 
  68   0.0000       0.460595        12.5334 
  69   0.0000       0.473468        12.8837 
  70   0.0000       0.477872        13.0035 
  71   0.0000       0.481747        13.1090 
  72   0.0000       0.494670        13.4606 
  73   0.0000       0.507345        13.8055 
  74   0.0000       0.527064        14.3421 
  75   0.0000       0.545242        14.8368 
  76   0.0000       0.572757        15.5855 
  77   0.0000       0.599016        16.3001 
  78   0.0000       0.617734        16.8094 
  79   0.0000       0.628806        17.1107 
  80   0.0000       0.643911        17.5217 
  81   0.0000       0.655425        17.8350 
  82   0.0000       0.679359        18.4863 
  83   0.0000       0.689785        18.7700 
  84   0.0000       0.713357        19.4114 
  85   0.0000       0.728753        19.8304 
  86   0.0000       0.747667        20.3451 
  87   0.0000       0.763909        20.7870 
  88   0.0000       0.787895        21.4397 
  89   0.0000       0.797623        21.7044 
  90   0.0000       0.812668        22.1138 
  91   0.0000       0.830836        22.6082 
  92   0.0000       0.834081        22.6965 
  93   0.0000       0.851213        23.1627 
  94   0.0000       0.866470        23.5779 
  95   0.0000       0.906936        24.6790 
  96   0.0000       0.915938        24.9240 
  97   0.0000       0.945054        25.7162 
  98   0.0000       0.969448        26.3800 
  99   0.0000       0.970697        26.4140 
 100   0.0000       1.027547        27.9610 
 101   0.0000       1.041187        28.3321 
 102   0.0000       1.067282        29.0422 
 103   0.0000       1.070165        29.1207 
 104   0.0000       1.088091        29.6085 
 105   0.0000       1.123784        30.5797 
 106   0.0000       1.169259        31.8172 
 107   0.0000       1.171261        31.8716 
 108   0.0000       1.176493        32.0140 
 109   0.0000       1.205724        32.8094 
 110   0.0000       1.209193        32.9038 
 111   0.0000       1.234485        33.5920 
 112   0.0000       1.255234        34.1567 
 113   0.0000       1.271302        34.5939 
 114   0.0000       1.285616        34.9834 
 115   0.0000       1.312653        35.7191 
 116   0.0000       1.366839        37.1936 
 117   0.0000       1.368582        37.2410 
 118   0.0000       1.413219        38.4556 
 119   0.0000       1.417633        38.5757 
 120   0.0000       1.448998        39.4293 
 121   0.0000       1.460180        39.7335 
 122   0.0000       1.463296        39.8183 
 123   0.0000       1.479413        40.2569 
 124   0.0000       1.500124        40.8204 
 125   0.0000       1.514551        41.2130 
 126   0.0000       1.515933        41.2506 
 127   0.0000       1.530708        41.6527 
 128   0.0000       1.549331        42.1594 
 129   0.0000       1.554926        42.3117 
 130   0.0000       1.591395        43.3041 
 131   0.0000       1.618744        44.0483 
 132   0.0000       1.623415        44.1754 
 133   0.0000       1.648024        44.8450 
 134   0.0000       1.671811        45.4923 
 135   0.0000       1.703969        46.3673 
 136   0.0000       1.708275        46.4845 
 137   0.0000       1.729583        47.0643 
 138   0.0000       1.767244        48.0892 
 139   0.0000       1.818165        49.4748 
 140   0.0000       1.825558        49.6760 
 141   0.0000       1.855398        50.4879 
 142   0.0000       1.868870        50.8545 
 143   0.0000       1.955572        53.2138 
 144   0.0000       1.966078        53.4997 
 145   0.0000       1.974542        53.7300 
 146   0.0000       1.985936        54.0401 
 147   0.0000       1.995463        54.2993 
 148   0.0000       2.029625        55.2289 
 149   0.0000       2.045616        55.6640 
 150   0.0000       2.049199        55.7615 
 151   0.0000       2.104602        57.2691 
 152   0.0000       2.107434        57.3462 
 153   0.0000       2.133917        58.0668 
 154   0.0000       2.162135        58.8347 
 155   0.0000       2.190044        59.5941 
 156   0.0000       2.190506        59.6067 
 157   0.0000       2.197759        59.8041 
 158   0.0000       2.266676        61.6794 
 159   0.0000       2.304571        62.7106 
 160   0.0000       2.323298        63.2202 
 161   0.0000       2.343370        63.7663 
 162   0.0000       2.370480        64.5040 
 163   0.0000       2.394563        65.1594 
 164   0.0000       2.413235        65.6675 
 165   0.0000       2.441005        66.4231 
 166   0.0000       2.482617        67.5554 
 167   0.0000       2.499097        68.0039 
 168   0.0000       2.508765        68.2670 
 169   0.0000       2.532453        68.9115 
 170   0.0000       2.542907        69.1960 
 171   0.0000       2.548892        69.3589 
 172   0.0000       2.599907        70.7471 
 173   0.0000       2.609460        71.0070 
 174   0.0000       2.624428        71.4143 
 175   0.0000       2.633499        71.6611 
 176   0.0000       2.635888        71.7262 
 177   0.0000       2.663027        72.4646 
 178   0.0000       2.707738        73.6813 
 179   0.0000       2.718247        73.9673 
 180   0.0000       2.722498        74.0829 
 181   0.0000       2.725432        74.1628 
 182   0.0000       2.761602        75.1470 
 183   0.0000       2.786511        75.8248 
 184   0.0000       2.788219        75.8713 
 185   0.0000       2.798080        76.1396 
 186   0.0000       2.810884        76.4880 
 187   0.0000       2.815218        76.6060 
 188   0.0000       2.877312        78.2956 
 189   0.0000       2.882476        78.4362 
 190   0.0000       2.892735        78.7153 
 191   0.0000       2.935713        79.8848 
 192   0.0000       2.962046        80.6014 
 193   0.0000       2.969857        80.8139 
 194   0.0000       2.971235        80.8514 
 195   0.0000       2.981240        81.1237 
 196   0.0000       2.989229        81.3411 
 197   0.0000       3.035770        82.6075 
 198   0.0000       3.052753        83.0696 
 199   0.0000       3.063367        83.3584 
 200   0.0000       3.094003        84.1921 
 201   0.0000       3.113677        84.7275 
 202   0.0000       3.128832        85.1399 
 203   0.0000       3.133074        85.2553 
 204   0.0000       3.146135        85.6107 
 205   0.0000       3.175128        86.3996 
 206   0.0000       3.183918        86.6388 
 207   0.0000       3.188818        86.7721 
 208   0.0000       3.225977        87.7833 
 209   0.0000       3.235912        88.0536 
 210   0.0000       3.237683        88.1018 
 211   0.0000       3.276931        89.1698 
 212   0.0000       3.285199        89.3948 
 213   0.0000       3.305185        89.9387 
 214   0.0000       3.306409        89.9720 
 215   0.0000       3.325671        90.4961 
 216   0.0000       3.326470        90.5179 
 217   0.0000       3.353649        91.2574 
 218   0.0000       3.369626        91.6922 
 219   0.0000       3.401820        92.5682 
 220   0.0000       3.418617        93.0253 
 221   0.0000       3.419309        93.0441 
 222   0.0000       3.450804        93.9011 
 223   0.0000       3.487552        94.9011 
 224   0.0000       3.498676        95.2038 
 225   0.0000       3.515166        95.6525 
 226   0.0000       3.515880        95.6720 
 227   0.0000       3.583419        97.5098 
 228   0.0000       3.644279        99.1659 
 229   0.0000       3.669639        99.8560 
 230   0.0000       3.721388       101.2641 
 231   0.0000       3.745605       101.9231 
 232   0.0000       3.764588       102.4396 
 233   0.0000       3.774994       102.7228 
 234   0.0000       3.826685       104.1294 
 235   0.0000       3.834708       104.3477 
 236   0.0000       3.845728       104.6476 
 237   0.0000       3.908472       106.3549 
 238   0.0000       3.978019       108.2474 
 239   0.0000       4.023482       109.4845 
 240   0.0000       4.044700       110.0619 
 241   0.0000       4.051441       110.2453 
 242   0.0000       4.079304       111.0035 
 243   0.0000       4.081537       111.0643 
 244   0.0000       4.111271       111.8734 
 245   0.0000       4.136780       112.5675 
 246   0.0000       4.161184       113.2316 
 247   0.0000       4.191666       114.0610 
 248   0.0000       4.197158       114.2105 
 249   0.0000       4.244015       115.4855 
 250   0.0000       4.263285       116.0099 
 251   0.0000       4.299369       116.9918 
 252   0.0000       4.363045       118.7245 
 253   0.0000       4.441288       120.8536 
 254   0.0000       4.467712       121.5726 
 255   0.0000       4.526257       123.1657 
 256   0.0000       4.559161       124.0611 
 257   0.0000       4.569423       124.3403 
 258   0.0000       4.596398       125.0744 
 259   0.0000       4.668961       127.0489 
 260   0.0000       4.703447       127.9873 
 261   0.0000       4.819701       131.1507 
 262   0.0000       4.831858       131.4816 
 263   0.0000       4.983316       135.6029 
 264   0.0000       5.039422       137.1296 
 265   0.0000       5.097001       138.6964 
 266   0.0000       5.153409       140.2314 
 267   0.0000       5.176993       140.8731 
 268   0.0000       5.216426       141.9462 
 269   0.0000       5.277703       143.6136 
 270   0.0000       5.337834       145.2498 
 271   0.0000       5.486801       149.3034 
 272   0.0000       5.527052       150.3987 
 273   0.0000       5.697548       155.0382 
 274   0.0000       5.963415       162.2728 
 275   0.0000       6.268717       170.5805 
 276   0.0000       6.315435       171.8517 
 277   0.0000       6.540245       177.9691 
 278   0.0000       6.552885       178.3131 
 279   0.0000       6.740981       183.4314 
 280   0.0000       6.969840       189.6590 
 281   0.0000       7.016808       190.9370 
 282   0.0000      21.824920       593.8863 
 283   0.0000      22.176201       603.4451 
 284   0.0000      22.371459       608.7583 
 285   0.0000      22.421094       610.1090 
 286   0.0000      22.580724       614.4527 
 287   0.0000      22.636595       615.9731 
 288   0.0000      23.219163       631.8256 
 289   0.0000      43.608916      1186.6589 

                    ********************************
                    * MULLIKEN POPULATION ANALYSIS *
                    ********************************

-----------------------
MULLIKEN ATOMIC CHARGES
-----------------------
   0 C :   -0.206425
   1 C :   -0.170662
   2 C :   -0.411480
   3 H :    0.106507
   4 C :   -0.265788
   5 H :    0.109008
   6 C :    0.110603
   7 H :    0.058490
   8 C :    0.050467
   9 O :   -0.602526
  10 C :   -0.231244
  11 H :    0.104479
  12 H :    0.106467
  13 H :    0.121068
  14 H :    0.121037
Sum of atomic charges:   -1.0000000

--------------------------------
MULLIKEN REDUCED ORBITAL CHARGES
--------------------------------
  0 C s       :     3.183406  s :     3.183406
      pz      :     0.967812  p :     2.928192
      px      :     1.012915
      py      :     0.947465
      dz2     :     0.020383  d :     0.087988
      dxz     :     0.011449
      dyz     :     0.025399
      dx2y2   :     0.010283
      dxy     :     0.020474
      f0      :     0.001097  f :     0.006838
      f+1     :     0.000494
      f-1     :     0.001313
      f+2     :     0.001018
      f-2     :     0.001309
      f+3     :     0.001000
      f-3     :     0.000608
  1 C s       :     3.194855  s :     3.194855
      pz      :     0.973184  p :     2.877841
      px      :     0.974687
      py      :     0.929970
      dz2     :     0.016969  d :     0.091165
      dxz     :     0.010833
      dyz     :     0.017351
      dx2y2   :     0.023625
      dxy     :     0.022388
      f0      :     0.000204  f :     0.006801
      f+1     :     0.000883
      f-1     :     0.001585
      f+2     :     0.000946
      f-2     :     0.001016
      f+3     :     0.001283
      f-3     :     0.000883
  2 C s       :     3.271622  s :     3.271622
      pz      :     0.981529  p :     3.083676
      px      :     1.026363
      py      :     1.075784
      dz2     :     0.016431  d :     0.052896
      dxz     :     0.011568
      dyz     :     0.009847
      dx2y2   :     0.003725
      dxy     :     0.011325
      f0      :     0.000727  f :     0.003285
      f+1     :     0.000595
      f-1     :     0.000272
      f+2     :     0.000505
      f-2     :     0.000754
      f+3     :     0.000376
      f-3     :     0.000057
  3 H s       :     0.871731  s :     0.871731
      pz      :     0.005916  p :     0.021762
      px      :     0.004822
      py      :     0.011023
  4 C s       :     3.288254  s :     3.288254
      pz      :     0.979653  p :     2.895324
      px      :     1.008865
      py      :     0.906806
      dz2     :     0.017842  d :     0.075389
      dxz     :     0.013269
      dyz     :     0.017576
      dx2y2   :     0.018127
      dxy     :     0.008574
      f0      :     0.001021  f :     0.006821
      f+1     :     0.000979
      f-1     :     0.000859
      f+2     :     0.001197
      f-2     :     0.001174
      f+3     :     0.000641
      f-3     :     0.000951
  5 H s       :     0.869235  s :     0.869235
      pz      :     0.010264  p :     0.021756
      px      :     0.006837
      py      :     0.004656
  6 C s       :     2.940827  s :     2.940827
      pz      :     0.922331  p :     2.771419
      px      :     0.894886
      py      :     0.954201
      dz2     :     0.030507  d :     0.160691
      dxz     :     0.021647
      dyz     :     0.038542
      dx2y2   :     0.040346
      dxy     :     0.029649
      f0      :     0.001524  f :     0.016460
      f+1     :     0.001645
      f-1     :     0.003283
      f+2     :     0.001919
      f-2     :     0.002780
      f+3     :     0.002878
      f-3     :     0.002431
  7 H s       :     0.919524  s :     0.919524
      pz      :     0.006060  p :     0.021986
      px      :     0.005021
      py      :     0.010905
  8 C s       :     3.215400  s :     3.215400
      pz      :     0.867950  p :     2.605487
      px      :     0.909542
      py      :     0.827995
      dz2     :     0.026063  d :     0.119492
      dxz     :     0.018048
      dyz     :     0.029084
      dx2y2   :     0.021557
      dxy     :     0.024740
      f0      :     0.000975  f :     0.009154
      f+1     :     0.001141
      f-1     :     0.001768
      f+2     :     0.001364
      f-2     :     0.001259
      f+3     :     0.001396
      f-3     :     0.001251
  9 O s       :     3.753612  s :     3.753612
      pz      :     1.699817  p :     4.821171
      px      :     1.543962
      py      :     1.577392
      dz2     :     0.003687  d :     0.026234
      dxz     :     0.003732
      dyz     :     0.005241
      dx2y2   :     0.006447
      dxy     :     0.007127
      f0      :     0.000131  f :     0.001509
      f+1     :     0.000143
      f-1     :     0.000199
      f+2     :     0.000150
      f-2     :     0.000299
      f+3     :     0.000275
      f-3     :     0.000312
 10 C s       :     3.253011  s :     3.253011
      pz      :     0.962567  p :     2.883477
      px      :     0.972381
      py      :     0.948528
      dz2     :     0.019913  d :     0.087913
      dxz     :     0.013944
      dyz     :     0.022872
      dx2y2   :     0.022385
      dxy     :     0.008799
      f0      :     0.001200  f :     0.006843
      f+1     :     0.000884
      f-1     :     0.000861
      f+2     :     0.001273
      f-2     :     0.001029
      f+3     :     0.000634
      f-3     :     0.000962
 11 H s       :     0.873339  s :     0.873339
      pz      :     0.005931  p :     0.022182
      px      :     0.008288
      py      :     0.007962
 12 H s       :     0.871620  s :     0.871620
      pz      :     0.005669  p :     0.021913
      px      :     0.007393
      py      :     0.008850
 13 H s       :     0.857936  s :     0.857936
      pz      :     0.004974  p :     0.020996
      px      :     0.006955
      py      :     0.009067
 14 H s       :     0.857966  s :     0.857966
      pz      :     0.008485  p :     0.020997
      px      :     0.007489
      py      :     0.005023


                     *******************************
                     * LOEWDIN POPULATION ANALYSIS *
                     *******************************

----------------------
LOEWDIN ATOMIC CHARGES
----------------------
   0 C :   -0.242943
   1 C :   -0.207981
   2 C :   -0.295736
   3 H :    0.141358
   4 C :   -0.194454
   5 H :    0.137464
   6 C :   -0.443696
   7 H :    0.129684
   8 C :   -0.188925
   9 O :   -0.171654
  10 C :   -0.168792
  11 H :    0.135193
  12 H :    0.116223
  13 H :    0.127147
  14 H :    0.127112

-------------------------------
LOEWDIN REDUCED ORBITAL CHARGES
-------------------------------
  0 C s       :     2.763698  s :     2.763698
      pz      :     1.027768  p :     3.033849
      px      :     0.984282
      py      :     1.021799
      dz2     :     0.089245  d :     0.401370
      dxz     :     0.058789
      dyz     :     0.111358
      dx2y2   :     0.051443
      dxy     :     0.090536
      f0      :     0.006268  f :     0.044025
      f+1     :     0.005081
      f-1     :     0.008875
      f+2     :     0.007012
      f-2     :     0.005981
      f+3     :     0.006409
      f-3     :     0.004398
  1 C s       :     2.770473  s :     2.770473
      pz      :     0.967329  p :     2.985875
      px      :     0.965160
      py      :     1.053386
      dz2     :     0.066641  d :     0.408450
      dxz     :     0.054976
      dyz     :     0.093651
      dx2y2   :     0.097041
      dxy     :     0.096140
      f0      :     0.002319  f :     0.043184
      f+1     :     0.004188
      f-1     :     0.010397
      f+2     :     0.006531
      f-2     :     0.006179
      f+3     :     0.008662
      f-3     :     0.004907
  2 C s       :     2.825234  s :     2.825234
      pz      :     1.048704  p :     3.187343
      px      :     1.064942
      py      :     1.073697
      dz2     :     0.064612  d :     0.258355
      dxz     :     0.071388
      dyz     :     0.044124
      dx2y2   :     0.015954
      dxy     :     0.062276
      f0      :     0.005444  f :     0.024804
      f+1     :     0.003553
      f-1     :     0.003661
      f+2     :     0.004809
      f-2     :     0.002930
      f+3     :     0.002965
      f-3     :     0.001442
  3 H s       :     0.799036  s :     0.799036
      pz      :     0.016457  p :     0.059607
      px      :     0.013507
      py      :     0.029643
  4 C s       :     2.778050  s :     2.778050
      pz      :     1.010068  p :     3.006228
      px      :     1.008667
      py      :     0.987493
      dz2     :     0.076693  d :     0.370281
      dxz     :     0.070901
      dyz     :     0.090721
      dx2y2   :     0.081672
      dxy     :     0.050294
      f0      :     0.005525  f :     0.039895
      f+1     :     0.006390
      f-1     :     0.006181
      f+2     :     0.005870
      f-2     :     0.006226
      f+3     :     0.004703
      f-3     :     0.004999
  5 H s       :     0.802869  s :     0.802869
      pz      :     0.027606  p :     0.059666
      px      :     0.018722
      py      :     0.013338
  6 C s       :     2.721412  s :     2.721412
      pz      :     0.962876  p :     2.818995
      px      :     0.887989
      py      :     0.968129
      dz2     :     0.151580  d :     0.797090
      dxz     :     0.123211
      dyz     :     0.173268
      dx2y2   :     0.195923
      dxy     :     0.153107
      f0      :     0.010215  f :     0.106199
      f+1     :     0.010394
      f-1     :     0.022321
      f+2     :     0.012593
      f-2     :     0.016692
      f+3     :     0.018688
      f-3     :     0.015297
  7 H s       :     0.810567  s :     0.810567
      pz      :     0.016764  p :     0.059748
      px      :     0.014010
      py      :     0.028974
  8 C s       :     2.727446  s :     2.727446
      pz      :     0.952976  p :     2.913956
      px      :     0.946478
      py      :     1.014502
      dz2     :     0.104214  d :     0.494483
      dxz     :     0.078341
      dyz     :     0.118792
      dx2y2   :     0.095588
      dxy     :     0.097547
      f0      :     0.006270  f :     0.053040
      f+1     :     0.005739
      f-1     :     0.010957
      f+2     :     0.008044
      f-2     :     0.007106
      f+3     :     0.008744
      f-3     :     0.006181
  9 O s       :     3.425290  s :     3.425290
      pz      :     1.609558  p :     4.679687
      px      :     1.515144
      py      :     1.554985
      dz2     :     0.008955  d :     0.061650
      dxz     :     0.010054
      dyz     :     0.011419
      dx2y2   :     0.014643
      dxy     :     0.016578
      f0      :     0.000446  f :     0.005028
      f+1     :     0.000478
      f-1     :     0.000650
      f+2     :     0.000432
      f-2     :     0.001086
      f+3     :     0.001013
      f-3     :     0.000924
 10 C s       :     2.766569  s :     2.766569
      pz      :     1.006269  p :     2.961808
      px      :     0.977879
      py      :     0.977659
      dz2     :     0.088556  d :     0.398649
      dxz     :     0.072635
      dyz     :     0.099711
      dx2y2   :     0.090222
      dxy     :     0.047525
      f0      :     0.006780  f :     0.041767
      f+1     :     0.006060
      f-1     :     0.006715
      f+2     :     0.005862
      f-2     :     0.006180
      f+3     :     0.004782
      f-3     :     0.005387
 11 H s       :     0.804099  s :     0.804099
      pz      :     0.016515  p :     0.060709
      px      :     0.022476
      py      :     0.021718
 12 H s       :     0.820654  s :     0.820654
      pz      :     0.015361  p :     0.063123
      px      :     0.021321
      py      :     0.026441
 13 H s       :     0.811329  s :     0.811329
      pz      :     0.014384  p :     0.061524
      px      :     0.019822
      py      :     0.027318
 14 H s       :     0.811367  s :     0.811367
      pz      :     0.023264  p :     0.061521
      px      :     0.023304
      py      :     0.014953


                      *****************************
                      * MAYER POPULATION ANALYSIS *
                      *****************************

  NA   - Mulliken gross atomic population
  ZA   - Total nuclear charge
  QA   - Mulliken gross atomic charge
  VA   - Mayer's total valence
  BVA  - Mayer's bonded valence
  FA   - Mayer's free valence

  ATOM       NA         ZA         QA         VA         BVA        FA
  0 C      6.2064     6.0000    -0.2064     3.8782     3.8782     0.0000
  1 C      6.1707     6.0000    -0.1707     3.8479     3.8479    -0.0000
  2 C      6.4115     6.0000    -0.4115     3.8605     3.8605     0.0000
  3 H      0.8935     1.0000     0.1065     0.9731     0.9731    -0.0000
  4 C      6.2658     6.0000    -0.2658     3.7498     3.7498    -0.0000
  5 H      0.8910     1.0000     0.1090     0.9636     0.9636    -0.0000
  6 C      5.8894     6.0000     0.1106     4.2908     4.2908    -0.0000
  7 H      0.9415     1.0000     0.0585     1.0136     1.0136    -0.0000
  8 C      5.9495     6.0000     0.0505     3.2335     3.2335    -0.0000
  9 O      8.6025     8.0000    -0.6025     1.9404     1.9404    -0.0000
 10 C      6.2312     6.0000    -0.2312     3.8390     3.8390    -0.0000
 11 H      0.8955     1.0000     0.1045     0.9661     0.9661    -0.0000
 12 H      0.8935     1.0000     0.1065     1.0170     1.0170     0.0000
 13 H      0.8789     1.0000     0.1211     0.9670     0.9670     0.0000
 14 H      0.8790     1.0000     0.1210     0.9669     0.9669     0.0000

  Mayer bond orders larger than 0.100000
B(  0-C ,  1-C ) :   1.3675 B(  0-C , 10-C ) :   1.3847 B(  0-C , 11-H ) :   0.9784 
B(  1-C ,  4-C ) :   1.4016 B(  1-C ,  5-H ) :   0.9661 B(  2-C ,  8-C ) :   0.9235 
B(  2-C , 12-H ) :   0.9766 B(  2-C , 13-H ) :   0.9640 B(  2-C , 14-H ) :   0.9640 
B(  3-H , 10-C ) :   0.9827 B(  4-C ,  6-C ) :   1.2727 B(  4-C ,  7-H ) :   0.9861 
B(  6-C ,  8-C ) :   1.0805 B(  6-C ,  9-O ) :   1.8305 B(  8-C , 10-C ) :   1.3036 


-------
TIMINGS
-------

Total SCF time: 0 days 0 hours 1 min 0 sec 

Total time                  ....      60.124 sec
Sum of individual times     ....      57.080 sec  ( 94.9%)

Fock matrix formation       ....      53.738 sec  ( 89.4%)
  Split-RI-J                ....       9.671 sec  ( 18.0% of F)
  XC integration            ....      26.680 sec  ( 49.6% of F)
    Basis function eval.    ....       7.590 sec  ( 28.4% of XC)
    Density eval.           ....       6.589 sec  ( 24.7% of XC)
    XC-Functional eval.     ....       0.967 sec  (  3.6% of XC)
    XC-Potential eval.      ....       8.168 sec  ( 30.6% of XC)
Diagonalization             ....       0.108 sec  (  0.2%)
Density matrix formation    ....       0.013 sec  (  0.0%)
Population analysis         ....       0.241 sec  (  0.4%)
Initial guess               ....       0.892 sec  (  1.5%)
Orbital Transformation      ....       0.000 sec  (  0.0%)
Orbital Orthonormalization  ....       0.000 sec  (  0.0%)
DIIS solution               ....       0.179 sec  (  0.3%)
SOSCF solution              ....       0.430 sec  (  0.7%)
Grid generation             ....       1.478 sec  (  2.5%)

Maximum memory used throughout the entire SCF-calculation: 119.5 MB

-------------------------   --------------------
FINAL SINGLE POINT ENERGY      -346.004435354995
-------------------------   --------------------

------------------------------------------------------------------------------
                         ORCA SCF GRADIENT CALCULATION
------------------------------------------------------------------------------

Gradient of the Kohn-Sham DFT energy:
Kohn-Sham wavefunction type      ... RKS
Hartree-Fock exchange scaling    ...    0.000
Number of operators              ...    1
Number of atoms                  ...   15
Basis set dimensions             ...  290
Integral neglect threshold       ... 2.5e-11
Integral primitive cutoff        ... 2.5e-12
SHARK Integral package           ... ON

Nuc. rep. gradient       (SHARK) ... done (  0.0 sec)
HCore & Overlap gradient (SHARK) ... done (  0.5 sec)
RI-J gradient            (SHARK) ... done (  2.8 sec)
Exchange-correlation gradient    ... done

------------------
CARTESIAN GRADIENT
------------------

   1   C   :    0.006827065    0.010528173   -0.002483634
   2   C   :   -0.009608244   -0.014264356    0.003779717
   3   C   :    0.000561811   -0.003839582   -0.003286853
   4   H   :   -0.000345601    0.005061369    0.003733449
   5   C   :    0.016914493    0.001221128   -0.022052757
   6   H   :    0.003536550   -0.001403264   -0.005709569
   7   C   :    0.002324026   -0.000846351   -0.003570930
   8   H   :   -0.001552650   -0.003964559   -0.000483696
   9   C   :    0.005860154    0.028251174    0.010326107
  10   O   :   -0.015265531   -0.012443129    0.012576843
  11   C   :   -0.010942841   -0.016641094    0.004110306
  12   H   :    0.004091060    0.004697185   -0.002515276
  13   H   :   -0.000993664   -0.004605745   -0.001623301
  14   H   :   -0.001682276    0.004584219    0.002888196
  15   H   :    0.000275648    0.003664832    0.004311399

Difference to translation invariance:
           :    0.0000000000    0.0000000000   -0.0000000000

Difference to rotation invariance:
           :   -0.0008588381    0.0004714321   -0.0007176324

Norm of the cartesian gradient     ...    0.0585696980
RMS gradient                       ...    0.0087310551
MAX gradient                       ...    0.0282511744

-------
TIMINGS
-------

Total SCF gradient time            ...       15.892 sec

One electron gradient       ....       0.451 sec  (  2.8%)
RI-J Coulomb gradient       ....       2.836 sec  ( 17.8%)
XC gradient                 ....      10.728 sec  ( 67.5%)
CPCM gradient               ....       0.739 sec  (  4.7%)
   A-Matrix (El+Nuc)        ....       0.043 sec  (  0.3%)
   Potential                ....       0.696 sec  (  4.4%)

Maximum memory used throughout the entire SCFGRAD-calculation: 115.0 MB
------------------------------------------------------------------------------
                         ORCA GEOMETRY RELAXATION STEP
------------------------------------------------------------------------------

Reading the OPT-File                    .... done
Getting information on internals        .... done
Copying old internal coords+grads       .... done
Making the new internal coordinates     .... (new redundants).... done
Validating the new internal coordinates .... (new redundants).... done
Calculating the B-matrix                .... done
Calculating the G,G- and P matrices     .... done
Transforming gradient to internals      .... done
Projecting the internal gradient        .... done
Number of atoms                         ....  15
Number of internal coordinates          ....  69
Current Energy                          ....  -346.004435355 Eh
Current gradient norm                   ....     0.058569698 Eh/bohr
Maximum allowed component of the step   ....  0.300
Current trust radius                    ....  0.300
Evaluating the initial hessian          ....  (Almloef) done
Projecting the Hessian                  .... done
Forming the augmented Hessian           .... done
Diagonalizing the augmented Hessian     .... done
Last element of RFO vector              ....  0.995487753
Lowest eigenvalues of augmented Hessian:
 -0.004610459  0.011851212  0.018140155  0.021996595  0.022264992
Length of the computed step             ....  0.095320226
The final length of the internal step   ....  0.095320226
Converting the step to cartesian space:
 Initial RMS(Int)=    0.0114752068
Transforming coordinates:
 Iter   0:  RMS(Cart)=    0.0247645924 RMS(Int)=    1.8526760886
 Iter   1:  RMS(Cart)=    0.0002837400 RMS(Int)=    0.0001959417
 Iter   2:  RMS(Cart)=    0.0000070746 RMS(Int)=    0.0000036690
 Iter   3:  RMS(Cart)=    0.0000002236 RMS(Int)=    0.0000001703
 Iter   4:  RMS(Cart)=    0.0000000069 RMS(Int)=    0.0000000038
done
Storing new coordinates                 .... done

                                .--------------------.
          ----------------------|Geometry convergence|-------------------------
          Item                value                   Tolerance       Converged
          ---------------------------------------------------------------------
          RMS gradient        0.0060663214            0.0001000000      NO
          MAX gradient        0.0227149887            0.0003000000      NO
          RMS step            0.0114752068            0.0020000000      NO
          MAX step            0.0392308751            0.0040000000      NO
          ........................................................
          Max(Bonds)      0.0208      Max(Angles)    1.37
          Max(Dihed)        0.08      Max(Improp)    0.00
          ---------------------------------------------------------------------

The optimization has not yet converged - more geometry cycles are needed


    ---------------------------------------------------------------------------
                         Redundant Internal Coordinates
                            (Angstroem and degrees)

        Definition                    Value    dE/dq     Step     New-Value
    ----------------------------------------------------------------------------
     1. B(C   1,C   0)                1.3846 -0.016228  0.0134    1.3980   
     2. B(C   4,C   1)                1.4011  0.003994 -0.0033    1.3978   
     3. B(H   5,C   1)                1.0838 -0.006855  0.0097    1.0935   
     4. B(C   6,C   4)                1.4119 -0.022621  0.0208    1.4327   
     5. B(H   7,C   4)                1.0901 -0.003913  0.0057    1.0957   
     6. B(C   8,C   6)                1.4203 -0.019175  0.0180    1.4382   
     7. B(C   8,C   2)                1.5117 -0.002727  0.0036    1.5152   
     8. B(O   9,C   6)                1.2774 -0.022715  0.0141    1.2916   
     9. B(C  10,C   8)                1.4142  0.008445 -0.0079    1.4063   
    10. B(C  10,H   3)                1.0856 -0.006094  0.0087    1.0943   
    11. B(C  10,C   0)                1.3892 -0.012958  0.0107    1.3999   
    12. B(H  11,C   0)                1.0832 -0.006707  0.0095    1.0927   
    13. B(H  12,C   2)                1.0934 -0.003216  0.0047    1.0982   
    14. B(H  13,C   2)                1.0954 -0.004095  0.0061    1.1014   
    15. B(H  14,C   2)                1.0954 -0.004086  0.0060    1.1014   
    16. A(C   1,C   0,H  11)          120.58 -0.000923    0.14    120.72   
    17. A(C   1,C   0,C  10)          118.92  0.001340   -0.20    118.72   
    18. A(C  10,C   0,H  11)          120.50 -0.000417    0.06    120.56   
    19. A(C   0,C   1,C   4)          119.80 -0.001062    0.18    119.98   
    20. A(C   0,C   1,H   5)          120.77  0.000811   -0.13    120.64   
    21. A(C   4,C   1,H   5)          119.43  0.000251   -0.04    119.38   
    22. A(C   8,C   2,H  13)          109.71 -0.004942    0.87    110.58   
    23. A(H  12,C   2,H  14)          107.39 -0.000789    0.14    107.53   
    24. A(H  13,C   2,H  14)          108.98  0.004708   -0.86    108.12   
    25. A(C   8,C   2,H  14)          109.71 -0.004921    0.87    110.58   
    26. A(C   8,C   2,H  12)          113.55  0.006986   -1.22    112.33   
    27. A(H  12,C   2,H  13)          107.39 -0.000778    0.14    107.53   
    28. A(C   6,C   4,H   7)          117.78  0.000280   -0.10    117.68   
    29. A(C   1,C   4,H   7)          118.33 -0.003387    0.49    118.82   
    30. A(C   1,C   4,C   6)          123.89  0.003106   -0.39    123.50   
    31. A(C   4,C   6,C   8)          114.65 -0.001685    0.24    114.90   
    32. A(C   8,C   6,O   9)          124.49  0.007508   -0.96    123.53   
    33. A(C   4,C   6,O   9)          120.85 -0.005823    0.72    121.57   
    34. A(C   6,C   8,C  10)          121.66  0.003944   -0.57    121.09   
    35. A(C   2,C   8,C  10)          116.63 -0.009505    1.37    118.00   
    36. A(C   2,C   8,C   6)          121.71  0.005561   -0.79    120.91   
    37. A(C   0,C  10,C   8)          121.07 -0.005643    0.74    121.81   
    38. A(C   0,C  10,H   3)          119.47  0.001223   -0.11    119.36   
    39. A(H   3,C  10,C   8)          119.46  0.004420   -0.63    118.83   
    40. D(H   5,C   1,C   0,C  10)   -180.00 -0.000010    0.02   -179.98   
    41. D(C   4,C   1,C   0,C  10)      0.00 -0.000007    0.01      0.01   
    42. D(C   4,C   1,C   0,H  11)   -180.00 -0.000001    0.00   -180.00   
    43. D(H   5,C   1,C   0,H  11)      0.00 -0.000005    0.01      0.01   
    44. D(C   6,C   4,C   1,H   5)   -180.00  0.000012   -0.02   -180.02   
    45. D(H   7,C   4,C   1,C   0)   -180.00 -0.000014    0.03   -179.97   
    46. D(C   6,C   4,C   1,C   0)      0.00  0.000009   -0.02     -0.02   
    47. D(H   7,C   4,C   1,H   5)     -0.00 -0.000011    0.02      0.02   
    48. D(O   9,C   6,C   4,H   7)      0.00 -0.000014    0.03      0.03   
    49. D(C   8,C   6,C   4,H   7)    180.00  0.000024   -0.05    179.95   
    50. D(O   9,C   6,C   4,C   1)    180.00 -0.000037    0.08    180.08   
    51. D(C   8,C   6,C   4,C   1)     -0.00  0.000000   -0.00     -0.00   
    52. D(C   6,C   8,C   2,H  14)   -120.15 -0.000138   -0.02   -120.18   
    53. D(C   6,C   8,C   2,H  12)     -0.00  0.000012   -0.03     -0.03   
    54. D(C   6,C   8,C   2,H  13)    120.15  0.000161   -0.04    120.11   
    55. D(C  10,C   8,C   6,O   9)    180.00  0.000027   -0.06    179.94   
    56. D(C  10,C   8,C   6,C   4)      0.00 -0.000012    0.02      0.02   
    57. D(C   2,C   8,C   6,O   9)      0.00  0.000014   -0.03     -0.03   
    58. D(C   2,C   8,C   6,C   4)   -180.00 -0.000025    0.06   -179.94   
    59. D(C  10,C   8,C   2,H  14)     59.85 -0.000151    0.01     59.85   
    60. D(C  10,C   8,C   2,H  13)    -59.85  0.000148   -0.01    -59.86   
    61. D(C  10,C   8,C   2,H  12)   -180.00 -0.000001   -0.00   -180.00   
    62. D(H   3,C  10,C   8,C   6)    180.00  0.000002   -0.00    180.00   
    63. D(H   3,C  10,C   8,C   2)     -0.00  0.000014   -0.03     -0.03   
    64. D(C   0,C  10,C   8,C   6)      0.00  0.000014   -0.03     -0.03   
    65. D(C   0,C  10,C   8,C   2)   -180.00  0.000027   -0.06   -180.06   
    66. D(C   8,C  10,C   0,H  11)    180.00 -0.000010    0.02    180.02   
    67. D(C   8,C  10,C   0,C   1)     -0.00 -0.000005    0.01      0.01   
    68. D(H   3,C  10,C   0,H  11)      0.00  0.000003   -0.01     -0.01   
    69. D(H   3,C  10,C   0,C   1)   -180.00  0.000008   -0.02   -180.02   
    ----------------------------------------------------------------------------

         *************************************************************
         *                GEOMETRY OPTIMIZATION CYCLE   2            *
         *************************************************************
---------------------------------
CARTESIAN COORDINATES (ANGSTROEM)
---------------------------------
  C     -5.266193   -6.508977    2.935621
  C     -5.099588   -5.250902    3.521961
  C     -2.939809   -6.296426   -0.078519
  H     -4.671930   -7.790212    1.303221
  C     -4.230907   -4.320535    2.944350
  H     -5.643473   -4.983954    4.432294
  C     -3.475213   -4.576767    1.754451
  H     -4.114387   -3.340380    3.420104
  C     -3.672652   -5.880845    1.180922
  O     -2.681471   -3.689672    1.253267
  C     -4.549708   -6.808433    1.770861
  H     -5.942154   -7.245470    3.376925
  H     -2.281735   -5.503947   -0.459130
  H     -2.315197   -7.183445    0.111768
[...]
 243   0.0000       4.060118       110.4814 
 244   0.0000       4.064031       110.5879 
 245   0.0000       4.139756       112.6485 
 246   0.0000       4.142015       112.7100 
 247   0.0000       4.165988       113.3623 
 248   0.0000       4.176943       113.6604 
 249   0.0000       4.220390       114.8427 
 250   0.0000       4.245127       115.5158 
 251   0.0000       4.264259       116.0364 
 252   0.0000       4.335060       117.9630 
 253   0.0000       4.406690       119.9121 
 254   0.0000       4.457727       121.3009 
 255   0.0000       4.506577       122.6302 
 256   0.0000       4.522595       123.0661 
 257   0.0000       4.555443       123.9599 
 258   0.0000       4.599063       125.1469 
 259   0.0000       4.651052       126.5616 
 260   0.0000       4.701059       127.9223 
 261   0.0000       4.806444       130.7900 
 262   0.0000       4.820052       131.1603 
 263   0.0000       4.964492       135.0907 
 264   0.0000       4.998834       136.0252 
 265   0.0000       5.049814       137.4124 
 266   0.0000       5.144015       139.9758 
 267   0.0000       5.163949       140.5182 
 268   0.0000       5.188634       141.1899 
 269   0.0000       5.273629       143.5027 
 270   0.0000       5.326775       144.9489 
 271   0.0000       5.447771       148.2414 
 272   0.0000       5.525984       150.3697 
 273   0.0000       5.651978       153.7981 
 274   0.0000       5.909530       160.8065 
 275   0.0000       6.214964       169.1178 
 276   0.0000       6.302801       171.5079 
 277   0.0000       6.453217       175.6010 
 278   0.0000       6.523179       177.5047 
 279   0.0000       6.727960       183.0771 
 280   0.0000       6.947310       189.0459 
 281   0.0000       6.992110       190.2650 
 282   0.0000      21.817123       593.6741 
 283   0.0000      22.146712       602.6427 
 284   0.0000      22.332046       607.6859 
 285   0.0000      22.352573       608.2444 
 286   0.0000      22.520031       612.8012 
 287   0.0000      22.607777       615.1889 
 288   0.0000      23.101021       628.6107 
 289   0.0000      43.588385      1186.1003 

                    ********************************
                    * MULLIKEN POPULATION ANALYSIS *
                    ********************************

-----------------------
MULLIKEN ATOMIC CHARGES
-----------------------
   0 C :   -0.219366
   1 C :   -0.160536
   2 C :   -0.406482
   3 H :    0.102445
   4 C :   -0.281728
   5 H :    0.107627
   6 C :    0.144208
   7 H :    0.063063
   8 C :    0.023924
   9 O :   -0.608063
  10 C :   -0.220260
  11 H :    0.109270
  12 H :    0.106457
  13 H :    0.119711
  14 H :    0.119731
Sum of atomic charges:   -1.0000000

--------------------------------
MULLIKEN REDUCED ORBITAL CHARGES
--------------------------------
  0 C s       :     3.199120  s :     3.199120
      pz      :     0.966878  p :     2.928215
      px      :     1.018894
      py      :     0.942443
      dz2     :     0.019284  d :     0.085332
      dxz     :     0.011035
      dyz     :     0.025105
      dx2y2   :     0.010213
      dxy     :     0.019695
      f0      :     0.001075  f :     0.006699
      f+1     :     0.000526
      f-1     :     0.001223
      f+2     :     0.001021
      f-2     :     0.001255
      f+3     :     0.000970
      f-3     :     0.000628
  1 C s       :     3.195793  s :     3.195793
      pz      :     0.966961  p :     2.866940
      px      :     0.971336
      py      :     0.928643
      dz2     :     0.016548  d :     0.091048
      dxz     :     0.010894
      dyz     :     0.017683
      dx2y2   :     0.023821
      dxy     :     0.022102
      f0      :     0.000210  f :     0.006755
      f+1     :     0.000890
      f-1     :     0.001521
      f+2     :     0.000984
      f-2     :     0.000966
      f+3     :     0.001266
      f-3     :     0.000917
  2 C s       :     3.266061  s :     3.266061
      pz      :     0.980590  p :     3.084052
      px      :     1.030939
      py      :     1.072523
      dz2     :     0.017563  d :     0.053082
      dxz     :     0.009858
      dyz     :     0.010077
      dx2y2   :     0.003601
      dxy     :     0.011984
      f0      :     0.000640  f :     0.003287
      f+1     :     0.000767
      f-1     :     0.000353
      f+2     :     0.000416
      f-2     :     0.000606
      f+3     :     0.000486
      f-3     :     0.000020
  3 H s       :     0.876190  s :     0.876190
      pz      :     0.005716  p :     0.021364
      px      :     0.004678
      py      :     0.010971
  4 C s       :     3.298827  s :     3.298827
      pz      :     0.979006  p :     2.901856
      px      :     1.012736
      py      :     0.910114
      dz2     :     0.017568  d :     0.074431
      dxz     :     0.013543
      dyz     :     0.016921
      dx2y2   :     0.018102
      dxy     :     0.008297
      f0      :     0.000945  f :     0.006614
      f+1     :     0.001004
      f-1     :     0.000828
      f+2     :     0.001167
      f-2     :     0.001084
      f+3     :     0.000642
      f-3     :     0.000944
  5 H s       :     0.870972  s :     0.870972
      pz      :     0.010184  p :     0.021401
      px      :     0.006681
      py      :     0.004536
  6 C s       :     2.974004  s :     2.974004
      pz      :     0.892750  p :     2.705084
      px      :     0.877206
      py      :     0.935128
      dz2     :     0.032628  d :     0.161158
      dxz     :     0.023856
      dyz     :     0.035765
      dx2y2   :     0.041344
      dxy     :     0.027565
      f0      :     0.001415  f :     0.015547
      f+1     :     0.001733
      f-1     :     0.003028
      f+2     :     0.002018
      f-2     :     0.002512
      f+3     :     0.002671
      f-3     :     0.002169
  7 H s       :     0.915087  s :     0.915087
      pz      :     0.005840  p :     0.021850
      px      :     0.004994
      py      :     0.011016
  8 C s       :     3.219719  s :     3.219719
      pz      :     0.879156  p :     2.624848
      px      :     0.907528
      py      :     0.838165
      dz2     :     0.026483  d :     0.122499
      dxz     :     0.018831
      dyz     :     0.029923
      dx2y2   :     0.022797
      dxy     :     0.024465
      f0      :     0.000961  f :     0.009010
      f+1     :     0.001216
      f-1     :     0.001662
      f+2     :     0.001432
      f-2     :     0.001205
      f+3     :     0.001332
      f-3     :     0.001203
  9 O s       :     3.769163  s :     3.769163
      pz      :     1.684315  p :     4.811541
      px      :     1.532808
      py      :     1.594418
      dz2     :     0.003698  d :     0.025893
      dxz     :     0.003951
      dyz     :     0.005216
      dx2y2   :     0.006066
      dxy     :     0.006961
      f0      :     0.000129  f :     0.001466
      f+1     :     0.000144
      f-1     :     0.000189
      f+2     :     0.000157
      f-2     :     0.000306
      f+3     :     0.000256
      f-3     :     0.000284
 10 C s       :     3.248399  s :     3.248399
      pz      :     0.955003  p :     2.874749
      px      :     0.970310
      py      :     0.949437
      dz2     :     0.021472  d :     0.090251
      dxz     :     0.014757
      dyz     :     0.022033
      dx2y2   :     0.023305
      dxy     :     0.008684
      f0      :     0.001161  f :     0.006861
      f+1     :     0.000980
      f-1     :     0.000858
      f+2     :     0.001319
      f-2     :     0.000983
      f+3     :     0.000641
      f-3     :     0.000919
 11 H s       :     0.868754  s :     0.868754
      pz      :     0.005880  p :     0.021976
      px      :     0.008256
      py      :     0.007840
 12 H s       :     0.871039  s :     0.871039
      pz      :     0.005178  p :     0.022504
      px      :     0.007191
      py      :     0.010134
 13 H s       :     0.859559  s :     0.859559
      pz      :     0.004681  p :     0.020729
      px      :     0.007089
      py      :     0.008959
 14 H s       :     0.859527  s :     0.859527
      pz      :     0.008857  p :     0.020742
      px      :     0.006963
      py      :     0.004922


                     *******************************
                     * LOEWDIN POPULATION ANALYSIS *
                     *******************************

----------------------
LOEWDIN ATOMIC CHARGES
----------------------
   0 C :   -0.241134
   1 C :   -0.211120
   2 C :   -0.299818
   3 H :    0.142557
   4 C :   -0.202929
   5 H :    0.139228
   6 C :   -0.404307
   7 H :    0.130171
   8 C :   -0.196692
   9 O :   -0.187675
  10 C :   -0.176332
  11 H :    0.135490
  12 H :    0.120651
  13 H :    0.125974
  14 H :    0.125936

-------------------------------
LOEWDIN REDUCED ORBITAL CHARGES
-------------------------------
  0 C s       :     2.773310  s :     2.773310
      pz      :     1.027994  p :     3.041274
      px      :     0.991925
      py      :     1.021355
      dz2     :     0.084363  d :     0.385013
      dxz     :     0.056145
      dyz     :     0.108285
      dx2y2   :     0.050347
      dxy     :     0.085873
      f0      :     0.005975  f :     0.041537
      f+1     :     0.004954
      f-1     :     0.008158
      f+2     :     0.006634
      f-2     :     0.005503
      f+3     :     0.006098
      f-3     :     0.004215
  1 C s       :     2.776721  s :     2.776721
      pz      :     0.966923  p :     2.985026
      px      :     0.966658
      py      :     1.051444
      dz2     :     0.066011  d :     0.407199
      dxz     :     0.055078
      dyz     :     0.093073
      dx2y2   :     0.098073
      dxy     :     0.094965
      f0      :     0.002276  f :     0.042175
      f+1     :     0.004224
      f-1     :     0.009939
      f+2     :     0.006412
      f-2     :     0.005945
      f+3     :     0.008532
      f-3     :     0.004846
  2 C s       :     2.828394  s :     2.828394
      pz      :     1.049332  p :     3.189008
      px      :     1.068403
      py      :     1.071273
      dz2     :     0.071014  d :     0.257710
      dxz     :     0.065209
      dyz     :     0.041428
      dx2y2   :     0.015379
      dxy     :     0.064679
      f0      :     0.004654  f :     0.024706
      f+1     :     0.003851
      f-1     :     0.004397
      f+2     :     0.004626
      f-2     :     0.002629
      f+3     :     0.003390
      f-3     :     0.001158
  3 H s       :     0.799685  s :     0.799685
      pz      :     0.015758  p :     0.057758
      px      :     0.012945
      py      :     0.029055
  4 C s       :     2.785675  s :     2.785675
      pz      :     1.010546  p :     3.018188
      px      :     1.014199
      py      :     0.993443
      dz2     :     0.076165  d :     0.360663
      dxz     :     0.070168
      dyz     :     0.084467
      dx2y2   :     0.080839
      dxy     :     0.049024
      f0      :     0.005112  f :     0.038404
      f+1     :     0.006172
      f-1     :     0.005971
      f+2     :     0.005534
      f-2     :     0.005945
      f+3     :     0.004745
      f-3     :     0.004925
  5 H s       :     0.802698  s :     0.802698
      pz      :     0.027161  p :     0.058074
      px      :     0.018077
      py      :     0.012835
  6 C s       :     2.738130  s :     2.738130
      pz      :     0.957637  p :     2.805598
      px      :     0.886199
      py      :     0.961761
      dz2     :     0.148156  d :     0.761757
      dxz     :     0.120957
      dyz     :     0.163424
      dx2y2   :     0.184453
      dxy     :     0.144767
      f0      :     0.009132  f :     0.098822
      f+1     :     0.010325
      f-1     :     0.020477
      f+2     :     0.012752
      f-2     :     0.015300
      f+3     :     0.017393
      f-3     :     0.013444
  7 H s       :     0.810373  s :     0.810373
      pz      :     0.016215  p :     0.059456
      px      :     0.013879
      py      :     0.029361
  8 C s       :     2.732217  s :     2.732217
      pz      :     0.958101  p :     2.920550
      px      :     0.953435
      py      :     1.009014
      dz2     :     0.103838  d :     0.491923
      dxz     :     0.080736
      dyz     :     0.115822
      dx2y2   :     0.097934
      dxy     :     0.093594
      f0      :     0.006202  f :     0.052002
      f+1     :     0.006124
      f-1     :     0.010240
      f+2     :     0.008090
      f-2     :     0.007018
      f+3     :     0.008369
      f-3     :     0.005960
  9 O s       :     3.440561  s :     3.440561
      pz      :     1.605887  p :     4.682961
      px      :     1.511224
      py      :     1.565850
      dz2     :     0.008834  d :     0.059460
      dxz     :     0.010223
      dyz     :     0.010994
      dx2y2   :     0.013371
      dxy     :     0.016037
      f0      :     0.000422  f :     0.004693
      f+1     :     0.000467
      f-1     :     0.000582
      f+2     :     0.000440
      f-2     :     0.001059
      f+3     :     0.000904
      f-3     :     0.000819
 10 C s       :     2.770033  s :     2.770033
      pz      :     1.003863  p :     2.962484
      px      :     0.979347
      py      :     0.979274
      dz2     :     0.092207  d :     0.402488
      dxz     :     0.073559
      dyz     :     0.097230
      dx2y2   :     0.092006
      dxy     :     0.047486
      f0      :     0.006492  f :     0.041327
      f+1     :     0.006178
      f-1     :     0.006522
      f+2     :     0.006003
      f-2     :     0.006108
      f+3     :     0.004719
      f-3     :     0.005305
 11 H s       :     0.804439  s :     0.804439
      pz      :     0.016294  p :     0.060071
      px      :     0.022373
      py      :     0.021405
 12 H s       :     0.815512  s :     0.815512
      pz      :     0.013769  p :     0.063837
      px      :     0.020450
      py      :     0.029618
 13 H s       :     0.813470  s :     0.813470
      pz      :     0.013403  p :     0.060555
      px      :     0.020198
      py      :     0.026954
 14 H s       :     0.813504  s :     0.813504
      pz      :     0.024409  p :     0.060560
      px      :     0.021628
      py      :     0.014524


                      *****************************
                      * MAYER POPULATION ANALYSIS *
                      *****************************

  NA   - Mulliken gross atomic population
  ZA   - Total nuclear charge
  QA   - Mulliken gross atomic charge
  VA   - Mayer's total valence
  BVA  - Mayer's bonded valence
  FA   - Mayer's free valence

  ATOM       NA         ZA         QA         VA         BVA        FA
  0 C      6.2194     6.0000    -0.2194     3.8702     3.8702    -0.0000
  1 C      6.1605     6.0000    -0.1605     3.8458     3.8458     0.0000
  2 C      6.4065     6.0000    -0.4065     3.8380     3.8380     0.0000
  3 H      0.8976     1.0000     0.1024     0.9718     0.9718    -0.0000
  4 C      6.2817     6.0000    -0.2817     3.8126     3.8126    -0.0000
  5 H      0.8924     1.0000     0.1076     0.9628     0.9628     0.0000
  6 C      5.8558     6.0000     0.1442     4.2062     4.2062    -0.0000
  7 H      0.9369     1.0000     0.0631     1.0117     1.0117     0.0000
  8 C      5.9761     6.0000     0.0239     3.3173     3.3173    -0.0000
  9 O      8.6081     8.0000    -0.6081     1.9261     1.9261     0.0000
 10 C      6.2203     6.0000    -0.2203     3.8187     3.8187    -0.0000
 11 H      0.8907     1.0000     0.1093     0.9663     0.9663    -0.0000
 12 H      0.8935     1.0000     0.1065     1.0292     1.0292     0.0000
 13 H      0.8803     1.0000     0.1197     0.9667     0.9667     0.0000
 14 H      0.8803     1.0000     0.1197     0.9664     0.9664     0.0000

  Mayer bond orders larger than 0.100000
B(  0-C ,  1-C ) :   1.3624 B(  0-C , 10-C ) :   1.3683 B(  0-C , 11-H ) :   0.9778 
B(  1-C ,  4-C ) :   1.4215 B(  1-C ,  5-H ) :   0.9650 B(  2-C ,  8-C ) :   0.9413 
B(  2-C , 12-H ) :   0.9739 B(  2-C , 13-H ) :   0.9588 B(  2-C , 14-H ) :   0.9583 
B(  3-H , 10-C ) :   0.9810 B(  4-C ,  6-C ) :   1.2766 B(  4-C ,  7-H ) :   0.9839 
B(  6-C ,  8-C ) :   1.0725 B(  6-C ,  9-O ) :   1.7532 B(  8-C , 10-C ) :   1.3186 


-------
TIMINGS
-------

Total SCF time: 0 days 0 hours 0 min 26 sec 

Total time                  ....      26.099 sec
Sum of individual times     ....      24.559 sec  ( 94.1%)

Fock matrix formation       ....      23.234 sec  ( 89.0%)
  Split-RI-J                ....       4.256 sec  ( 18.3% of F)
  XC integration            ....      11.097 sec  ( 47.8% of F)
    Basis function eval.    ....       3.400 sec  ( 30.6% of XC)
    Density eval.           ....       2.872 sec  ( 25.9% of XC)
    XC-Functional eval.     ....       0.437 sec  (  3.9% of XC)
    XC-Potential eval.      ....       3.071 sec  ( 27.7% of XC)
Diagonalization             ....       0.019 sec  (  0.1%)
Density matrix formation    ....       0.006 sec  (  0.0%)
Population analysis         ....       0.163 sec  (  0.6%)
Initial guess               ....       0.019 sec  (  0.1%)
Orbital Transformation      ....       0.000 sec  (  0.0%)
Orbital Orthonormalization  ....       0.015 sec  (  0.1%)
DIIS solution               ....       0.005 sec  (  0.0%)
SOSCF solution              ....       0.145 sec  (  0.6%)
Grid generation             ....       0.967 sec  (  3.7%)

Maximum memory used throughout the entire SCF-calculation: 119.2 MB

-------------------------   --------------------
FINAL SINGLE POINT ENERGY      -346.008266113292
-------------------------   --------------------

                                *** OPTIMIZATION RUN DONE ***

                            ***************************************
                            *     ORCA property calculations      *
                            ***************************************

                                    ---------------------
                                    Active property flags
                                    ---------------------
   (+) Dipole Moment


------------------------------------------------------------------------------
                       ORCA ELECTRIC PROPERTIES CALCULATION
------------------------------------------------------------------------------

Dipole Moment Calculation                       ... on
Quadrupole Moment Calculation                   ... off
Polarizability Calculation                      ... off
GBWName                                         ... inp.gbw
Electron density                                ... inp.scfp
The origin for moment calculation is the CENTER OF MASS  = (-7.466169, -10.215131  3.522469)

-------------
DIPOLE MOMENT
-------------
                                X             Y             Z
Electronic contribution:     -0.31938       2.41812       1.97907
Nuclear contribution   :     -0.85607      -4.36092      -1.62955
                        -----------------------------------------
Total Dipole Moment    :     -1.17544      -1.94280       0.34953
                        -----------------------------------------
Magnitude (a.u.)       :      2.29745
Magnitude (Debye)      :      5.83966



--------------------
Rotational spectrum 
--------------------
 
Rotational constants in cm-1:     0.108461     0.074168     0.044414 
Rotational constants in MHz :  3251.587103  2223.505931  1331.489779 

 Dipole components along the rotational axes: 
x,y,z [a.u.] :     1.379782    -1.836977     0.001837 
x,y,z [Debye]:     3.507128    -4.669225     0.004669 

 

Timings for individual modules:

Sum of individual times         ...      395.051 sec (=   6.584 min)
GTO integral calculation        ...        8.911 sec (=   0.149 min)   2.3 %
SCF iterations                  ...      288.971 sec (=   4.816 min)  73.1 %
SCF Gradient evaluation         ...       95.922 sec (=   1.599 min)  24.3 %
Geometry relaxation             ...        1.247 sec (=   0.021 min)   0.3 %
                             ****ORCA TERMINATED NORMALLY****
TOTAL RUN TIME: 0 days 0 hours 6 minutes 39 seconds 472 msec
