
                                 *****************
                                 * O   R   C   A *
                                 *****************

                                            #,                                       
                                            ###                                      
                                            ####                                     
                                            #####                                    
                                            ######                                   
                                           ########,                                 
                                     ,,################,,,,,                         
                               ,,#################################,,                 
                          ,,##########################################,,             
                       ,#########################################, ''#####,          
                    ,#############################################,,   '####,        
                  ,##################################################,,,,####,       
                ,###########''''           ''''###############################       
              ,#####''   ,,,,##########,,,,          '''####'''          '####       
            ,##' ,,,,###########################,,,                        '##       
           ' ,,###''''                  '''############,,,                           
         ,,##''                                '''############,,,,        ,,,,,,###''
      ,#''                                            '''#######################'''  
     '                                                          ''''####''''         
             ,#######,   #######,   ,#######,      ##                                
            ,#'     '#,  ##    ##  ,#'     '#,    #''#        ######   ,####,        
            ##       ##  ##   ,#'  ##            #'  '#       #        #'  '#        
            ##       ##  #######   ##           ,######,      #####,   #    #        
            '#,     ,#'  ##    ##  '#,     ,#' ,#      #,         ##   #,  ,#        
             '#######'   ##     ##  '#######'  #'      '#     #####' # '####'        



                  #######################################################
                  #                        -***-                        #
                  #          Department of theory and spectroscopy      #
                  #    Directorship and core code : Frank Neese         #
                  #        Max Planck Institute fuer Kohlenforschung    #
                  #                Kaiser Wilhelm Platz 1               #
                  #                 D-45470 Muelheim/Ruhr               #
                  #                      Germany                        #
                  #                                                     #
                  #                  All rights reserved                #
                  #                        -***-                        #
                  #######################################################


                         Program Version 5.0.4 -  RELEASE  -


 With contributions from (in alphabetic order):
   Daniel Aravena         : Magnetic Suceptibility
   Michael Atanasov       : Ab Initio Ligand Field Theory (pilot matlab implementation)
   Alexander A. Auer      : GIAO ZORA, VPT2 properties, NMR spectrum
   Ute Becker             : Parallelization
   Giovanni Bistoni       : ED, misc. LED, open-shell LED, HFLD
   Martin Brehm           : Molecular dynamics
   Dmytro Bykov           : SCF Hessian
   Vijay G. Chilkuri      : MRCI spin determinant printing, contributions to CSF-ICE
   Dipayan Datta          : RHF DLPNO-CCSD density
   Achintya Kumar Dutta   : EOM-CC, STEOM-CC
   Dmitry Ganyushin       : Spin-Orbit,Spin-Spin,Magnetic field MRCI
   Miquel Garcia          : C-PCM and meta-GGA Hessian, CC/C-PCM, Gaussian charge scheme
   Yang Guo               : DLPNO-NEVPT2, F12-NEVPT2, CIM, IAO-localization
   Andreas Hansen         : Spin unrestricted coupled pair/coupled cluster methods
   Benjamin Helmich-Paris : MC-RPA, TRAH-SCF, COSX integrals
   Lee Huntington         : MR-EOM, pCC
   Robert Izsak           : Overlap fitted RIJCOSX, COSX-SCS-MP3, EOM
   Marcus Kettner         : VPT2
   Christian Kollmar      : KDIIS, OOCD, Brueckner-CCSD(T), CCSD density, CASPT2, CASPT2-K
   Simone Kossmann        : Meta GGA functionals, TD-DFT gradient, OOMP2, MP2 Hessian
   Martin Krupicka        : Initial AUTO-CI
   Lucas Lang             : DCDCAS
   Marvin Lechner         : AUTO-CI (C++ implementation), FIC-MRCC
   Dagmar Lenk            : GEPOL surface, SMD
   Dimitrios Liakos       : Extrapolation schemes; Compound Job, initial MDCI parallelization
   Dimitrios Manganas     : Further ROCIS development; embedding schemes
   Dimitrios Pantazis     : SARC Basis sets
   Anastasios Papadopoulos: AUTO-CI, single reference methods and gradients
   Taras Petrenko         : DFT Hessian,TD-DFT gradient, ASA, ECA, R-Raman, ABS, FL, XAS/XES, NRVS
   Peter Pinski           : DLPNO-MP2, DLPNO-MP2 Gradient
   Christoph Reimann      : Effective Core Potentials
   Marius Retegan         : Local ZFS, SOC
   Christoph Riplinger    : Optimizer, TS searches, QM/MM, DLPNO-CCSD(T), (RO)-DLPNO pert. Triples
   Tobias Risthaus        : Range-separated hybrids, TD-DFT gradient, RPA, STAB
   Michael Roemelt        : Original ROCIS implementation
   Masaaki Saitow         : Open-shell DLPNO-CCSD energy and density
   Barbara Sandhoefer     : DKH picture change effects
   Avijit Sen             : IP-ROCIS
   Kantharuban Sivalingam : CASSCF convergence, NEVPT2, FIC-MRCI
   Bernardo de Souza      : ESD, SOC TD-DFT
   Georgi Stoychev        : AutoAux, RI-MP2 NMR, DLPNO-MP2 response
   Willem Van den Heuvel  : Paramagnetic NMR
   Boris Wezisla          : Elementary symmetry handling
   Frank Wennmohs         : Technical directorship


 We gratefully acknowledge several colleagues who have allowed us to
 interface, adapt or use parts of their codes:
   Stefan Grimme, W. Hujo, H. Kruse, P. Pracht,  : VdW corrections, initial TS optimization,
                  C. Bannwarth, S. Ehlert          DFT functionals, gCP, sTDA/sTD-DF
   Ed Valeev, F. Pavosevic, A. Kumar             : LibInt (2-el integral package), F12 methods
   Garnet Chan, S. Sharma, J. Yang, R. Olivares  : DMRG
   Ulf Ekstrom                                   : XCFun DFT Library
   Mihaly Kallay                                 : mrcc  (arbitrary order and MRCC methods)
   Jiri Pittner, Ondrej Demel                    : Mk-CCSD
   Frank Weinhold                                : gennbo (NPA and NBO analysis)
   Christopher J. Cramer and Donald G. Truhlar   : smd solvation model
   Lars Goerigk                                  : TD-DFT with DH, B97 family of functionals
   V. Asgeirsson, H. Jonsson                     : NEB implementation
   FAccTs GmbH                                   : IRC, NEB, NEB-TS, DLPNO-Multilevel, CI-OPT
                                                   MM, QMMM, 2- and 3-layer-ONIOM, Crystal-QMMM,
                                                   LR-CPCM, SF, NACMEs, symmetry and pop. for TD-DFT,
                                                   nearIR, NL-DFT gradient (VV10), updates on ESD,
                                                   ML-optimized integration grids
   S Lehtola, MJT Oliveira, MAL Marques          : LibXC Library
   Liviu Ungur et al                             : ANISO software


 Your calculation uses the libint2 library for the computation of 2-el integrals
 For citations please refer to: http://libint.valeyev.net

 Your ORCA version has been built with support for libXC version: 5.1.0
 For citations please refer to: https://tddft.org/programs/libxc/

 This ORCA versions uses:
   CBLAS   interface :  Fast vector & matrix operations
   LAPACKE interface :  Fast linear algebra routines
   SCALAPACK package :  Parallel linear algebra routines
   Shared memory     :  Shared parallel matrices
   BLAS/LAPACK       :  OpenBLAS 0.3.15  USE64BITINT DYNAMIC_ARCH NO_AFFINITY Haswell SINGLE_THREADED
        Core in use  :  Haswell
   Copyright (c) 2011-2014, The OpenBLAS Project


Your calculation utilizes the atom-pairwise dispersion correction
with the Becke-Johnson damping scheme (D3BJ)
Cite in your paper:
S.Grimme, S.Ehrlich, L.Goerigk, J Comput Chem, (2011), 32, 1456–1465 
S.Grimme, J.Antony, S.Ehrlich and H.Krieg, J.Chem.Phys., 132, (2010), 154104 
   

================================================================================

----- Orbital basis set information -----
Your calculation utilizes the basis: def2-TZVP
   F. Weigend and R. Ahlrichs, Phys. Chem. Chem. Phys. 7, 3297 (2005).

----- AuxJ basis set information -----
Your calculation utilizes the auxiliary basis: def2/J
   F. Weigend, Phys. Chem. Chem. Phys. 8, 1057 (2006).

================================================================================
                                        WARNINGS
                       Please study these warnings very carefully!
================================================================================


WARNING: Geometry Optimization
  ===> : Switching off AutoStart
         For restart on a previous wavefunction, please use MOREAD

INFO   : the flag for use of the SHARK integral package has been found!

================================================================================
                                       INPUT FILE
================================================================================
NAME = inp.inp
|  1> !OPT PBE D3BJ def2-TZVP CPCM(water)
|  2> 
|  3> *xyz -1 1
|  4> C     -3.091171   -2.902271    0.333862
|  5> C     -4.568904   -3.398492    0.299112
|  6> F     -2.275744   -3.880984   -0.160814
|  7> F     -2.868614   -1.808820   -0.435777
|  8> F     -2.637027   -2.636153    1.582960
|  9> O     -5.423061   -2.491705    0.777338
| 10> H     -4.529523   -4.372416    0.813493
| 11> H     -4.711176   -3.721555   -0.744898
| 12> *
| 13> 
| 14>                          ****END OF INPUT****
================================================================================

                       *****************************
                       * Geometry Optimization Run *
                       *****************************

Geometry optimization settings:
Update method            Update   .... BFGS
Choice of coordinates    CoordSys .... Z-matrix Internals
Initial Hessian          InHess   .... Almoef's Model

Convergence Tolerances:
Energy Change            TolE     ....  5.0000e-06 Eh
Max. Gradient            TolMAXG  ....  3.0000e-04 Eh/bohr
RMS Gradient             TolRMSG  ....  1.0000e-04 Eh/bohr
Max. Displacement        TolMAXD  ....  4.0000e-03 bohr
RMS Displacement         TolRMSD  ....  2.0000e-03 bohr
Strict Convergence                ....  False
------------------------------------------------------------------------------
                        ORCA OPTIMIZATION COORDINATE SETUP
------------------------------------------------------------------------------

The optimization will be done in new redundant internal coordinates
Making redundant internal coordinates   ...  (new redundants) done
Evaluating the initial hessian          ...  (Almloef) done
Evaluating the coordinates              ...  done
Calculating the B-matrix                .... done
Calculating the G-matrix                .... done
Diagonalizing the G-matrix              .... done
The first mode is                       ....   10
The number of degrees of freedom        ....   18

    -----------------------------------------------------------------
                    Redundant Internal Coordinates


    -----------------------------------------------------------------
         Definition                    Initial Value    Approx d2E/dq
    -----------------------------------------------------------------
      1. B(C   1,C   0)                  1.5592         0.335563   
      2. B(F   2,C   0)                  1.3666         0.566700   
      3. B(F   3,C   0)                  1.3555         0.590109   
      4. B(F   4,C   0)                  1.3555         0.590269   
      5. B(O   5,C   1)                  1.3344         0.686479   
      6. B(H   6,C   1)                  1.1021         0.344420   
      7. B(H   7,C   1)                  1.1021         0.344476   
      8. A(F   2,C   0,F   4)          105.9181         0.414233   
      9. A(C   1,C   0,F   4)          113.6129         0.381891   
     10. A(C   1,C   0,F   2)          109.2398         0.379202   
     11. A(F   3,C   0,F   4)          108.0493         0.417227   
     12. A(F   2,C   0,F   3)          105.9154         0.414213   
     13. A(C   1,C   0,F   3)          113.5573         0.381873   
     14. A(C   0,C   1,O   5)          112.4831         0.393776   
     15. A(H   6,C   1,H   7)          100.8186         0.286820   
     16. A(O   5,C   1,H   7)          117.1344         0.354166   
     17. A(C   0,C   1,H   7)          103.6950         0.316378   
     18. A(O   5,C   1,H   6)          117.1371         0.354156   
     19. A(C   0,C   1,H   6)          103.7076         0.316369   
     20. D(O   5,C   1,C   0,F   3)    -62.3986         0.009139   
     21. D(O   5,C   1,C   0,F   4)     61.6221         0.009139   
     22. D(H   6,C   1,C   0,F   2)     52.1092         0.009139   
     23. D(H   6,C   1,C   0,F   3)    170.0796         0.009139   
     24. D(H   6,C   1,C   0,F   4)    -65.8997         0.009139   
     25. D(H   7,C   1,C   0,F   2)    -52.8597         0.009139   
     26. D(H   7,C   1,C   0,F   3)     65.1108         0.009139   
     27. D(H   7,C   1,C   0,F   4)   -170.8685         0.009139   
     28. D(O   5,C   1,C   0,F   2)    179.6309         0.009139   
    -----------------------------------------------------------------

Number of atoms                         .... 8
Number of degrees of freedom            .... 28

         *************************************************************
         *                GEOMETRY OPTIMIZATION CYCLE   1            *
         *************************************************************
---------------------------------
CARTESIAN COORDINATES (ANGSTROEM)
---------------------------------
  C     -3.091171   -2.902271    0.333862
  C     -4.568904   -3.398492    0.299112
  F     -2.275744   -3.880984   -0.160814
  F     -2.868614   -1.808820   -0.435777
  F     -2.637027   -2.636153    1.582960
  O     -5.423061   -2.491705    0.777338
  H     -4.529523   -4.372416    0.813493
  H     -4.711176   -3.721555   -0.744898

----------------------------
CARTESIAN COORDINATES (A.U.)
----------------------------
  NO LB      ZA    FRAG     MASS         X           Y           Z
   0 C     6.0000    0    12.011   -5.841467   -5.484497    0.630908
   1 C     6.0000    0    12.011   -8.633977   -6.422219    0.565240
   2 F     9.0000    0    18.998   -4.300533   -7.333997   -0.303894
   3 F     9.0000    0    18.998   -5.420895   -3.418174   -0.823499
   4 F     9.0000    0    18.998   -4.983259   -4.981607    2.991361
   5 O     8.0000    0    15.999  -10.248100   -4.708640    1.468956
   6 H     1.0000    0     1.008   -8.559558   -8.262669    1.537279
   7 H     1.0000    0     1.008   -8.902832   -7.032720   -1.407653

--------------------------------
INTERNAL COORDINATES (ANGSTROEM)
--------------------------------
 C      0   0   0     0.000000000000     0.00000000     0.00000000
 C      1   0   0     1.559210589571     0.00000000     0.00000000
 F      1   2   0     1.366566746878   109.23980514     0.00000000
 F      1   2   3     1.355548190944   113.55730363   117.97049040
 F      1   2   3     1.355474594474   113.61293674   241.99119259
 O      2   1   3     1.334371369257   112.48309285   179.63089770
 H      2   1   3     1.102119156034   103.70758565    52.10915547
 H      2   1   3     1.102074364121   103.69503742   307.14034478

---------------------------
INTERNAL COORDINATES (A.U.)
---------------------------
 C      0   0   0     0.000000000000     0.00000000     0.00000000
 C      1   0   0     2.946480999399     0.00000000     0.00000000
 F      1   2   0     2.582436895324   109.23980514     0.00000000
 F      1   2   3     2.561614842216   113.55730363   117.97049040
 F      1   2   3     2.561475765044   113.61293674   241.99119259
 O      2   1   3     2.521596448842   112.48309285   179.63089770
 H      2   1   3     2.082703371853   103.70758565    52.10915547
 H      2   1   3     2.082618727404   103.69503742   307.14034478

---------------------
BASIS SET INFORMATION
---------------------
There are 4 groups of distinct atoms

 Group   1 Type C   : 11s6p2d1f contracted to 5s3p2d1f pattern {62111/411/11/1}
 Group   2 Type F   : 11s6p2d1f contracted to 5s3p2d1f pattern {62111/411/11/1}
 Group   3 Type O   : 11s6p2d1f contracted to 5s3p2d1f pattern {62111/411/11/1}
 Group   4 Type H   : 5s1p contracted to 3s1p pattern {311/1}

Atom   0C    basis set group =>   1
Atom   1C    basis set group =>   1
Atom   2F    basis set group =>   2
Atom   3F    basis set group =>   2
Atom   4F    basis set group =>   2
Atom   5O    basis set group =>   3
Atom   6H    basis set group =>   4
Atom   7H    basis set group =>   4
---------------------------------
AUXILIARY/J BASIS SET INFORMATION
---------------------------------
There are 4 groups of distinct atoms

 Group   1 Type C   : 12s5p4d2f1g contracted to 6s4p3d1f1g pattern {711111/2111/211/2/1}
 Group   2 Type F   : 12s5p4d2f1g contracted to 6s4p3d1f1g pattern {711111/2111/211/2/1}
 Group   3 Type O   : 12s5p4d2f1g contracted to 6s4p3d1f1g pattern {711111/2111/211/2/1}
 Group   4 Type H   : 5s2p1d contracted to 3s1p1d pattern {311/2/1}

Atom   0C    basis set group =>   1
Atom   1C    basis set group =>   1
Atom   2F    basis set group =>   2
Atom   3F    basis set group =>   2
Atom   4F    basis set group =>   2
Atom   5O    basis set group =>   3
Atom   6H    basis set group =>   4
Atom   7H    basis set group =>   4
------------------------------------------------------------------------------
                           ORCA GTO INTEGRAL CALCULATION
                           -- RI-GTO INTEGRALS CHOSEN --
------------------------------------------------------------------------------
------------------------------------------------------------------------------
                   ___                                                        
                  /   \      - P O W E R E D   B Y -                         
                 /     \                                                     
                 |  |  |   _    _      __       _____    __    __             
                 |  |  |  | |  | |    /  \     |  _  \  |  |  /  |          
                  \  \/   | |  | |   /    \    | | | |  |  | /  /          
                 / \  \   | |__| |  /  /\  \   | |_| |  |  |/  /          
                |  |  |   |  __  | /  /__\  \  |    /   |      \           
                |  |  |   | |  | | |   __   |  |    \   |  |\   \          
                \     /   | |  | | |  |  |  |  | |\  \  |  | \   \       
                 \___/    |_|  |_| |__|  |__|  |_| \__\ |__|  \__/        
                                                                              
                      - O R C A' S   B I G   F R I E N D -                    
                                      &                                       
                       - I N T E G R A L  F E E D E R -                       
                                                                              
 v1 FN, 2020, v2 2021                                                         
------------------------------------------------------------------------------


Reading SHARK input file inp.SHARKINP.tmp ... ok
----------------------
SHARK INTEGRAL PACKAGE
----------------------

Number of atoms                             ...      8
Number of basis functions                   ...    198
Number of shells                            ...     74
Maximum angular momentum                    ...      3
Integral batch strategy                     ... SHARK/LIBINT Hybrid
RI-J (if used) integral strategy            ... SPLIT-RIJ (Revised 2003 algorithm where possible)
Printlevel                                  ...      1
Contraction scheme used                     ... SEGMENTED contraction
Coulomb Range Separation                    ... NOT USED
Exchange Range Separation                   ... NOT USED
Finite Nucleus Model                        ... NOT USED
Auxiliary Coulomb fitting basis             ... AVAILABLE
   # of basis functions in Aux-J            ...    316
   # of shells in Aux-J                     ...    100
   Maximum angular momentum in Aux-J        ...      4
Auxiliary J/K fitting basis                 ... NOT available
Auxiliary Correlation fitting basis         ... NOT available
Auxiliary 'external' fitting basis          ... NOT available
Integral threshold                          ...     2.500000e-11
Primitive cut-off                           ...     2.500000e-12
Primitive pair pre-selection threshold      ...     2.500000e-12

Calculating pre-screening integrals         ... done (  0.1 sec) Dimension = 74
Organizing shell pair data                  ... done (  0.1 sec)
Shell pair information
Total number of shell pairs                 ...      2775
Shell pairs after pre-screening             ...      2608
Total number of primitive shell pairs       ...      8916
Primitive shell pairs kept                  ...      6401
          la=0 lb=0:    595 shell pairs
          la=1 lb=0:    689 shell pairs
          la=1 lb=1:    209 shell pairs
          la=2 lb=0:    396 shell pairs
          la=2 lb=1:    237 shell pairs
          la=2 lb=2:     75 shell pairs
          la=3 lb=0:    199 shell pairs
          la=3 lb=1:    118 shell pairs
          la=3 lb=2:     70 shell pairs
          la=3 lb=3:     20 shell pairs

Calculating one electron integrals          ... done (  0.0 sec)
Calculating RI/J V-Matrix + Cholesky decomp.... done (  0.2 sec)
Calculating Nuclear repulsion               ... done (  0.0 sec) ENN=    259.530602257875 Eh

SHARK setup successfully completed in   0.8 seconds

Maximum memory used throughout the entire GTOINT-calculation: 50.4 MB
-------------------------------------------------------------------------------
                                 ORCA SCF
-------------------------------------------------------------------------------

------------
SCF SETTINGS
------------
Hamiltonian:
 Density Functional     Method          .... DFT(GTOs)
 Exchange Functional    Exchange        .... PBE
   PBE kappa parameter   XKappa         ....  0.804000
   PBE mue parameter    XMuePBE         ....  0.219520
 Correlation Functional Correlation     .... PBE
   PBE beta parameter  CBetaPBE         ....  0.066725
 LDA part of GGA corr.  LDAOpt          .... PW91-LDA
 Gradients option       PostSCFGGA      .... off
   Density functional embedding theory  .... OFF
   NL short-range parameter             ....  6.400000
 RI-approximation to the Coulomb term is turned on
   Number of AuxJ basis functions       .... 316


General Settings:
 Integral files         IntName         .... inp
 Hartree-Fock type      HFTyp           .... RHF
 Total Charge           Charge          ....   -1
 Multiplicity           Mult            ....    1
 Number of Electrons    NEL             ....   50
 Basis Dimension        Dim             ....  198
 Nuclear Repulsion      ENuc            ....    259.5306022579 Eh

Convergence Acceleration:
 DIIS                   CNVDIIS         .... on
   Start iteration      DIISMaxIt       ....    12
   Startup error        DIISStart       ....  0.200000
   # of expansion vecs  DIISMaxEq       ....     5
   Bias factor          DIISBfac        ....   1.050
   Max. coefficient     DIISMaxC        ....  10.000
 Trust-Rad. Augm. Hess. CNVTRAH         .... auto
   Auto Start mean grad. ratio tolernc. ....  1.125000
   Auto Start start iteration           ....    20
   Auto Start num. interpolation iter.  ....    10
   Max. Number of Micro iterations      ....    16
   Max. Number of Macro iterations      .... Maxiter - #DIIS iter
   Number of Davidson start vectors     ....     2
   Converg. threshold I  (grad. norm)   ....   1.000e-05
   Converg. threshold II (energy diff.) ....   1.000e-08
   Grad. Scal. Fac. for Micro threshold ....   0.100
   Minimum threshold for Micro iter.    ....   0.010
   NR start threshold (gradient norm)   ....   0.001
   Initial trust radius                 ....   0.400
   Minimum AH scaling param. (alpha)    ....   1.000
   Maximum AH scaling param. (alpha)    .... 1000.000
   Orbital update algorithm             .... Taylor
   White noise on init. David. guess    .... on
   Maximum white noise                  ....   0.010
   Quad. conv. algorithm                .... NR
 SOSCF                  CNVSOSCF        .... on
   Start iteration      SOSCFMaxIt      ....   150
   Startup grad/error   SOSCFStart      ....  0.003300
 Level Shifting         CNVShift        .... on
   Level shift para.    LevelShift      ....    0.2500
   Turn off err/grad.   ShiftErr        ....    0.0010
 Zerner damping         CNVZerner       .... off
 Static damping         CNVDamp         .... on
   Fraction old density DampFac         ....    0.7000
   Max. Damping (<1)    DampMax         ....    0.9800
   Min. Damping (>=0)   DampMin         ....    0.0000
   Turn off err/grad.   DampErr         ....    0.1000
 Fernandez-Rico         CNVRico         .... off

SCF Procedure:
 Maximum # iterations   MaxIter         ....   125
 SCF integral mode      SCFMode         .... Direct
   Integral package                     .... SHARK and LIBINT hybrid scheme
 Reset frequency        DirectResetFreq ....    20
 Integral Threshold     Thresh          ....  2.500e-11 Eh
 Primitive CutOff       TCut            ....  2.500e-12 Eh

Convergence Tolerance:
 Convergence Check Mode ConvCheckMode   .... Total+1el-Energy
 Convergence forced     ConvForced      .... 0
 Energy Change          TolE            ....  1.000e-08 Eh
 1-El. energy change                    ....  1.000e-05 Eh
 Orbital Gradient       TolG            ....  1.000e-05
 Orbital Rotation angle TolX            ....  1.000e-05
 DIIS Error             TolErr          ....  5.000e-07


Diagonalization of the overlap matrix:
Smallest eigenvalue                        ... 7.137e-04
Time for diagonalization                   ...    0.007 sec
Threshold for overlap eigenvalues          ... 1.000e-08
Number of eigenvalues below threshold      ... 0
Time for construction of square roots      ...    0.066 sec
Total time needed                          ...    0.073 sec

Time for model grid setup =    0.229 sec

------------------------------
INITIAL GUESS: MODEL POTENTIAL
------------------------------
Loading Hartree-Fock densities                     ... done
Calculating cut-offs                               ... done
Initializing the effective Hamiltonian             ... done
Setting up the integral package (SHARK)            ... done
Starting the Coulomb interaction                   ... done (   0.2 sec)
Reading the grid                                   ... done
Mapping shells                                     ... done
Starting the XC term evaluation                    ... done (   0.2 sec)
  promolecular density results
     # of electrons  =     48.998270250
     EX              =    -48.914512849
     EC              =     -1.682242587
     EX+EC           =    -50.596755436
Transforming the Hamiltonian                       ... done (   0.0 sec)
Diagonalizing the Hamiltonian                      ... done (   0.0 sec)
Back transforming the eigenvectors                 ... done (   0.0 sec)
Now organizing SCF variables                       ... done
                      ------------------
                      INITIAL GUESS DONE (   0.6 sec)
                      ------------------
-------------------
DFT GRID GENERATION
-------------------

General Integration Accuracy     IntAcc      ... 4.388
Radial Grid Type                 RadialGrid  ... OptM3 with GC (2021)
Angular Grid (max. ang.)         AngularGrid ... 4 (Lebedev-302)
Angular grid pruning method      GridPruning ... 4 (adaptive)
Weight generation scheme         WeightScheme... Becke
Basis function cutoff            BFCut       ... 1.0000e-11
Integration weight cutoff        WCut        ... 1.0000e-14
Angular grids for H and He will be reduced by one unit
Partially contracted basis set               ... off
Rotationally invariant grid construction     ... off

Total number of grid points                  ...    43108
Total number of batches                      ...      678
Average number of points per batch           ...       63
Average number of grid points per atom       ...     5388
Time for grid setup =    0.551 sec


--------------------
CPCM SOLVATION MODEL
--------------------
CPCM parameters:
  Epsilon                                         ...      80.4000
  Refrac                                          ...       1.3300
  Rsolv                                           ...       1.3000
  Surface type                                    ... GAUSSIAN VDW
  Epsilon function type                           ...         CPCM
Radii:
 Radius for C  used is    3.8550 Bohr (=   2.0400 Ang.)
 Radius for F  used is    3.3335 Bohr (=   1.7640 Ang.)
 Radius for O  used is    3.4469 Bohr (=   1.8240 Ang.)
 Radius for H  used is    2.4944 Bohr (=   1.3200 Ang.)
Calculating surface                               ...        done! (  0.0s)
GEPOL surface points                              ...          528
GEPOL Volume                                      ...     636.8245
GEPOL Surface-area                                ...     406.3501
Calculating surface distance matrix               ...        done! (  0.0s)
Performing Cholesky decomposition & store         ...        done! (  0.1s)
Overall time for CPCM initialization              ...                 0.1s
--------------
SCF ITERATIONS
--------------
ITER       Energy         Delta-E        Max-DP      RMS-DP      [F,P]     Damp
               ***  Starting incremental Fock matrix formation  ***
  0   -451.7639303528   0.000000000000 0.12477338  0.00273118  0.3856928 0.7000
  1   -451.9026780441  -0.138747691339 0.10368593  0.00183909  0.1017150 0.7000
                               ***Turning on DIIS***
  2   -451.9350203628  -0.032342318649 0.09343917  0.00201918  0.0261373 0.0000
  3   -452.0201799875  -0.085159624673 0.09092975  0.00150490  0.0462900 0.0000
  4   -452.0260529482  -0.005872960734 0.02452161  0.00039966  0.0446793 0.0000
  5   -452.0285291790  -0.002476230796 0.00888817  0.00013631  0.0088663 0.0000
  6   -452.0286745695  -0.000145390453 0.00331861  0.00005216  0.0033009 0.0000
                      *** Initiating the SOSCF procedure ***
                           *** Shutting down DIIS ***
                      *** Re-Reading the Fockian *** 
                      *** Removing any level shift *** 
ITER      Energy       Delta-E        Grad      Rot      Max-DP    RMS-DP
  7   -452.02869328  -0.0000187061  0.000207  0.000207  0.001051  0.000023
               *** Restarting incremental Fock matrix formation ***
  8   -452.02869571  -0.0000024380  0.000096  0.000488  0.001571  0.000028
  9   -452.02869547   0.0000002465  0.000145  0.000132  0.000193  0.000006
 10   -452.02869600  -0.0000005288  0.000029  0.000077  0.000164  0.000004
 11   -452.02869597   0.0000000221  0.000040  0.000040  0.000046  0.000001
 12   -452.02869601  -0.0000000352  0.000005  0.000015  0.000042  0.000001
 13   -452.02869601   0.0000000004  0.000008  0.000006  0.000017  0.000000
                  ***Gradient check signals convergence***
              ***Rediagonalizing the Fockian in SOSCF/NRSCF***

               *****************************************************
               *                     SUCCESS                       *
               *           SCF CONVERGED AFTER  14 CYCLES          *
               *****************************************************


----------------
TOTAL SCF ENERGY
----------------

Total Energy       :         -452.02869601 Eh          -12300.32615 eV

Components:
Nuclear Repulsion  :          259.53060226 Eh            7062.18672 eV
Electronic Energy  :         -711.55929827 Eh          -19362.51288 eV
One Electron Energy:        -1152.44703244 Eh          -31359.67805 eV
Two Electron Energy:          440.88773417 Eh           11997.16517 eV
CPCM Dielectric    :           -0.10622861 Eh              -2.89063 eV

Virial components:
Potential Energy   :         -902.66880516 Eh          -24562.86694 eV
Kinetic Energy     :          450.64010915 Eh           12262.54079 eV
Virial Ratio       :            2.00308137


DFT components:
N(Alpha)           :       25.000007163900 electrons
N(Beta)            :       25.000007163900 electrons
N(Total)           :       50.000014327801 electrons
E(X)               :      -49.674522982418 Eh       
E(C)               :       -1.713797269290 Eh       
E(XC)              :      -51.388320251708 Eh       
DFET-embed. en.    :        0.000000000000 Eh       
CPCM Solvation Model Properties:
Surface-charge          :            0.98134953
Charge-correction       :           -0.00340080 Eh              -0.09254 eV
Free-energy (cav+disp)  :  This term is not implemented in the current solvation scheme

---------------
SCF CONVERGENCE
---------------

  Last Energy change         ...   -2.0854e-09  Tolerance :   1.0000e-08
  Last MAX-Density change    ...    9.3531e-06  Tolerance :   1.0000e-07
  Last RMS-Density change    ...    1.8215e-07  Tolerance :   5.0000e-09
  Last Orbital Gradient      ...    7.6635e-07  Tolerance :   1.0000e-05
  Last Orbital Rotation      ...    2.4729e-06  Tolerance :   1.0000e-05

             **** THE GBW FILE WAS UPDATED (inp.gbw) ****
             **** DENSITY inp.scfp WAS UPDATED ****
             **** ENERGY FILE WAS UPDATED (inp.en.tmp) ****
             **** THE GBW FILE WAS UPDATED (inp.gbw) ****
             **** DENSITY inp.scfp WAS UPDATED ****
----------------
ORBITAL ENERGIES
----------------

  NO   OCC          E(Eh)            E(eV) 
   0   2.0000     -24.270440      -660.4322 
   1   2.0000     -24.270395      -660.4310 
   2   2.0000     -24.262879      -660.2265 
   3   2.0000     -18.622462      -506.7430 
   4   2.0000     -10.080998      -274.3179 
   5   2.0000      -9.892421      -269.1865 
   6   2.0000      -1.184019       -32.2188 
   7   2.0000      -1.104870       -30.0650 
   8   2.0000      -1.097662       -29.8689 
   9   2.0000      -0.819131       -22.2897 
  10   2.0000      -0.636521       -17.3206 
  11   2.0000      -0.559837       -15.2339 
  12   2.0000      -0.514005       -13.9868 
  13   2.0000      -0.506938       -13.7945 
  14   2.0000      -0.444065       -12.0836 
  15   2.0000      -0.390988       -10.6393 
  16   2.0000      -0.389454       -10.5976 
  17   2.0000      -0.369128       -10.0445 
  18   2.0000      -0.352551        -9.5934 
  19   2.0000      -0.334385        -9.0991 
  20   2.0000      -0.329929        -8.9778 
  21   2.0000      -0.320645        -8.7252 
  22   2.0000      -0.288388        -7.8474 
  23   2.0000      -0.143093        -3.8937 
  24   2.0000      -0.134965        -3.6726 
  25   0.0000       0.053718         1.4617 
  26   0.0000       0.085847         2.3360 
  27   0.0000       0.098392         2.6774 
  28   0.0000       0.117786         3.2051 
  29   0.0000       0.135777         3.6947 
  30   0.0000       0.153278         4.1709 
  31   0.0000       0.174074         4.7368 
  32   0.0000       0.204039         5.5522 
  33   0.0000       0.241485         6.5711 
  34   0.0000       0.244184         6.6446 
  35   0.0000       0.277019         7.5381 
  36   0.0000       0.282735         7.6936 
  37   0.0000       0.313610         8.5338 
  38   0.0000       0.365838         9.9550 
  39   0.0000       0.373649        10.1675 
  40   0.0000       0.405772        11.0416 
  41   0.0000       0.412879        11.2350 
  42   0.0000       0.447798        12.1852 
  43   0.0000       0.473267        12.8782 
  44   0.0000       0.494907        13.4671 
  45   0.0000       0.497367        13.5340 
  46   0.0000       0.532884        14.5005 
  47   0.0000       0.543034        14.7767 
  48   0.0000       0.568444        15.4681 
  49   0.0000       0.636235        17.3128 
  50   0.0000       0.671571        18.2744 
  51   0.0000       0.690526        18.7902 
  52   0.0000       0.717268        19.5178 
  53   0.0000       0.749195        20.3866 
  54   0.0000       0.786520        21.4023 
  55   0.0000       0.788229        21.4488 
  56   0.0000       0.814263        22.1572 
  57   0.0000       0.834364        22.7042 
  58   0.0000       0.863673        23.5017 
  59   0.0000       0.893389        24.3103 
  60   0.0000       0.930897        25.3310 
  61   0.0000       0.943875        25.6841 
  62   0.0000       0.963817        26.2268 
  63   0.0000       1.045926        28.4611 
  64   0.0000       1.063864        28.9492 
  65   0.0000       1.128665        30.7125 
  66   0.0000       1.135432        30.8967 
  67   0.0000       1.207174        32.8489 
  68   0.0000       1.377329        37.4790 
  69   0.0000       1.456458        39.6322 
  70   0.0000       1.476946        40.1898 
  71   0.0000       1.576019        42.8857 
  72   0.0000       1.587187        43.1896 
  73   0.0000       1.635802        44.5124 
  74   0.0000       1.641331        44.6629 
  75   0.0000       1.654180        45.0125 
  76   0.0000       1.678970        45.6871 
  77   0.0000       1.696353        46.1601 
  78   0.0000       1.806236        49.1502 
  79   0.0000       1.852535        50.4100 
  80   0.0000       1.855129        50.4806 
  81   0.0000       1.873654        50.9847 
  82   0.0000       1.973628        53.7051 
  83   0.0000       1.984217        53.9933 
  84   0.0000       2.001448        54.4622 
  85   0.0000       2.022169        55.0260 
  86   0.0000       2.036830        55.4250 
  87   0.0000       2.067592        56.2620 
  88   0.0000       2.158749        58.7425 
  89   0.0000       2.159249        58.7561 
  90   0.0000       2.212348        60.2011 
  91   0.0000       2.240174        60.9582 
  92   0.0000       2.297273        62.5120 
  93   0.0000       2.311787        62.9069 
  94   0.0000       2.376761        64.6750 
  95   0.0000       2.441556        66.4381 
  96   0.0000       2.467728        67.1503 
  97   0.0000       2.485028        67.6211 
  98   0.0000       2.495930        67.9177 
  99   0.0000       2.523532        68.6688 
 100   0.0000       2.526168        68.7405 
 101   0.0000       2.673933        72.7614 
 102   0.0000       2.714276        73.8592 
 103   0.0000       2.735808        74.4451 
 104   0.0000       2.811194        76.4965 
 105   0.0000       2.842030        77.3356 
 106   0.0000       2.855705        77.7077 
 107   0.0000       2.907512        79.1174 
 108   0.0000       2.949222        80.2524 
 109   0.0000       2.993841        81.4666 
 110   0.0000       3.008801        81.8736 
 111   0.0000       3.013299        81.9960 
 112   0.0000       3.018816        82.1462 
 113   0.0000       3.045073        82.8606 
 114   0.0000       3.058716        83.2319 
 115   0.0000       3.133813        85.2754 
 116   0.0000       3.141918        85.4959 
 117   0.0000       3.157289        85.9142 
 118   0.0000       3.198269        87.0293 
 119   0.0000       3.242403        88.2303 
 120   0.0000       3.384147        92.0873 
 121   0.0000       3.402712        92.5925 
 122   0.0000       3.417113        92.9844 
 123   0.0000       3.424154        93.1760 
 124   0.0000       3.493975        95.0759 
 125   0.0000       3.667499        99.7977 
 126   0.0000       3.679032       100.1116 
 127   0.0000       3.753803       102.1462 
 128   0.0000       3.772215       102.6472 
 129   0.0000       3.795365       103.2771 
 130   0.0000       3.813852       103.7802 
 131   0.0000       3.815512       103.8254 
 132   0.0000       3.848537       104.7240 
 133   0.0000       3.849273       104.7440 
 134   0.0000       3.892363       105.9166 
 135   0.0000       3.927307       106.8675 
 136   0.0000       3.981154       108.3327 
 137   0.0000       4.210647       114.5775 
 138   0.0000       4.280253       116.4716 
 139   0.0000       4.461209       121.3957 
 140   0.0000       4.604353       125.2908 
 141   0.0000       4.892154       133.1223 
 142   0.0000       5.104487       138.9002 
 143   0.0000       5.153291       140.2282 
 144   0.0000       5.187721       141.1651 
 145   0.0000       5.197454       141.4299 
 146   0.0000       5.404604       147.0668 
 147   0.0000       5.422346       147.5495 
 148   0.0000       5.862765       159.5340 
 149   0.0000       5.887458       160.2059 
 150   0.0000       5.982475       162.7914 
 151   0.0000       6.324331       172.0938 
 152   0.0000       6.333856       172.3530 
 153   0.0000       6.678311       181.7261 
 154   0.0000       6.709612       182.5778 
 155   0.0000       6.713379       182.6803 
 156   0.0000       6.714774       182.7183 
 157   0.0000       6.719910       182.8581 
 158   0.0000       6.720346       182.8699 
 159   0.0000       6.726266       183.0310 
 160   0.0000       6.731043       183.1610 
 161   0.0000       6.735584       183.2846 
 162   0.0000       6.755007       183.8131 
 163   0.0000       6.785945       184.6549 
 164   0.0000       6.824914       185.7154 
 165   0.0000       6.855298       186.5421 
 166   0.0000       6.857209       186.5941 
 167   0.0000       6.889397       187.4700 
 168   0.0000       6.919405       188.2866 
 169   0.0000       6.927165       188.4977 
 170   0.0000       6.981254       189.9696 
 171   0.0000       7.193430       195.7432 
 172   0.0000       7.198258       195.8746 
 173   0.0000       7.202530       195.9908 
 174   0.0000       7.320357       199.1971 
 175   0.0000       7.423730       202.0100 
 176   0.0000       7.432775       202.2561 
 177   0.0000       8.125890       221.1167 
 178   0.0000       8.131960       221.2819 
 179   0.0000       8.158989       222.0174 
 180   0.0000       8.298099       225.8028 
 181   0.0000       8.301496       225.8952 
 182   0.0000       8.336995       226.8612 
 183   0.0000       8.513610       231.6671 
 184   0.0000       8.589852       233.7418 
 185   0.0000       8.600042       234.0190 
 186   0.0000       8.696828       236.6527 
 187   0.0000       8.765026       238.5085 
 188   0.0000       8.845274       240.6921 
 189   0.0000       8.858938       241.0639 
 190   0.0000       8.897074       242.1017 
 191   0.0000       8.901469       242.2213 
 192   0.0000      22.279029       606.2432 
 193   0.0000      22.408966       609.7790 
 194   0.0000      43.385332      1180.5749 
 195   0.0000      56.614984      1540.5720 
 196   0.0000      56.669924      1542.0670 
 197   0.0000      56.714083      1543.2686 

                    ********************************
                    * MULLIKEN POPULATION ANALYSIS *
                    ********************************

-----------------------
MULLIKEN ATOMIC CHARGES
-----------------------
   0 C :    0.373625
   1 C :   -0.073799
   2 F :   -0.183626
   3 F :   -0.172634
   4 F :   -0.172593
   5 O :   -0.807763
   6 H :    0.018206
   7 H :    0.018584
Sum of atomic charges:   -1.0000000

--------------------------------
MULLIKEN REDUCED ORBITAL CHARGES
--------------------------------
  0 C s       :     3.078462  s :     3.078462
      pz      :     0.635616  p :     2.208174
      px      :     0.903675
      py      :     0.668883
      dz2     :     0.061298  d :     0.303812
      dxz     :     0.065398
      dyz     :     0.065249
      dx2y2   :     0.054508
      dxy     :     0.057359
      f0      :     0.004934  f :     0.035926
      f+1     :     0.004140
      f-1     :     0.007961
      f+2     :     0.004379
      f-2     :     0.005853
      f+3     :     0.004107
      f-3     :     0.004552
  1 C s       :     3.188992  s :     3.188992
      pz      :     1.000993  p :     2.739563
      px      :     0.845677
      py      :     0.892892
      dz2     :     0.025275  d :     0.135340
      dxz     :     0.015930
      dyz     :     0.023264
      dx2y2   :     0.051782
      dxy     :     0.019089
      f0      :     0.001052  f :     0.009904
      f+1     :     0.001097
      f-1     :     0.001155
      f+2     :     0.001204
      f-2     :     0.001285
      f+3     :     0.001629
      f-3     :     0.002482
  2 F s       :     3.893782  s :     3.893782
      pz      :     1.840702  p :     5.274609
      px      :     1.752530
      py      :     1.681377
      dz2     :     0.001848  d :     0.014588
      dxz     :     0.001989
      dyz     :     0.002861
      dx2y2   :     0.003178
      dxy     :     0.004712
      f0      :     0.000068  f :     0.000647
      f+1     :     0.000041
      f-1     :     0.000069
      f+2     :     0.000053
      f-2     :     0.000147
      f+3     :     0.000152
      f-3     :     0.000117
  3 F s       :     3.895278  s :     3.895278
      pz      :     1.752618  p :     5.261718
      px      :     1.887549
      py      :     1.621551
      dz2     :     0.002136  d :     0.014965
      dxz     :     0.001246
      dyz     :     0.005541
      dx2y2   :     0.003312
      dxy     :     0.002730
      f0      :     0.000073  f :     0.000673
      f+1     :     0.000011
      f-1     :     0.000144
      f+2     :     0.000183
      f-2     :     0.000096
      f+3     :     0.000078
      f-3     :     0.000088
  4 F s       :     3.895272  s :     3.895272
      pz      :     1.535608  p :     5.261677
      px      :     1.848945
      py      :     1.877125
      dz2     :     0.006223  d :     0.014970
      dxz     :     0.004283
      dyz     :     0.003184
      dx2y2   :     0.000610
      dxy     :     0.000671
      f0      :     0.000221  f :     0.000673
      f+1     :     0.000198
      f-1     :     0.000138
      f+2     :     0.000053
      f-2     :     0.000055
      f+3     :     0.000003
      f-3     :     0.000005
  5 O s       :     3.821531  s :     3.821531
      pz      :     1.750065  p :     4.961156
      px      :     1.633201
      py      :     1.577889
      dz2     :     0.003210  d :     0.023703
      dxz     :     0.003685
      dyz     :     0.004201
      dx2y2   :     0.005160
      dxy     :     0.007447
      f0      :     0.000137  f :     0.001374
      f+1     :     0.000128
      f-1     :     0.000148
      f+2     :     0.000100
      f-2     :     0.000310
      f+3     :     0.000286
      f-3     :     0.000265
  6 H s       :     0.961542  s :     0.961542
      pz      :     0.005811  p :     0.020252
      px      :     0.003862
      py      :     0.010579
  7 H s       :     0.961158  s :     0.961158
      pz      :     0.011169  p :     0.020257
      px      :     0.003916
      py      :     0.005173


                     *******************************
                     * LOEWDIN POPULATION ANALYSIS *
                     *******************************

----------------------
LOEWDIN ATOMIC CHARGES
----------------------
   0 C :   -0.701787
   1 C :   -0.553927
   2 F :    0.146624
   3 F :    0.168261
   4 F :    0.168431
   5 O :   -0.405568
   6 H :    0.088902
   7 H :    0.089065

-------------------------------
LOEWDIN REDUCED ORBITAL CHARGES
-------------------------------
  0 C s       :     2.808228  s :     2.808228
      pz      :     0.769905  p :     2.558882
      px      :     1.000732
      py      :     0.788245
      dz2     :     0.241784  d :     1.096030
      dxz     :     0.191143
      dyz     :     0.251723
      dx2y2   :     0.203559
      dxy     :     0.207822
      f0      :     0.036387  f :     0.238647
      f+1     :     0.030731
      f-1     :     0.044997
      f+2     :     0.032688
      f-2     :     0.041031
      f+3     :     0.026283
      f-3     :     0.026530
  1 C s       :     2.820316  s :     2.820316
      pz      :     1.033714  p :     2.978810
      px      :     0.958692
      py      :     0.986405
      dz2     :     0.137155  d :     0.675943
      dxz     :     0.072457
      dyz     :     0.126245
      dx2y2   :     0.227289
      dxy     :     0.112797
      f0      :     0.006854  f :     0.078858
      f+1     :     0.010149
      f-1     :     0.006742
      f+2     :     0.010971
      f-2     :     0.012268
      f+3     :     0.012596
      f-3     :     0.019278
  2 F s       :     3.618656  s :     3.618656
      pz      :     1.792476  p :     5.204122
      px      :     1.726987
      py      :     1.684660
      dz2     :     0.003344  d :     0.029147
      dxz     :     0.003923
      dyz     :     0.005259
      dx2y2   :     0.006407
      dxy     :     0.010214
      f0      :     0.000137  f :     0.001451
      f+1     :     0.000094
      f-1     :     0.000154
      f+2     :     0.000126
      f-2     :     0.000311
      f+3     :     0.000319
      f-3     :     0.000310
  3 F s       :     3.612534  s :     3.612534
      pz      :     1.727567  p :     5.188207
      px      :     1.817517
      py      :     1.643122
      dz2     :     0.003606  d :     0.029496
      dxz     :     0.002521
      dyz     :     0.010913
      dx2y2   :     0.006466
      dxy     :     0.005989
      f0      :     0.000156  f :     0.001502
      f+1     :     0.000015
      f-1     :     0.000312
      f+2     :     0.000377
      f-2     :     0.000252
      f+3     :     0.000201
      f-3     :     0.000190
  4 F s       :     3.612488  s :     3.612488
      pz      :     1.585293  p :     5.188080
      px      :     1.790709
      py      :     1.812079
      dz2     :     0.012129  d :     0.029499
      dxz     :     0.009342
      dyz     :     0.005751
      dx2y2   :     0.001044
      dxy     :     0.001233
      f0      :     0.000483  f :     0.001502
      f+1     :     0.000441
      f-1     :     0.000305
      f+2     :     0.000124
      f-2     :     0.000128
      f+3     :     0.000006
      f-3     :     0.000015
  5 O s       :     3.479931  s :     3.479931
      pz      :     1.693914  p :     4.862661
      px      :     1.579957
      py      :     1.588790
      dz2     :     0.008323  d :     0.058457
      dxz     :     0.009092
      dyz     :     0.010570
      dx2y2   :     0.013467
      dxy     :     0.017005
      f0      :     0.000396  f :     0.004518
      f+1     :     0.000449
      f-1     :     0.000552
      f+2     :     0.000311
      f-2     :     0.000984
      f+3     :     0.000986
      f-3     :     0.000839
  6 H s       :     0.852040  s :     0.852040
      pz      :     0.017568  p :     0.059058
      px      :     0.010892
      py      :     0.030598
  7 H s       :     0.851867  s :     0.851867
      pz      :     0.034365  p :     0.059068
      px      :     0.010766
      py      :     0.013936


                      *****************************
                      * MAYER POPULATION ANALYSIS *
                      *****************************

  NA   - Mulliken gross atomic population
  ZA   - Total nuclear charge
  QA   - Mulliken gross atomic charge
  VA   - Mayer's total valence
  BVA  - Mayer's bonded valence
  FA   - Mayer's free valence

  ATOM       NA         ZA         QA         VA         BVA        FA
  0 C      5.6264     6.0000     0.3736     4.3718     4.3718     0.0000
  1 C      6.0738     6.0000    -0.0738     4.1698     4.1698    -0.0000
  2 F      9.1836     9.0000    -0.1836     1.0858     1.0858     0.0000
  3 F      9.1726     9.0000    -0.1726     1.1114     1.1114     0.0000
  4 F      9.1726     9.0000    -0.1726     1.1116     1.1116    -0.0000
  5 O      8.8078     8.0000    -0.8078     1.5799     1.5799    -0.0000
  6 H      0.9818     1.0000     0.0182     0.9305     0.9305     0.0000
  7 H      0.9814     1.0000     0.0186     0.9306     0.9306    -0.0000

  Mayer bond orders larger than 0.100000
B(  0-C ,  1-C ) :   0.9407 B(  0-C ,  2-F ) :   1.1008 B(  0-C ,  3-F ) :   1.1339 
B(  0-C ,  4-F ) :   1.1341 B(  1-C ,  5-O ) :   1.4835 B(  1-C ,  6-H ) :   0.8949 
B(  1-C ,  7-H ) :   0.8952 

-------
TIMINGS
-------

Total SCF time: 0 days 0 hours 0 min 21 sec 

Total time                  ....      21.951 sec
Sum of individual times     ....      20.457 sec  ( 93.2%)

Fock matrix formation       ....      18.921 sec  ( 86.2%)
  Split-RI-J                ....       2.921 sec  ( 15.4% of F)
  XC integration            ....       9.740 sec  ( 51.5% of F)
    Basis function eval.    ....       2.944 sec  ( 30.2% of XC)
    Density eval.           ....       2.002 sec  ( 20.6% of XC)
    XC-Functional eval.     ....       0.559 sec  (  5.7% of XC)
    XC-Potential eval.      ....       2.546 sec  ( 26.1% of XC)
Diagonalization             ....       0.053 sec  (  0.2%)
Density matrix formation    ....       0.005 sec  (  0.0%)
Population analysis         ....       0.072 sec  (  0.3%)
Initial guess               ....       0.407 sec  (  1.9%)
Orbital Transformation      ....       0.000 sec  (  0.0%)
Orbital Orthonormalization  ....       0.000 sec  (  0.0%)
DIIS solution               ....       0.118 sec  (  0.5%)
SOSCF solution              ....       0.102 sec  (  0.5%)
Grid generation             ....       0.780 sec  (  3.6%)

Maximum memory used throughout the entire SCF-calculation: 64.0 MB


-------------------------------------------------------------------------------
                          DFT DISPERSION CORRECTION                            
                                                                               
                              DFTD3 V3.1  Rev 1                                
                          USING Becke-Johnson damping                          
-------------------------------------------------------------------------------
The PBE functional is recognized
Active option DFTDOPT                   ...         4   

molecular C6(AA) [au] = 547.728708 


            DFT-D V3
 parameters
 s6 scaling factor         :     1.0000 
 a1 scaling factor         :     0.4289 
 s8 scaling factor         :     0.7875 
 a2 scaling factor         :     4.4407 
 ad hoc parameters k1-k3   :    16.0000     1.3333    -4.0000 

 Edisp/kcal,au: -2.737904583892  -0.004363128216 
 E6   /kcal   :  -1.958534877 
 E8   /kcal   :  -0.779369707 
 % E8         :  28.465919208 

-------------------------   ----------------
Dispersion correction           -0.004363128
-------------------------   ----------------


-------------------------   --------------------
FINAL SINGLE POINT ENERGY      -452.033059138833
-------------------------   --------------------

------------------------------------------------------------------------------
                         ORCA SCF GRADIENT CALCULATION
------------------------------------------------------------------------------

Gradient of the Kohn-Sham DFT energy:
Kohn-Sham wavefunction type      ... RKS
Hartree-Fock exchange scaling    ...    0.000
Number of operators              ...    1
Number of atoms                  ...    8
Basis set dimensions             ...  198
Integral neglect threshold       ... 2.5e-11
Integral primitive cutoff        ... 2.5e-12
SHARK Integral package           ... ON

Nuc. rep. gradient       (SHARK) ... done (  0.0 sec)
HCore & Overlap gradient (SHARK) ... done (  0.1 sec)
RI-J gradient            (SHARK) ... done (  1.1 sec)
Exchange-correlation gradient    ... done
Dispersion correction            ... done

------------------
CARTESIAN GRADIENT
------------------

   1   C   :    0.019251269    0.021767801    0.006809225
   2   C   :   -0.011020224   -0.018562062   -0.006545424
   3   F   :   -0.013245852    0.006994009    0.004417532
   4   F   :   -0.001355799   -0.009239759   -0.000549817
   5   F   :   -0.001795389   -0.006844062   -0.005612555
   6   O   :    0.011232544   -0.006715960   -0.004137157
   7   H   :   -0.003325967    0.012740649   -0.012682511
   8   H   :    0.000259419   -0.000140616    0.018300707

Difference to translation invariance:
           :   -0.0000000000   -0.0000000000   -0.0000000000

Difference to rotation invariance:
           :   -0.0004705685   -0.0000054242   -0.0004335658

Norm of the cartesian gradient     ...    0.0516743646
RMS gradient                       ...    0.0105479855
MAX gradient                       ...    0.0217678013

-------
TIMINGS
-------

Total SCF gradient time            ...        5.687 sec

One electron gradient       ....       0.121 sec  (  2.1%)
RI-J Coulomb gradient       ....       1.055 sec  ( 18.5%)
XC gradient                 ....       3.658 sec  ( 64.3%)
CPCM gradient               ....       0.248 sec  (  4.4%)
   A-Matrix (El+Nuc)        ....       0.019 sec  (  0.3%)
   Potential                ....       0.230 sec  (  4.0%)

Maximum memory used throughout the entire SCFGRAD-calculation: 72.9 MB
------------------------------------------------------------------------------
                         ORCA GEOMETRY RELAXATION STEP
------------------------------------------------------------------------------

Reading the OPT-File                    .... done
Getting information on internals        .... done
Copying old internal coords+grads       .... done
Making the new internal coordinates     .... (new redundants).... done
Validating the new internal coordinates .... (new redundants).... done
Calculating the B-matrix                .... done
Calculating the G,G- and P matrices     .... done
Transforming gradient to internals      .... done
Projecting the internal gradient        .... done
Number of atoms                         ....   8
Number of internal coordinates          ....  28
Current Energy                          ....  -452.033059139 Eh
Current gradient norm                   ....     0.051674365 Eh/bohr
Maximum allowed component of the step   ....  0.300
Current trust radius                    ....  0.300
Evaluating the initial hessian          ....  (Almloef) done
Projecting the Hessian                  .... done
Forming the augmented Hessian           .... done
Diagonalizing the augmented Hessian     .... done
Last element of RFO vector              ....  0.991230600
Lowest eigenvalues of augmented Hessian:
 -0.004641411  0.009139967  0.118304002  0.127379936  0.131653386
Length of the computed step             ....  0.133312542
The final length of the internal step   ....  0.133312542
Converting the step to cartesian space:
 Initial RMS(Int)=    0.0251937023
Transforming coordinates:
 Iter   0:  RMS(Cart)=    0.0255604940 RMS(Int)=    0.0251468526
 Iter   1:  RMS(Cart)=    0.0003964598 RMS(Int)=    0.0003260041
 Iter   2:  RMS(Cart)=    0.0000093727 RMS(Int)=    0.0000068693
 Iter   3:  RMS(Cart)=    0.0000002421 RMS(Int)=    0.0000002376
 Iter   4:  RMS(Cart)=    0.0000000053 RMS(Int)=    0.0000000050
done
Storing new coordinates                 .... done

                                .--------------------.
          ----------------------|Geometry convergence|-------------------------
          Item                value                   Tolerance       Converged
          ---------------------------------------------------------------------
          RMS gradient        0.0075452430            0.0001000000      NO
          MAX gradient        0.0173217555            0.0003000000      NO
          RMS step            0.0251937023            0.0020000000      NO
          MAX step            0.0496158146            0.0040000000      NO
          ........................................................
          Max(Bonds)      0.0263      Max(Angles)    2.54
          Max(Dihed)        2.37      Max(Improp)    0.00
          ---------------------------------------------------------------------

The optimization has not yet converged - more geometry cycles are needed


    ---------------------------------------------------------------------------
                         Redundant Internal Coordinates
                            (Angstroem and degrees)

        Definition                    Value    dE/dq     Step     New-Value
    ----------------------------------------------------------------------------
     1. B(C   1,C   0)                1.5592  0.006853 -0.0107    1.5486   
     2. B(F   2,C   0)                1.3666 -0.014523  0.0135    1.3800   
     3. B(F   3,C   0)                1.3555 -0.007359  0.0065    1.3621   
     4. B(F   4,C   0)                1.3555 -0.007112  0.0063    1.3618   
     5. B(O   5,C   1)                1.3344 -0.013249  0.0101    1.3445   
     6. B(H   6,C   1)                1.1021 -0.017288  0.0262    1.1283   
     7. B(H   7,C   1)                1.1021 -0.017322  0.0263    1.1283   
     8. A(F   2,C   0,F   4)          105.92  0.002823    0.27    106.19   
     9. A(C   1,C   0,F   4)          113.61  0.000994   -0.59    113.02   
    10. A(C   1,C   0,F   2)          109.24 -0.011754    2.54    111.78   
    11. A(F   3,C   0,F   4)          108.05  0.004728   -1.86    106.19   
    12. A(F   2,C   0,F   3)          105.92  0.002880    0.28    106.20   
    13. A(C   1,C   0,F   3)          113.56  0.000627   -0.53    113.03   
    14. A(C   0,C   1,O   5)          112.48 -0.007909    1.03    113.51   
    15. A(H   6,C   1,H   7)          100.82 -0.005774    1.61    102.43   
    16. A(O   5,C   1,H   7)          117.13  0.001162   -0.30    116.83   
    17. A(C   0,C   1,H   7)          103.70  0.006422   -1.09    102.60   
    18. A(O   5,C   1,H   6)          117.14  0.001191   -0.31    116.82   
    19. A(C   0,C   1,H   6)          103.71  0.006404   -1.09    102.61   
    20. D(O   5,C   1,C   0,F   3)    -62.40 -0.003938    1.85    -60.55   
    21. D(O   5,C   1,C   0,F   4)     61.62  0.003851   -1.61     60.02   
    22. D(H   6,C   1,C   0,F   2)     52.11 -0.001058    0.62     52.73   
    23. D(H   6,C   1,C   0,F   3)    170.08 -0.005023    2.37    172.45   
    24. D(H   6,C   1,C   0,F   4)    -65.90  0.002766   -1.08    -66.98   
    25. D(H   7,C   1,C   0,F   2)    -52.86  0.001088   -0.42    -53.28   
    26. D(H   7,C   1,C   0,F   3)     65.11 -0.002877    1.34     66.45   
    27. D(H   7,C   1,C   0,F   4)   -170.87  0.004912   -2.12   -172.99   
    28. D(O   5,C   1,C   0,F   2)    179.63  0.000027    0.09    179.73   
    ----------------------------------------------------------------------------

         *************************************************************
         *                GEOMETRY OPTIMIZATION CYCLE   2            *
         *************************************************************
---------------------------------
CARTESIAN COORDINATES (ANGSTROEM)
---------------------------------
  C     -3.095047   -2.923826    0.325148
  C     -4.570953   -3.391993    0.302099
  F     -2.243603   -3.890595   -0.169676
  F     -2.878869   -1.807491   -0.424765
  F     -2.649286   -2.630852    1.578130
  O     -5.431391   -2.477551    0.782896
  H     -4.524171   -4.381103    0.843020
  H     -4.711900   -3.708984   -0.771576

----------------------------
CARTESIAN COORDINATES (A.U.)
----------------------------
  NO LB      ZA    FRAG     MASS         X           Y           Z
   0 C     6.0000    0    12.011   -5.848791   -5.525231    0.614440
   1 C     6.0000    0    12.011   -8.637849   -6.409938    0.570885
   2 F     9.0000    0    18.998   -4.239795   -7.352159   -0.320641
   3 F     9.0000    0    18.998   -5.440275   -3.415663   -0.802689
   4 F     9.0000    0    18.998   -5.006425   -4.971589    2.982234
   5 O     8.0000    0    15.999  -10.263841   -4.681894    1.479458
   6 H     1.0000    0     1.008   -8.549445   -8.279085    1.593077
   7 H     1.0000    0     1.008   -8.904201   -7.008964   -1.458068

--------------------------------
INTERNAL COORDINATES (ANGSTROEM)
--------------------------------
 C      0   0   0     0.000000000000     0.00000000     0.00000000
 C      1   0   0     1.548550706824     0.00000000     0.00000000
 F      1   2   0     1.380017803458   111.77153514     0.00000000
 F      1   2   3     1.362095865048   113.00724667   119.72073356
 F      1   2   3     1.361801103401   112.99883054   240.29678200
 O      2   1   3     1.344515952930   113.51549842   179.72479436
 H      2   1   3     1.128327169454   102.61346912    52.73091152
 H      2   1   3     1.128329922418   102.60066379   306.71736333

---------------------------
INTERNAL COORDINATES (A.U.)
---------------------------
 C      0   0   0     0.000000000000     0.00000000     0.00000000
 C      1   0   0     2.926336740388     0.00000000     0.00000000
 F      1   2   0     2.607855708471   111.77153514     0.00000000
 F      1   2   3     2.573988153087   113.00724667   119.72073356
 F      1   2   3     2.573431134299   112.99883054   240.29678200
 O      2   1   3     2.540766933725   113.51549842   179.72479436
 H      2   1   3     2.132229339730   102.61346912    52.73091152
 H      2   1   3     2.132234542079   102.60066379   306.71736333

------------------------------------------------------------------------------
                   ___                                                        
                  /   \      - P O W E R E D   B Y -                         
                 /     \                                                     
                 |  |  |   _    _      __       _____    __    __             
                 |  |  |  | |  | |    /  \     |  _  \  |  |  /  |          
                  \  \/   | |  | |   /    \    | | | |  |  | /  /          
                 / \  \   | |__| |  /  /\  \   | |_| |  |  |/  /          
                |  |  |   |  __  | /  /__\  \  |    /   |      \           
                |  |  |   | |  | | |   __   |  |    \   |  |\   \          
                \     /   | |  | | |  |  |  |  | |\  \  |  | \   \       
                 \___/    |_|  |_| |__|  |__|  |_| \__\ |__|  \__/        
                                                                              
                      - O R C A' S   B I G   F R I E N D -                    
                                      &                                       
                       - I N T E G R A L  F E E D E R -                       
                                                                              
 v1 FN, 2020, v2 2021                                                         
------------------------------------------------------------------------------


Reading SHARK input file inp.SHARKINP.tmp ... ok
----------------------
SHARK INTEGRAL PACKAGE
----------------------

Number of atoms                             ...      8
Number of basis functions                   ...    198
Number of shells                            ...     74
Maximum angular momentum                    ...      3
Integral batch strategy                     ... SHARK/LIBINT Hybrid
RI-J (if used) integral strategy            ... SPLIT-RIJ (Revised 2003 algorithm where possible)
Printlevel                                  ...      1
Contraction scheme used                     ... SEGMENTED contraction
Coulomb Range Separation                    ... NOT USED
Exchange Range Separation                   ... NOT USED
Finite Nucleus Model                        ... NOT USED
Auxiliary Coulomb fitting basis             ... AVAILABLE
   # of basis functions in Aux-J            ...    316
   # of shells in Aux-J                     ...    100
   Maximum angular momentum in Aux-J        ...      4
Auxiliary J/K fitting basis                 ... NOT available
Auxiliary Correlation fitting basis         ... NOT available
Auxiliary 'external' fitting basis          ... NOT available
Integral threshold                          ...     2.500000e-11
Primitive cut-off                           ...     2.500000e-12
Primitive pair pre-selection threshold      ...     2.500000e-12

Calculating pre-screening integrals         ... done (  0.1 sec) Dimension = 74
Organizing shell pair data                  ... done (  0.1 sec)
Shell pair information
Total number of shell pairs                 ...      2775
Shell pairs after pre-screening             ...      2602
Total number of primitive shell pairs       ...      8916
Primitive shell pairs kept                  ...      6364
          la=0 lb=0:    593 shell pairs
          la=1 lb=0:    689 shell pairs
          la=1 lb=1:    209 shell pairs
          la=2 lb=0:    394 shell pairs
          la=2 lb=1:    237 shell pairs
          la=2 lb=2:     75 shell pairs
          la=3 lb=0:    197 shell pairs
          la=3 lb=1:    118 shell pairs
          la=3 lb=2:     70 shell pairs
          la=3 lb=3:     20 shell pairs

Calculating one electron integrals          ... done (  0.0 sec)
Calculating RI/J V-Matrix + Cholesky decomp.... done (  0.1 sec)
Calculating Nuclear repulsion               ... done (  0.0 sec) ENN=    258.406883892562 Eh

SHARK setup successfully completed in   0.8 seconds

Maximum memory used throughout the entire GTOINT-calculation: 50.3 MB

Diagonalization of the overlap matrix:
Smallest eigenvalue                        ... 6.900e-04
Time for diagonalization                   ...    0.006 sec
Threshold for overlap eigenvalues          ... 1.000e-08
Number of eigenvalues below threshold      ... 0
Time for construction of square roots      ...    0.026 sec
Total time needed                          ...    0.033 sec

-------------------
DFT GRID GENERATION
-------------------

General Integration Accuracy     IntAcc      ... 4.388
Radial Grid Type                 RadialGrid  ... OptM3 with GC (2021)
Angular Grid (max. ang.)         AngularGrid ... 4 (Lebedev-302)
Angular grid pruning method      GridPruning ... 4 (adaptive)
Weight generation scheme         WeightScheme... Becke
Basis function cutoff            BFCut       ... 1.0000e-11
Integration weight cutoff        WCut        ... 1.0000e-14
Angular grids for H and He will be reduced by one unit
Partially contracted basis set               ... off
Rotationally invariant grid construction     ... off

Total number of grid points                  ...    43112
Total number of batches                      ...      677
Average number of points per batch           ...       63
Average number of grid points per atom       ...     5389
Time for grid setup =    0.536 sec


--------------------
CPCM SOLVATION MODEL
--------------------
CPCM parameters:
  Epsilon                                         ...      80.4000
  Refrac                                          ...       1.3300
  Rsolv                                           ...       1.3000
  Surface type                                    ... GAUSSIAN VDW
  Epsilon function type                           ...         CPCM
Radii:
 Radius for C  used is    3.8550 Bohr (=   2.0400 Ang.)
 Radius for F  used is    3.3335 Bohr (=   1.7640 Ang.)
 Radius for O  used is    3.4469 Bohr (=   1.8240 Ang.)
 Radius for H  used is    2.4944 Bohr (=   1.3200 Ang.)
Calculating surface                               ...        done! (  0.0s)
GEPOL surface points                              ...          530
GEPOL Volume                                      ...     641.1290
GEPOL Surface-area                                ...     408.5223
Calculating surface distance matrix               ...        done! (  0.0s)
Performing Cholesky decomposition & store         ...        done! (  0.1s)
Overall time for CPCM initialization              ...                 0.1s
--------------
SCF ITERATIONS
--------------
ITER       Energy         Delta-E        Max-DP      RMS-DP      [F,P]     Damp
               ***  Starting incremental Fock matrix formation  ***
  0   -452.0303839714   0.000000000000 0.00313873  0.00008205  0.0086121 0.7000
                      *** Initiating the SOSCF procedure ***
                      *** Re-Reading the Fockian *** 
                      *** Removing any level shift *** 
ITER      Energy       Delta-E        Grad      Rot      Max-DP    RMS-DP
  1   -452.03069467  -0.0003107014  0.000995  0.000995  0.010860  0.000262
               *** Restarting incremental Fock matrix formation ***
  2   -452.03143070  -0.0007360306  0.000592  0.001497  0.004029  0.000075
  3   -452.03141711   0.0000135947  0.001062  0.000526  0.000933  0.000035
  4   -452.03145022  -0.0000331144  0.000161  0.000355  0.001553  0.000026
  5   -452.03144939   0.0000008319  0.000261  0.000198  0.000905  0.000015
  6   -452.03145122  -0.0000018321  0.000051  0.000117  0.000118  0.000005
  7   -452.03145114   0.0000000790  0.000072  0.000070  0.000081  0.000003
  8   -452.03145130  -0.0000001525  0.000017  0.000026  0.000056  0.000001
  9   -452.03145130   0.0000000006  0.000019  0.000012  0.000036  0.000001
 10   -452.03145131  -0.0000000103  0.000004  0.000006  0.000009  0.000000
                 **** Energy Check signals convergence ****
              ***Rediagonalizing the Fockian in SOSCF/NRSCF***

               *****************************************************
               *                     SUCCESS                       *
               *           SCF CONVERGED AFTER  11 CYCLES          *
               *****************************************************

Total Energy       :         -452.03145130 Eh          -12300.40113 eV
  Last Energy change         ...    1.7172e-09  Tolerance :   1.0000e-08
  Last MAX-Density change    ...    4.7353e-06  Tolerance :   1.0000e-07
             **** THE GBW FILE WAS UPDATED (inp.gbw) ****
             **** DENSITY inp.scfp WAS UPDATED ****
             **** ENERGY FILE WAS UPDATED (inp.en.tmp) ****
             **** THE GBW FILE WAS UPDATED (inp.gbw) ****
             **** DENSITY inp.scfp WAS UPDATED ****
Total SCF time: 0 days 0 hours 0 min 16 sec 

Maximum memory used throughout the entire SCF-calculation: 63.9 MB


-------------------------------------------------------------------------------
                          DFT DISPERSION CORRECTION                            
                                                                               
                              DFTD3 V3.1  Rev 1                                
                          USING Becke-Johnson damping                          
-------------------------------------------------------------------------------
-------------------------   ----------------
Dispersion correction           -0.004354824
-------------------------   ----------------


-------------------------   --------------------
FINAL SINGLE POINT ENERGY      -452.035806128974
-------------------------   --------------------

------------------------------------------------------------------------------
                         ORCA SCF GRADIENT CALCULATION
------------------------------------------------------------------------------

Gradient of the Kohn-Sham DFT energy:
Kohn-Sham wavefunction type      ... RKS
Hartree-Fock exchange scaling    ...    0.000
Number of operators              ...    1
Number of atoms                  ...    8
Basis set dimensions             ...  198
Integral neglect threshold       ... 2.5e-11
Integral primitive cutoff        ... 2.5e-12
SHARK Integral package           ... ON

Nuc. rep. gradient       (SHARK) ... done (  0.0 sec)
HCore & Overlap gradient (SHARK) ... done (  0.1 sec)
RI-J gradient            (SHARK) ... done (  1.1 sec)
Exchange-correlation gradient    ... done
Dispersion correction            ... done

------------------
CARTESIAN GRADIENT
------------------

   1   C   :    0.009508509    0.009313049    0.002757133
   2   C   :   -0.003264200   -0.004073699   -0.001309691
   3   F   :   -0.002553502   -0.000588576    0.000139374
   4   F   :   -0.001484824   -0.003876759    0.002055952
   5   F   :   -0.002094902   -0.001311209   -0.003823861
   6   O   :    0.000656198    0.000876017    0.000243673
   7   H   :   -0.000735887    0.001036721   -0.002979547
   8   H   :   -0.000031392   -0.001375544    0.002916966

Difference to translation invariance:
           :   -0.0000000000   -0.0000000000   -0.0000000000

Difference to rotation invariance:
           :   -0.0005332384    0.0000320886   -0.0006253675

Norm of the cartesian gradient     ...    0.0168802204
RMS gradient                       ...    0.0034456606
MAX gradient                       ...    0.0095085094

-------
TIMINGS
-------

Total SCF gradient time            ...        5.618 sec

One electron gradient       ....       0.120 sec  (  2.1%)
RI-J Coulomb gradient       ....       1.050 sec  ( 18.7%)
XC gradient                 ....       3.629 sec  ( 64.6%)
CPCM gradient               ....       0.240 sec  (  4.3%)
   A-Matrix (El+Nuc)        ....       0.017 sec  (  0.3%)
   Potential                ....       0.223 sec  (  4.0%)

Maximum memory used throughout the entire SCFGRAD-calculation: 72.8 MB
------------------------------------------------------------------------------
                         ORCA GEOMETRY RELAXATION STEP
------------------------------------------------------------------------------

Reading the OPT-File                    .... done
Getting information on internals        .... done
Copying old internal coords+grads       .... done
Making the new internal coordinates     .... (new redundants).... done
Validating the new internal coordinates .... (new redundants).... done
Calculating the B-matrix                .... done
Calculating the G,G- and P matrices     .... done
Transforming gradient to internals      .... done
Projecting the internal gradient        .... done
Number of atoms                         ....   8
Number of internal coordinates          ....  28
Current Energy                          ....  -452.035806129 Eh
Current gradient norm                   ....     0.016880220 Eh/bohr
Maximum allowed component of the step   ....  0.300
Current trust radius                    ....  0.300
Updating the Hessian (BFGS)             .... done
Forming the augmented Hessian           .... done
Diagonalizing the augmented Hessian     .... done
Last element of RFO vector              ....  0.999054310
Lowest eigenvalues of augmented Hessian:
 -0.000407394  0.009139076  0.118295093  0.121502377  0.132098781
Length of the computed step             ....  0.043520882
The final length of the internal step   ....  0.043520882
Converting the step to cartesian space:
 Initial RMS(Int)=    0.0082246736
Transforming coordinates:
 Iter   0:  RMS(Cart)=    0.0081607253 RMS(Int)=    0.0082227735
 Iter   1:  RMS(Cart)=    0.0000508408 RMS(Int)=    0.0000441854
 Iter   2:  RMS(Cart)=    0.0000003931 RMS(Int)=    0.0000003265
 Iter   3:  RMS(Cart)=    0.0000000046 RMS(Int)=    0.0000000039
done
Storing new coordinates                 .... done

                                .--------------------.
          ----------------------|Geometry convergence|-------------------------
          Item                value                   Tolerance       Converged
          ---------------------------------------------------------------------
          Energy change      -0.0027469901            0.0000050000      NO
          RMS gradient        0.0020189207            0.0001000000      NO
          MAX gradient        0.0045369514            0.0003000000      NO
          RMS step            0.0082246736            0.0020000000      NO
[...]
  73   0.0000       1.623409        44.1752 
  74   0.0000       1.634814        44.4856 
  75   0.0000       1.649186        44.8766 
  76   0.0000       1.687203        45.9111 
  77   0.0000       1.697958        46.2038 
  78   0.0000       1.804524        49.1036 
  79   0.0000       1.838664        50.0326 
  80   0.0000       1.861340        50.6496 
  81   0.0000       1.868196        50.8362 
  82   0.0000       1.942702        52.8636 
  83   0.0000       1.972940        53.6864 
  84   0.0000       2.012362        54.7592 
  85   0.0000       2.013722        54.7962 
  86   0.0000       2.034216        55.3538 
  87   0.0000       2.058882        56.0250 
  88   0.0000       2.134565        58.0845 
  89   0.0000       2.143147        58.3180 
  90   0.0000       2.203425        59.9582 
  91   0.0000       2.216682        60.3190 
  92   0.0000       2.300234        62.5925 
  93   0.0000       2.318801        63.0978 
  94   0.0000       2.335753        63.5591 
  95   0.0000       2.439866        66.3921 
  96   0.0000       2.472082        67.2688 
  97   0.0000       2.472544        67.2813 
  98   0.0000       2.489461        67.7417 
  99   0.0000       2.510851        68.3237 
 100   0.0000       2.512562        68.3703 
 101   0.0000       2.648232        72.0620 
 102   0.0000       2.687632        73.1342 
 103   0.0000       2.729797        74.2815 
 104   0.0000       2.798528        76.1518 
 105   0.0000       2.815376        76.6103 
 106   0.0000       2.841701        77.3266 
 107   0.0000       2.905068        79.0509 
 108   0.0000       2.942418        80.0673 
 109   0.0000       2.991984        81.4160 
 110   0.0000       3.001290        81.6692 
 111   0.0000       3.008854        81.8751 
 112   0.0000       3.025078        82.3166 
 113   0.0000       3.047861        82.9365 
 114   0.0000       3.070685        83.5576 
 115   0.0000       3.098611        84.3175 
 116   0.0000       3.139583        85.4324 
 117   0.0000       3.140150        85.4478 
 118   0.0000       3.179883        86.5290 
 119   0.0000       3.228404        87.8493 
 120   0.0000       3.359708        91.4223 
 121   0.0000       3.386544        92.1525 
 122   0.0000       3.397309        92.4455 
 123   0.0000       3.451936        93.9320 
 124   0.0000       3.479608        94.6849 
 125   0.0000       3.660238        99.6001 
 126   0.0000       3.671932        99.9183 
 127   0.0000       3.734694       101.6262 
 128   0.0000       3.770111       102.5899 
 129   0.0000       3.801959       103.4566 
 130   0.0000       3.814248       103.7910 
 131   0.0000       3.817393       103.8765 
 132   0.0000       3.831278       104.2544 
 133   0.0000       3.861112       105.0662 
 134   0.0000       3.878010       105.5260 
 135   0.0000       3.898624       106.0869 
 136   0.0000       3.995378       108.7198 
 137   0.0000       4.204711       114.4160 
 138   0.0000       4.220888       114.8562 
 139   0.0000       4.479054       121.8813 
 140   0.0000       4.619345       125.6988 
 141   0.0000       4.914557       133.7319 
 142   0.0000       5.094355       138.6244 
 143   0.0000       5.140156       139.8707 
 144   0.0000       5.181246       140.9889 
 145   0.0000       5.185223       141.0971 
 146   0.0000       5.392266       146.7310 
 147   0.0000       5.398895       146.9114 
 148   0.0000       5.834481       158.7643 
 149   0.0000       5.869604       159.7200 
 150   0.0000       5.959163       162.1571 
 151   0.0000       6.322276       172.0379 
 152   0.0000       6.324337       172.0940 
 153   0.0000       6.681990       181.8262 
 154   0.0000       6.710557       182.6035 
 155   0.0000       6.714163       182.7017 
 156   0.0000       6.718376       182.8163 
 157   0.0000       6.721815       182.9099 
 158   0.0000       6.723845       182.9651 
 159   0.0000       6.729826       183.1279 
 160   0.0000       6.729929       183.1307 
 161   0.0000       6.732895       183.2114 
 162   0.0000       6.748685       183.6411 
 163   0.0000       6.781502       184.5340 
 164   0.0000       6.822428       185.6477 
 165   0.0000       6.846252       186.2960 
 166   0.0000       6.857196       186.5938 
 167   0.0000       6.883753       187.3164 
 168   0.0000       6.903198       187.8456 
 169   0.0000       6.922626       188.3742 
 170   0.0000       6.968957       189.6350 
 171   0.0000       7.168548       195.0661 
 172   0.0000       7.183002       195.4594 
 173   0.0000       7.191540       195.6917 
 174   0.0000       7.274547       197.9505 
 175   0.0000       7.394868       201.2246 
 176   0.0000       7.404752       201.4935 
 177   0.0000       8.127547       221.1618 
 178   0.0000       8.128137       221.1779 
 179   0.0000       8.157752       221.9837 
 180   0.0000       8.294905       225.7158 
 181   0.0000       8.297556       225.7880 
 182   0.0000       8.330703       226.6899 
 183   0.0000       8.494262       231.1406 
 184   0.0000       8.570020       233.2021 
 185   0.0000       8.578058       233.4208 
 186   0.0000       8.691256       236.5011 
 187   0.0000       8.763342       238.4627 
 188   0.0000       8.854441       240.9416 
 189   0.0000       8.860944       241.1186 
 190   0.0000       8.879089       241.6123 
 191   0.0000       8.895093       242.0478 
 192   0.0000      22.167399       603.2056 
 193   0.0000      22.319623       607.3478 
 194   0.0000      43.386981      1180.6198 
 195   0.0000      56.586718      1539.8029 
 196   0.0000      56.660255      1541.8039 
 197   0.0000      56.708799      1543.1249 

                    ********************************
                    * MULLIKEN POPULATION ANALYSIS *
                    ********************************

-----------------------
MULLIKEN ATOMIC CHARGES
-----------------------
   0 C :    0.375736
   1 C :   -0.066689
   2 F :   -0.182786
   3 F :   -0.180522
   4 F :   -0.180450
   5 O :   -0.799264
   6 H :    0.016938
   7 H :    0.017038
Sum of atomic charges:   -1.0000000

--------------------------------
MULLIKEN REDUCED ORBITAL CHARGES
--------------------------------
  0 C s       :     3.082790  s :     3.082790
      pz      :     0.641295  p :     2.205976
      px      :     0.895413
      py      :     0.669268
      dz2     :     0.059101  d :     0.300574
      dxz     :     0.065762
      dyz     :     0.064165
      dx2y2   :     0.053497
      dxy     :     0.058049
      f0      :     0.004765  f :     0.034923
      f+1     :     0.004076
      f-1     :     0.007507
      f+2     :     0.004306
      f-2     :     0.005597
      f+3     :     0.004278
      f-3     :     0.004394
  1 C s       :     3.195949  s :     3.195949
      pz      :     0.990499  p :     2.729391
      px      :     0.845936
      py      :     0.892956
      dz2     :     0.024273  d :     0.131605
      dxz     :     0.016296
      dyz     :     0.022054
      dx2y2   :     0.050330
      dxy     :     0.018651
      f0      :     0.001094  f :     0.009744
      f+1     :     0.001048
      f-1     :     0.001145
      f+2     :     0.001196
      f-2     :     0.001253
      f+3     :     0.001644
      f-3     :     0.002363
  2 F s       :     3.896855  s :     3.896855
      pz      :     1.841900  p :     5.271235
      px      :     1.731469
      py      :     1.697866
      dz2     :     0.001785  d :     0.014078
      dxz     :     0.002080
      dyz     :     0.002586
      dx2y2   :     0.002923
      dxy     :     0.004703
      f0      :     0.000066  f :     0.000618
      f+1     :     0.000043
      f-1     :     0.000062
      f+2     :     0.000044
      f-2     :     0.000145
      f+3     :     0.000141
      f-3     :     0.000117
  3 F s       :     3.897179  s :     3.897179
      pz      :     1.770311  p :     5.268345
      px      :     1.891182
      py      :     1.606853
      dz2     :     0.001973  d :     0.014359
      dxz     :     0.001082
      dyz     :     0.005253
      dx2y2   :     0.003400
      dxy     :     0.002651
      f0      :     0.000071  f :     0.000639
      f+1     :     0.000008
      f-1     :     0.000127
      f+2     :     0.000175
      f-2     :     0.000086
      f+3     :     0.000079
      f-3     :     0.000091
  4 F s       :     3.897149  s :     3.897149
      pz      :     1.539153  p :     5.268293
      px      :     1.853632
      py      :     1.875508
      dz2     :     0.005930  d :     0.014368
      dxz     :     0.004024
      dyz     :     0.003150
      dx2y2   :     0.000583
      dxy     :     0.000682
      f0      :     0.000204  f :     0.000639
      f+1     :     0.000184
      f-1     :     0.000138
      f+2     :     0.000049
      f-2     :     0.000056
      f+3     :     0.000003
      f-3     :     0.000005
  5 O s       :     3.828722  s :     3.828722
      pz      :     1.748363  p :     4.945708
      px      :     1.619370
      py      :     1.577976
      dz2     :     0.003159  d :     0.023480
      dxz     :     0.003659
      dyz     :     0.004094
      dx2y2   :     0.005046
      dxy     :     0.007521
      f0      :     0.000136  f :     0.001354
      f+1     :     0.000126
      f-1     :     0.000142
      f+2     :     0.000094
      f-2     :     0.000307
      f+3     :     0.000282
      f-3     :     0.000266
  6 H s       :     0.963932  s :     0.963932
      pz      :     0.005467  p :     0.019130
      px      :     0.003572
      py      :     0.010091
  7 H s       :     0.963837  s :     0.963837
      pz      :     0.010946  p :     0.019125
      px      :     0.003641
      py      :     0.004538


                     *******************************
                     * LOEWDIN POPULATION ANALYSIS *
                     *******************************

----------------------
LOEWDIN ATOMIC CHARGES
----------------------
   0 C :   -0.669674
   1 C :   -0.548783
   2 F :    0.137113
   3 F :    0.147374
   4 F :    0.147635
   5 O :   -0.405856
   6 H :    0.096151
   7 H :    0.096040

-------------------------------
LOEWDIN REDUCED ORBITAL CHARGES
-------------------------------
  0 C s       :     2.814283  s :     2.814283
      pz      :     0.765048  p :     2.549590
      px      :     0.999178
      py      :     0.785363
      dz2     :     0.232719  d :     1.077337
      dxz     :     0.190642
      dyz     :     0.241938
      dx2y2   :     0.203195
      dxy     :     0.208843
      f0      :     0.034582  f :     0.228465
      f+1     :     0.029565
      f-1     :     0.041645
      f+2     :     0.031747
      f-2     :     0.038577
      f+3     :     0.026062
      f-3     :     0.026286
  1 C s       :     2.829026  s :     2.829026
      pz      :     1.021196  p :     2.970322
      px      :     0.966476
      py      :     0.982650
      dz2     :     0.135708  d :     0.672722
      dxz     :     0.074657
      dyz     :     0.123308
      dx2y2   :     0.228013
      dxy     :     0.111037
      f0      :     0.007074  f :     0.076713
      f+1     :     0.009880
      f-1     :     0.006465
      f+2     :     0.010580
      f-2     :     0.011843
      f+3     :     0.012490
      f-3     :     0.018381
  2 F s       :     3.628620  s :     3.628620
      pz      :     1.795688  p :     5.205152
      px      :     1.712487
      py      :     1.696977
      dz2     :     0.003215  d :     0.027761
      dxz     :     0.004015
      dyz     :     0.004752
      dx2y2   :     0.005787
      dxy     :     0.009992
      f0      :     0.000132  f :     0.001355
      f+1     :     0.000096
      f-1     :     0.000134
      f+2     :     0.000105
      f-2     :     0.000303
      f+3     :     0.000297
      f-3     :     0.000289
  3 F s       :     3.623405  s :     3.623405
      pz      :     1.742789  p :     5.199668
      px      :     1.824687
      py      :     1.632192
      dz2     :     0.003344  d :     0.028152
      dxz     :     0.002139
      dyz     :     0.010325
      dx2y2   :     0.006640
      dxy     :     0.005704
      f0      :     0.000146  f :     0.001400
      f+1     :     0.000011
      f-1     :     0.000276
      f+2     :     0.000357
      f-2     :     0.000220
      f+3     :     0.000200
      f-3     :     0.000190
  4 F s       :     3.623222  s :     3.623222
      pz      :     1.586341  p :     5.199568
      px      :     1.797867
      py      :     1.815360
      dz2     :     0.011579  d :     0.028174
      dxz     :     0.008671
      dyz     :     0.005709
      dx2y2   :     0.000955
      dxy     :     0.001260
      f0      :     0.000444  f :     0.001401
      f+1     :     0.000405
      f-1     :     0.000293
      f+2     :     0.000109
      f-2     :     0.000130
      f+3     :     0.000006
      f-3     :     0.000015
  5 O s       :     3.489076  s :     3.489076
      pz      :     1.695525  p :     4.855750
      px      :     1.569837
      py      :     1.590388
      dz2     :     0.007909  d :     0.056699
      dxz     :     0.008812
      dyz     :     0.010165
      dx2y2   :     0.012836
      dxy     :     0.016978
      f0      :     0.000390  f :     0.004331
      f+1     :     0.000423
      f-1     :     0.000508
      f+2     :     0.000285
      f-2     :     0.000955
      f+3     :     0.000956
      f-3     :     0.000814
  6 H s       :     0.849406  s :     0.849406
      pz      :     0.016155  p :     0.054443
      px      :     0.009717
      py      :     0.028571
  7 H s       :     0.849512  s :     0.849512
      pz      :     0.032868  p :     0.054447
      px      :     0.009549
      py      :     0.012031


                      *****************************
                      * MAYER POPULATION ANALYSIS *
                      *****************************

  NA   - Mulliken gross atomic population
  ZA   - Total nuclear charge
  QA   - Mulliken gross atomic charge
  VA   - Mayer's total valence
  BVA  - Mayer's bonded valence
  FA   - Mayer's free valence

  ATOM       NA         ZA         QA         VA         BVA        FA
  0 C      5.6243     6.0000     0.3757     4.3594     4.3594     0.0000
  1 C      6.0667     6.0000    -0.0667     4.1564     4.1564     0.0000
  2 F      9.1828     9.0000    -0.1828     1.0952     1.0952    -0.0000
  3 F      9.1805     9.0000    -0.1805     1.1023     1.1023     0.0000
  4 F      9.1804     9.0000    -0.1804     1.1022     1.1022     0.0000
  5 O      8.7993     8.0000    -0.7993     1.5938     1.5938     0.0000
  6 H      0.9831     1.0000     0.0169     0.9372     0.9372     0.0000
  7 H      0.9830     1.0000     0.0170     0.9370     0.9370    -0.0000

  Mayer bond orders larger than 0.100000
B(  0-C ,  1-C ) :   0.9396 B(  0-C ,  2-F ) :   1.1025 B(  0-C ,  3-F ) :   1.1234 
B(  0-C ,  4-F ) :   1.1234 B(  1-C ,  5-O ) :   1.4875 B(  1-C ,  6-H ) :   0.8857 
B(  1-C ,  7-H ) :   0.8856 

-------
TIMINGS
-------

Total SCF time: 0 days 0 hours 0 min 9 sec 

Total time                  ....       9.003 sec
Sum of individual times     ....       7.725 sec  ( 85.8%)

Fock matrix formation       ....       7.058 sec  ( 78.4%)
  Split-RI-J                ....       1.130 sec  ( 16.0% of F)
  XC integration            ....       3.713 sec  ( 52.6% of F)
    Basis function eval.    ....       1.199 sec  ( 32.3% of XC)
    Density eval.           ....       0.792 sec  ( 21.3% of XC)
    XC-Functional eval.     ....       0.225 sec  (  6.1% of XC)
    XC-Potential eval.      ....       0.833 sec  ( 22.4% of XC)
Diagonalization             ....       0.007 sec  (  0.1%)
Density matrix formation    ....       0.003 sec  (  0.0%)
Population analysis         ....       0.040 sec  (  0.4%)
Initial guess               ....       0.008 sec  (  0.1%)
Orbital Transformation      ....       0.000 sec  (  0.0%)
Orbital Orthonormalization  ....       0.006 sec  (  0.1%)
DIIS solution               ....       0.002 sec  (  0.0%)
SOSCF solution              ....       0.088 sec  (  1.0%)
Grid generation             ....       0.520 sec  (  5.8%)

Maximum memory used throughout the entire SCF-calculation: 63.9 MB


-------------------------------------------------------------------------------
                          DFT DISPERSION CORRECTION                            
                                                                               
                              DFTD3 V3.1  Rev 1                                
                          USING Becke-Johnson damping                          
-------------------------------------------------------------------------------
The PBE functional is recognized
Active option DFTDOPT                   ...         4   

molecular C6(AA) [au] = 547.881339 


            DFT-D V3
 parameters
 s6 scaling factor         :     1.0000 
 a1 scaling factor         :     0.4289 
 s8 scaling factor         :     0.7875 
 a2 scaling factor         :     4.4407 
 ad hoc parameters k1-k3   :    16.0000     1.3333    -4.0000 

 Edisp/kcal,au: -2.732995301193  -0.004355304776 
 E6   /kcal   :  -1.954835404 
 E8   /kcal   :  -0.778159897 
 % E8         :  28.472785769 

-------------------------   ----------------
Dispersion correction           -0.004355305
-------------------------   ----------------


-------------------------   --------------------
FINAL SINGLE POINT ENERGY      -452.036086921709
-------------------------   --------------------

                                *** OPTIMIZATION RUN DONE ***

                            ***************************************
                            *     ORCA property calculations      *
                            ***************************************

                                    ---------------------
                                    Active property flags
                                    ---------------------
   (+) Dipole Moment


------------------------------------------------------------------------------
                       ORCA ELECTRIC PROPERTIES CALCULATION
------------------------------------------------------------------------------

Dipole Moment Calculation                       ... on
Quadrupole Moment Calculation                   ... off
Polarizability Calculation                      ... off
GBWName                                         ... inp.gbw
Electron density                                ... inp.scfp
The origin for moment calculation is the CENTER OF MASS  = (-6.411680, -5.381892  0.738026)

-------------
DIPOLE MOMENT
-------------
                                X             Y             Z
Electronic contribution:      7.04800       1.64367      -0.13450
Nuclear contribution   :     -4.55426      -2.42645      -0.47494
                        -----------------------------------------
Total Dipole Moment    :      2.49374      -0.78279      -0.60944
                        -----------------------------------------
Magnitude (a.u.)       :      2.68383
Magnitude (Debye)      :      6.82175



--------------------
Rotational spectrum 
--------------------
 
Rotational constants in cm-1:     0.174764     0.094062     0.092704 
Rotational constants in MHz :  5239.306649  2819.916344  2779.208838 

 Dipole components along the rotational axes: 
x,y,z [a.u.] :     2.647996    -0.437081    -0.001772 
x,y,z [Debye]:     6.730671    -1.110972    -0.004503 

 

Timings for individual modules:

Sum of individual times         ...      136.797 sec (=   2.280 min)
GTO integral calculation        ...        5.318 sec (=   0.089 min)   3.9 %
SCF iterations                  ...       96.623 sec (=   1.610 min)  70.6 %
SCF Gradient evaluation         ...       34.165 sec (=   0.569 min)  25.0 %
Geometry relaxation             ...        0.690 sec (=   0.012 min)   0.5 %
                             ****ORCA TERMINATED NORMALLY****
TOTAL RUN TIME: 0 days 0 hours 2 minutes 20 seconds 261 msec
