
                                 *****************
                                 * O   R   C   A *
                                 *****************

                                            #,                                       
                                            ###                                      
                                            ####                                     
                                            #####                                    
                                            ######                                   
                                           ########,                                 
                                     ,,################,,,,,                         
                               ,,#################################,,                 
                          ,,##########################################,,             
                       ,#########################################, ''#####,          
                    ,#############################################,,   '####,        
                  ,##################################################,,,,####,       
                ,###########''''           ''''###############################       
              ,#####''   ,,,,##########,,,,          '''####'''          '####       
            ,##' ,,,,###########################,,,                        '##       
           ' ,,###''''                  '''############,,,                           
         ,,##''                                '''############,,,,        ,,,,,,###''
      ,#''                                            '''#######################'''  
     '                                                          ''''####''''         
             ,#######,   #######,   ,#######,      ##                                
            ,#'     '#,  ##    ##  ,#'     '#,    #''#        ######   ,####,        
            ##       ##  ##   ,#'  ##            #'  '#       #        #'  '#        
            ##       ##  #######   ##           ,######,      #####,   #    #        
            '#,     ,#'  ##    ##  '#,     ,#' ,#      #,         ##   #,  ,#        
             '#######'   ##     ##  '#######'  #'      '#     #####' # '####'        



                  #######################################################
                  #                        -***-                        #
                  #          Department of theory and spectroscopy      #
                  #    Directorship and core code : Frank Neese         #
                  #        Max Planck Institute fuer Kohlenforschung    #
                  #                Kaiser Wilhelm Platz 1               #
                  #                 D-45470 Muelheim/Ruhr               #
                  #                      Germany                        #
                  #                                                     #
                  #                  All rights reserved                #
                  #                        -***-                        #
                  #######################################################


                         Program Version 5.0.4 -  RELEASE  -


 With contributions from (in alphabetic order):
   Daniel Aravena         : Magnetic Suceptibility
   Michael Atanasov       : Ab Initio Ligand Field Theory (pilot matlab implementation)
   Alexander A. Auer      : GIAO ZORA, VPT2 properties, NMR spectrum
   Ute Becker             : Parallelization
   Giovanni Bistoni       : ED, misc. LED, open-shell LED, HFLD
   Martin Brehm           : Molecular dynamics
   Dmytro Bykov           : SCF Hessian
   Vijay G. Chilkuri      : MRCI spin determinant printing, contributions to CSF-ICE
   Dipayan Datta          : RHF DLPNO-CCSD density
   Achintya Kumar Dutta   : EOM-CC, STEOM-CC
   Dmitry Ganyushin       : Spin-Orbit,Spin-Spin,Magnetic field MRCI
   Miquel Garcia          : C-PCM and meta-GGA Hessian, CC/C-PCM, Gaussian charge scheme
   Yang Guo               : DLPNO-NEVPT2, F12-NEVPT2, CIM, IAO-localization
   Andreas Hansen         : Spin unrestricted coupled pair/coupled cluster methods
   Benjamin Helmich-Paris : MC-RPA, TRAH-SCF, COSX integrals
   Lee Huntington         : MR-EOM, pCC
   Robert Izsak           : Overlap fitted RIJCOSX, COSX-SCS-MP3, EOM
   Marcus Kettner         : VPT2
   Christian Kollmar      : KDIIS, OOCD, Brueckner-CCSD(T), CCSD density, CASPT2, CASPT2-K
   Simone Kossmann        : Meta GGA functionals, TD-DFT gradient, OOMP2, MP2 Hessian
   Martin Krupicka        : Initial AUTO-CI
   Lucas Lang             : DCDCAS
   Marvin Lechner         : AUTO-CI (C++ implementation), FIC-MRCC
   Dagmar Lenk            : GEPOL surface, SMD
   Dimitrios Liakos       : Extrapolation schemes; Compound Job, initial MDCI parallelization
   Dimitrios Manganas     : Further ROCIS development; embedding schemes
   Dimitrios Pantazis     : SARC Basis sets
   Anastasios Papadopoulos: AUTO-CI, single reference methods and gradients
   Taras Petrenko         : DFT Hessian,TD-DFT gradient, ASA, ECA, R-Raman, ABS, FL, XAS/XES, NRVS
   Peter Pinski           : DLPNO-MP2, DLPNO-MP2 Gradient
   Christoph Reimann      : Effective Core Potentials
   Marius Retegan         : Local ZFS, SOC
   Christoph Riplinger    : Optimizer, TS searches, QM/MM, DLPNO-CCSD(T), (RO)-DLPNO pert. Triples
   Tobias Risthaus        : Range-separated hybrids, TD-DFT gradient, RPA, STAB
   Michael Roemelt        : Original ROCIS implementation
   Masaaki Saitow         : Open-shell DLPNO-CCSD energy and density
   Barbara Sandhoefer     : DKH picture change effects
   Avijit Sen             : IP-ROCIS
   Kantharuban Sivalingam : CASSCF convergence, NEVPT2, FIC-MRCI
   Bernardo de Souza      : ESD, SOC TD-DFT
   Georgi Stoychev        : AutoAux, RI-MP2 NMR, DLPNO-MP2 response
   Willem Van den Heuvel  : Paramagnetic NMR
   Boris Wezisla          : Elementary symmetry handling
   Frank Wennmohs         : Technical directorship


 We gratefully acknowledge several colleagues who have allowed us to
 interface, adapt or use parts of their codes:
   Stefan Grimme, W. Hujo, H. Kruse, P. Pracht,  : VdW corrections, initial TS optimization,
                  C. Bannwarth, S. Ehlert          DFT functionals, gCP, sTDA/sTD-DF
   Ed Valeev, F. Pavosevic, A. Kumar             : LibInt (2-el integral package), F12 methods
   Garnet Chan, S. Sharma, J. Yang, R. Olivares  : DMRG
   Ulf Ekstrom                                   : XCFun DFT Library
   Mihaly Kallay                                 : mrcc  (arbitrary order and MRCC methods)
   Jiri Pittner, Ondrej Demel                    : Mk-CCSD
   Frank Weinhold                                : gennbo (NPA and NBO analysis)
   Christopher J. Cramer and Donald G. Truhlar   : smd solvation model
   Lars Goerigk                                  : TD-DFT with DH, B97 family of functionals
   V. Asgeirsson, H. Jonsson                     : NEB implementation
   FAccTs GmbH                                   : IRC, NEB, NEB-TS, DLPNO-Multilevel, CI-OPT
                                                   MM, QMMM, 2- and 3-layer-ONIOM, Crystal-QMMM,
                                                   LR-CPCM, SF, NACMEs, symmetry and pop. for TD-DFT,
                                                   nearIR, NL-DFT gradient (VV10), updates on ESD,
                                                   ML-optimized integration grids
   S Lehtola, MJT Oliveira, MAL Marques          : LibXC Library
   Liviu Ungur et al                             : ANISO software


 Your calculation uses the libint2 library for the computation of 2-el integrals
 For citations please refer to: http://libint.valeyev.net

 Your ORCA version has been built with support for libXC version: 5.1.0
 For citations please refer to: https://tddft.org/programs/libxc/

 This ORCA versions uses:
   CBLAS   interface :  Fast vector & matrix operations
   LAPACKE interface :  Fast linear algebra routines
   SCALAPACK package :  Parallel linear algebra routines
   Shared memory     :  Shared parallel matrices
   BLAS/LAPACK       :  OpenBLAS 0.3.15  USE64BITINT DYNAMIC_ARCH NO_AFFINITY Haswell SINGLE_THREADED
        Core in use  :  Haswell
   Copyright (c) 2011-2014, The OpenBLAS Project


================================================================================

----- Orbital basis set information -----
Your calculation utilizes the basis: def2-TZVP
   F. Weigend and R. Ahlrichs, Phys. Chem. Chem. Phys. 7, 3297 (2005).

----- AuxJ basis set information -----
Your calculation utilizes the auxiliary basis: def2/J
   F. Weigend, Phys. Chem. Chem. Phys. 8, 1057 (2006).

================================================================================
                                        WARNINGS
                       Please study these warnings very carefully!
================================================================================


WARNING: Geometry Optimization
  ===> : Switching off AutoStart
         For restart on a previous wavefunction, please use MOREAD

INFO   : the flag for use of the SHARK integral package has been found!

================================================================================
                                       INPUT FILE
================================================================================
NAME = inp.inp
|  1> !OPT PBE def2-TZVP CPCM(water)
|  2> 
|  3> *xyz -1 1
|  4> C     -5.669516   -3.877926    0.521747
|  5> C     -6.967935   -4.308641    1.175878
|  6> H     -4.923364   -4.678180    0.563744
|  7> H     -5.825347   -3.614912   -0.529580
|  8> H     -5.257829   -3.002223    1.033098
|  9> C     -7.642110   -5.532826    0.550458
| 10> H     -6.778668   -4.529502    2.233085
| 11> H     -7.680992   -3.476530    1.138346
| 12> O     -7.087770   -6.023814   -0.470692
| 13> O     -8.693426   -5.904311    1.148301
| 14> *
| 15> 
| 16>                          ****END OF INPUT****
================================================================================

                       *****************************
                       * Geometry Optimization Run *
                       *****************************

Geometry optimization settings:
Update method            Update   .... BFGS
Choice of coordinates    CoordSys .... Z-matrix Internals
Initial Hessian          InHess   .... Almoef's Model

Convergence Tolerances:
Energy Change            TolE     ....  5.0000e-06 Eh
Max. Gradient            TolMAXG  ....  3.0000e-04 Eh/bohr
RMS Gradient             TolRMSG  ....  1.0000e-04 Eh/bohr
Max. Displacement        TolMAXD  ....  4.0000e-03 bohr
RMS Displacement         TolRMSD  ....  2.0000e-03 bohr
Strict Convergence                ....  False
------------------------------------------------------------------------------
                        ORCA OPTIMIZATION COORDINATE SETUP
------------------------------------------------------------------------------

The optimization will be done in new redundant internal coordinates
Making redundant internal coordinates   ...  (new redundants) done
Evaluating the initial hessian          ...  (Almloef) done
Evaluating the coordinates              ...  done
Calculating the B-matrix                .... done
Calculating the G-matrix                .... done
Diagonalizing the G-matrix              .... done
The first mode is                       ....   15
The number of degrees of freedom        ....   24

    -----------------------------------------------------------------
                    Redundant Internal Coordinates


    -----------------------------------------------------------------
         Definition                    Initial Value    Approx d2E/dq
    -----------------------------------------------------------------
      1. B(C   1,C   0)                  1.5163         0.392796   
      2. B(H   2,C   0)                  1.0949         0.353612   
      3. B(H   3,C   0)                  1.0949         0.353710   
      4. B(H   4,C   0)                  1.0945         0.354260   
      5. B(C   5,C   1)                  1.5311         0.372058   
      6. B(H   6,C   1)                  1.0965         0.351617   
      7. B(H   7,C   1)                  1.0965         0.351629   
      8. B(O   8,C   5)                  1.2614         0.897556   
      9. B(O   9,C   5)                  1.2652         0.885149   
     10. A(H   2,C   0,H   4)          108.0912         0.289268   
     11. A(C   1,C   0,H   4)          110.3541         0.326127   
     12. A(H   3,C   0,H   4)          108.0572         0.289281   
     13. A(H   2,C   0,H   3)          108.0224         0.289198   
     14. A(C   1,C   0,H   2)          111.0614         0.326029   
     15. A(C   1,C   0,H   3)          111.1365         0.326044   
     16. A(C   0,C   1,C   5)          115.3366         0.366229   
     17. A(H   6,C   1,H   7)          107.3445         0.288675   
     18. A(C   5,C   1,H   7)          107.8448         0.322839   
     19. A(C   0,C   1,H   7)          109.0580         0.325727   
     20. A(C   5,C   1,H   6)          107.9868         0.322837   
     21. A(C   0,C   1,H   6)          108.9863         0.325726   
     22. A(O   8,C   5,O   9)          129.3034         0.489026   
     23. A(C   1,C   5,O   9)          114.0561         0.419456   
     24. A(C   1,C   5,O   8)          116.6404         0.420499   
     25. D(H   7,C   1,C   0,H   2)    178.5695         0.012259   
     26. D(C   5,C   1,C   0,H   3)     60.3418         0.012259   
     27. D(H   6,C   1,C   0,H   2)     61.6712         0.012259   
     28. D(C   5,C   1,C   0,H   2)    -59.9449         0.012259   
     29. D(C   5,C   1,C   0,H   4)   -179.7984         0.012259   
     30. D(H   6,C   1,C   0,H   4)    -58.1823         0.012259   
     31. D(H   7,C   1,C   0,H   3)    -61.1438         0.012259   
     32. D(H   7,C   1,C   0,H   4)     58.7160         0.012259   
     33. D(H   6,C   1,C   0,H   3)   -178.0421         0.012259   
     34. D(O   9,C   5,C   1,H   6)     55.0781         0.010358   
     35. D(O   9,C   5,C   1,C   0)    177.2314         0.010358   
     36. D(O   8,C   5,C   1,H   7)    119.2758         0.010358   
     37. D(O   8,C   5,C   1,H   6)   -125.0156         0.010358   
     38. D(O   9,C   5,C   1,H   7)    -60.6305         0.010358   
     39. D(O   8,C   5,C   1,C   0)     -2.8623         0.010358   
    -----------------------------------------------------------------

Number of atoms                         .... 10
Number of degrees of freedom            .... 39

         *************************************************************
         *                GEOMETRY OPTIMIZATION CYCLE   1            *
         *************************************************************
---------------------------------
CARTESIAN COORDINATES (ANGSTROEM)
---------------------------------
  C     -5.669516   -3.877926    0.521747
  C     -6.967935   -4.308641    1.175878
  H     -4.923364   -4.678180    0.563744
  H     -5.825347   -3.614912   -0.529580
  H     -5.257829   -3.002223    1.033098
  C     -7.642110   -5.532826    0.550458
  H     -6.778668   -4.529502    2.233085
  H     -7.680992   -3.476530    1.138346
  O     -7.087770   -6.023814   -0.470692
  O     -8.693426   -5.904311    1.148301

----------------------------
CARTESIAN COORDINATES (A.U.)
----------------------------
  NO LB      ZA    FRAG     MASS         X           Y           Z
   0 C     6.0000    0    12.011  -10.713833   -7.328218    0.985959
   1 C     6.0000    0    12.011  -13.167489   -8.142151    2.222087
   2 H     1.0000    0     1.008   -9.303810   -8.840479    1.065322
   3 H     1.0000    0     1.008  -11.008310   -6.831194   -1.000761
   4 H     1.0000    0     1.008   -9.935857   -5.673379    1.952272
   5 C     6.0000    0    12.011  -14.441495  -10.455526    1.040215
   6 H     1.0000    0     1.008  -12.809826   -8.559518    4.219919
   7 H     1.0000    0     1.008  -14.514971   -6.569690    2.151162
   8 O     8.0000    0    15.999  -13.393944  -11.383359   -0.889479
   9 O     8.0000    0    15.999  -16.428194  -11.157531    2.169974

--------------------------------
INTERNAL COORDINATES (ANGSTROEM)
--------------------------------
 C      0   0   0     0.000000000000     0.00000000     0.00000000
 C      1   0   0     1.516342532526     0.00000000     0.00000000
 H      1   2   0     1.094948866217   111.06138782     0.00000000
 H      1   2   3     1.094873566073   111.13654527   120.28670416
 H      1   2   3     1.094450444460   110.35408334   240.14649659
 C      2   1   3     1.531107775844   115.33658363   300.05505869
 H      2   1   3     1.096489042106   108.98634383    61.67116166
 H      2   1   3     1.096479663557   109.05799611   178.56953571
 O      6   2   1     1.261391840089   116.64036714   357.13774837
 O      6   2   1     1.265180892098   114.05613089   177.23142732

---------------------------
INTERNAL COORDINATES (A.U.)
---------------------------
 C      0   0   0     0.000000000000     0.00000000     0.00000000
 C      1   0   0     2.865472111690     0.00000000     0.00000000
 H      1   2   0     2.069153487797   111.06138782     0.00000000
 H      1   2   3     2.069011191148   111.13654527   120.28670416
 H      1   2   3     2.068211607178   110.35408334   240.14649659
 C      2   1   3     2.893374377862   115.33658363   300.05505869
 H      2   1   3     2.072063998426   108.98634383    61.67116166
 H      2   1   3     2.072046275537   109.05799611   178.56953571
 O      6   2   1     2.383685125332   116.64036714   357.13774837
 O      6   2   1     2.390845395935   114.05613089   177.23142732

---------------------
BASIS SET INFORMATION
---------------------
There are 3 groups of distinct atoms

 Group   1 Type C   : 11s6p2d1f contracted to 5s3p2d1f pattern {62111/411/11/1}
 Group   2 Type H   : 5s1p contracted to 3s1p pattern {311/1}
 Group   3 Type O   : 11s6p2d1f contracted to 5s3p2d1f pattern {62111/411/11/1}

Atom   0C    basis set group =>   1
Atom   1C    basis set group =>   1
Atom   2H    basis set group =>   2
Atom   3H    basis set group =>   2
Atom   4H    basis set group =>   2
Atom   5C    basis set group =>   1
Atom   6H    basis set group =>   2
Atom   7H    basis set group =>   2
Atom   8O    basis set group =>   3
Atom   9O    basis set group =>   3
---------------------------------
AUXILIARY/J BASIS SET INFORMATION
---------------------------------
There are 3 groups of distinct atoms

 Group   1 Type C   : 12s5p4d2f1g contracted to 6s4p3d1f1g pattern {711111/2111/211/2/1}
 Group   2 Type H   : 5s2p1d contracted to 3s1p1d pattern {311/2/1}
 Group   3 Type O   : 12s5p4d2f1g contracted to 6s4p3d1f1g pattern {711111/2111/211/2/1}

Atom   0C    basis set group =>   1
Atom   1C    basis set group =>   1
Atom   2H    basis set group =>   2
Atom   3H    basis set group =>   2
Atom   4H    basis set group =>   2
Atom   5C    basis set group =>   1
Atom   6H    basis set group =>   2
Atom   7H    basis set group =>   2
Atom   8O    basis set group =>   3
Atom   9O    basis set group =>   3
------------------------------------------------------------------------------
                           ORCA GTO INTEGRAL CALCULATION
                           -- RI-GTO INTEGRALS CHOSEN --
------------------------------------------------------------------------------
------------------------------------------------------------------------------
                   ___                                                        
                  /   \      - P O W E R E D   B Y -                         
                 /     \                                                     
                 |  |  |   _    _      __       _____    __    __             
                 |  |  |  | |  | |    /  \     |  _  \  |  |  /  |          
                  \  \/   | |  | |   /    \    | | | |  |  | /  /          
                 / \  \   | |__| |  /  /\  \   | |_| |  |  |/  /          
                |  |  |   |  __  | /  /__\  \  |    /   |      \           
                |  |  |   | |  | | |   __   |  |    \   |  |\   \          
                \     /   | |  | | |  |  |  |  | |\  \  |  | \   \       
                 \___/    |_|  |_| |__|  |__|  |_| \__\ |__|  \__/        
                                                                              
                      - O R C A' S   B I G   F R I E N D -                    
                                      &                                       
                       - I N T E G R A L  F E E D E R -                       
                                                                              
 v1 FN, 2020, v2 2021                                                         
------------------------------------------------------------------------------


Reading SHARK input file inp.SHARKINP.tmp ... ok
----------------------
SHARK INTEGRAL PACKAGE
----------------------

Number of atoms                             ...     10
Number of basis functions                   ...    185
Number of shells                            ...     75
Maximum angular momentum                    ...      3
Integral batch strategy                     ... SHARK/LIBINT Hybrid
RI-J (if used) integral strategy            ... SPLIT-RIJ (Revised 2003 algorithm where possible)
Printlevel                                  ...      1
Contraction scheme used                     ... SEGMENTED contraction
Coulomb Range Separation                    ... NOT USED
Exchange Range Separation                   ... NOT USED
Finite Nucleus Model                        ... NOT USED
Auxiliary Coulomb fitting basis             ... AVAILABLE
   # of basis functions in Aux-J            ...    300
   # of shells in Aux-J                     ...    100
   Maximum angular momentum in Aux-J        ...      4
Auxiliary J/K fitting basis                 ... NOT available
Auxiliary Correlation fitting basis         ... NOT available
Auxiliary 'external' fitting basis          ... NOT available
Integral threshold                          ...     2.500000e-11
Primitive cut-off                           ...     2.500000e-12
Primitive pair pre-selection threshold      ...     2.500000e-12

Calculating pre-screening integrals         ... done (  0.1 sec) Dimension = 75
Organizing shell pair data                  ... done (  0.1 sec)
Shell pair information
Total number of shell pairs                 ...      2850
Shell pairs after pre-screening             ...      2742
Total number of primitive shell pairs       ...      8640
Primitive shell pairs kept                  ...      6630
          la=0 lb=0:    764 shell pairs
          la=1 lb=0:    780 shell pairs
          la=1 lb=1:    208 shell pairs
          la=2 lb=0:    385 shell pairs
          la=2 lb=1:    196 shell pairs
          la=2 lb=2:     54 shell pairs
          la=3 lb=0:    191 shell pairs
          la=3 lb=1:     99 shell pairs
          la=3 lb=2:     50 shell pairs
          la=3 lb=3:     15 shell pairs

Calculating one electron integrals          ... done (  0.0 sec)
Calculating RI/J V-Matrix + Cholesky decomp.... done (  0.2 sec)
Calculating Nuclear repulsion               ... done (  0.0 sec) ENN=    168.596372350096 Eh

SHARK setup successfully completed in   1.0 seconds

Maximum memory used throughout the entire GTOINT-calculation: 42.0 MB
-------------------------------------------------------------------------------
                                 ORCA SCF
-------------------------------------------------------------------------------

------------
SCF SETTINGS
------------
Hamiltonian:
 Density Functional     Method          .... DFT(GTOs)
 Exchange Functional    Exchange        .... PBE
   PBE kappa parameter   XKappa         ....  0.804000
   PBE mue parameter    XMuePBE         ....  0.219520
 Correlation Functional Correlation     .... PBE
   PBE beta parameter  CBetaPBE         ....  0.066725
 LDA part of GGA corr.  LDAOpt          .... PW91-LDA
 Gradients option       PostSCFGGA      .... off
   Density functional embedding theory  .... OFF
   NL short-range parameter             ....  6.400000
 RI-approximation to the Coulomb term is turned on
   Number of AuxJ basis functions       .... 300


General Settings:
 Integral files         IntName         .... inp
 Hartree-Fock type      HFTyp           .... RHF
 Total Charge           Charge          ....   -1
 Multiplicity           Mult            ....    1
 Number of Electrons    NEL             ....   40
 Basis Dimension        Dim             ....  185
 Nuclear Repulsion      ENuc            ....    168.5963723501 Eh

Convergence Acceleration:
 DIIS                   CNVDIIS         .... on
   Start iteration      DIISMaxIt       ....    12
   Startup error        DIISStart       ....  0.200000
   # of expansion vecs  DIISMaxEq       ....     5
   Bias factor          DIISBfac        ....   1.050
   Max. coefficient     DIISMaxC        ....  10.000
 Trust-Rad. Augm. Hess. CNVTRAH         .... auto
   Auto Start mean grad. ratio tolernc. ....  1.125000
   Auto Start start iteration           ....    20
   Auto Start num. interpolation iter.  ....    10
   Max. Number of Micro iterations      ....    16
   Max. Number of Macro iterations      .... Maxiter - #DIIS iter
   Number of Davidson start vectors     ....     2
   Converg. threshold I  (grad. norm)   ....   1.000e-05
   Converg. threshold II (energy diff.) ....   1.000e-08
   Grad. Scal. Fac. for Micro threshold ....   0.100
   Minimum threshold for Micro iter.    ....   0.010
   NR start threshold (gradient norm)   ....   0.001
   Initial trust radius                 ....   0.400
   Minimum AH scaling param. (alpha)    ....   1.000
   Maximum AH scaling param. (alpha)    .... 1000.000
   Orbital update algorithm             .... Taylor
   White noise on init. David. guess    .... on
   Maximum white noise                  ....   0.010
   Quad. conv. algorithm                .... NR
 SOSCF                  CNVSOSCF        .... on
   Start iteration      SOSCFMaxIt      ....   150
   Startup grad/error   SOSCFStart      ....  0.003300
 Level Shifting         CNVShift        .... on
   Level shift para.    LevelShift      ....    0.2500
   Turn off err/grad.   ShiftErr        ....    0.0010
 Zerner damping         CNVZerner       .... off
 Static damping         CNVDamp         .... on
   Fraction old density DampFac         ....    0.7000
   Max. Damping (<1)    DampMax         ....    0.9800
   Min. Damping (>=0)   DampMin         ....    0.0000
   Turn off err/grad.   DampErr         ....    0.1000
 Fernandez-Rico         CNVRico         .... off

SCF Procedure:
 Maximum # iterations   MaxIter         ....   125
 SCF integral mode      SCFMode         .... Direct
   Integral package                     .... SHARK and LIBINT hybrid scheme
 Reset frequency        DirectResetFreq ....    20
 Integral Threshold     Thresh          ....  2.500e-11 Eh
 Primitive CutOff       TCut            ....  2.500e-12 Eh

Convergence Tolerance:
 Convergence Check Mode ConvCheckMode   .... Total+1el-Energy
 Convergence forced     ConvForced      .... 0
 Energy Change          TolE            ....  1.000e-08 Eh
 1-El. energy change                    ....  1.000e-05 Eh
 Orbital Gradient       TolG            ....  1.000e-05
 Orbital Rotation angle TolX            ....  1.000e-05
 DIIS Error             TolErr          ....  5.000e-07


Diagonalization of the overlap matrix:
Smallest eigenvalue                        ... 2.865e-04
Time for diagonalization                   ...    0.007 sec
Threshold for overlap eigenvalues          ... 1.000e-08
Number of eigenvalues below threshold      ... 0
Time for construction of square roots      ...    0.137 sec
Total time needed                          ...    0.144 sec

Time for model grid setup =    0.253 sec

------------------------------
INITIAL GUESS: MODEL POTENTIAL
------------------------------
Loading Hartree-Fock densities                     ... done
Calculating cut-offs                               ... done
Initializing the effective Hamiltonian             ... done
Setting up the integral package (SHARK)            ... done
Starting the Coulomb interaction                   ... done (   0.2 sec)
Reading the grid                                   ... done
Mapping shells                                     ... done
Starting the XC term evaluation                    ... done (   0.2 sec)
  promolecular density results
     # of electrons  =     38.998891591
     EX              =    -33.053439388
     EC              =     -1.281749490
     EX+EC           =    -34.335188878
Transforming the Hamiltonian                       ... done (   0.0 sec)
Diagonalizing the Hamiltonian                      ... done (   0.0 sec)
Back transforming the eigenvectors                 ... done (   0.0 sec)
Now organizing SCF variables                       ... done
                      ------------------
                      INITIAL GUESS DONE (   0.7 sec)
                      ------------------
-------------------
DFT GRID GENERATION
-------------------

General Integration Accuracy     IntAcc      ... 4.388
Radial Grid Type                 RadialGrid  ... OptM3 with GC (2021)
Angular Grid (max. ang.)         AngularGrid ... 4 (Lebedev-302)
Angular grid pruning method      GridPruning ... 4 (adaptive)
Weight generation scheme         WeightScheme... Becke
Basis function cutoff            BFCut       ... 1.0000e-11
Integration weight cutoff        WCut        ... 1.0000e-14
Angular grids for H and He will be reduced by one unit
Partially contracted basis set               ... off
Rotationally invariant grid construction     ... off

Total number of grid points                  ...    46595
Total number of batches                      ...      735
Average number of points per batch           ...       63
Average number of grid points per atom       ...     4660
Time for grid setup =    0.626 sec


--------------------
CPCM SOLVATION MODEL
--------------------
CPCM parameters:
  Epsilon                                         ...      80.4000
  Refrac                                          ...       1.3300
  Rsolv                                           ...       1.3000
  Surface type                                    ... GAUSSIAN VDW
  Epsilon function type                           ...         CPCM
Radii:
 Radius for C  used is    3.8550 Bohr (=   2.0400 Ang.)
 Radius for H  used is    2.4944 Bohr (=   1.3200 Ang.)
 Radius for O  used is    3.4469 Bohr (=   1.8240 Ang.)
Calculating surface                               ...        done! (  0.0s)
GEPOL surface points                              ...          614
GEPOL Volume                                      ...     658.1545
GEPOL Surface-area                                ...     410.4451
Calculating surface distance matrix               ...        done! (  0.0s)
Performing Cholesky decomposition & store         ...        done! (  0.1s)
Overall time for CPCM initialization              ...                 0.1s
--------------
SCF ITERATIONS
--------------
ITER       Energy         Delta-E        Max-DP      RMS-DP      [F,P]     Damp
               ***  Starting incremental Fock matrix formation  ***
  0   -267.4550656779   0.000000000000 0.54502295  0.00500457  0.3070489 0.7000
  1   -267.5998758983  -0.144810220381 0.55459295  0.00472302  0.1078201 0.7000
                               ***Turning on DIIS***
  2   -267.6422792353  -0.042403337085 0.64394704  0.00600361  0.0243820 0.0000
  3   -267.7196987965  -0.077419561136 0.48929079  0.00393908  0.0628243 0.0000
  4   -267.7357096279  -0.016010831452 0.17439498  0.00142793  0.0183105 0.0000
  5   -267.7375604224  -0.001850794457 0.07432727  0.00061301  0.0037300 0.0000
                      *** Initiating the SOSCF procedure ***
                           *** Shutting down DIIS ***
                      *** Re-Reading the Fockian *** 
                      *** Removing any level shift *** 
ITER      Energy       Delta-E        Grad      Rot      Max-DP    RMS-DP
  6   -267.73766889  -0.0001084659  0.000452  0.000452  0.044275  0.000388
               *** Restarting incremental Fock matrix formation ***
  7   -267.73767822  -0.0000093272  0.000201  0.000437  0.001115  0.000022
  8   -267.73767617   0.0000020502  0.000312  0.000471  0.001077  0.000017
  9   -267.73767921  -0.0000030479  0.000136  0.000457  0.001088  0.000015
 10   -267.73767842   0.0000007951  0.000299  0.000315  0.000730  0.000011
 11   -267.73767936  -0.0000009371  0.000008  0.000021  0.000218  0.000002
 12   -267.73767935   0.0000000049  0.000018  0.000015  0.000131  0.000001
                  ***Gradient check signals convergence***
              ***Rediagonalizing the Fockian in SOSCF/NRSCF***

               *****************************************************
               *                     SUCCESS                       *
               *           SCF CONVERGED AFTER  13 CYCLES          *
               *****************************************************


----------------
TOTAL SCF ENERGY
----------------

Total Energy       :         -267.73767935 Eh           -7285.51264 eV

Components:
Nuclear Repulsion  :          168.59637235 Eh            4587.74053 eV
Electronic Energy  :         -436.33405170 Eh          -11873.25317 eV
One Electron Energy:         -708.04472846 Eh          -19266.87657 eV
Two Electron Energy:          271.71067676 Eh            7393.62340 eV
CPCM Dielectric    :           -0.11011601 Eh              -2.99641 eV

Virial components:
Potential Energy   :         -534.43736897 Eh          -14542.78015 eV
Kinetic Energy     :          266.69968961 Eh            7257.26751 eV
Virial Ratio       :            2.00389198


DFT components:
N(Alpha)           :       19.999996993588 electrons
N(Beta)            :       19.999996993588 electrons
N(Total)           :       39.999993987176 electrons
E(X)               :      -33.957409214796 Eh       
E(C)               :       -1.322443692175 Eh       
E(XC)              :      -35.279852906971 Eh       
DFET-embed. en.    :        0.000000000000 Eh       
CPCM Solvation Model Properties:
Surface-charge          :            0.97222891
Charge-correction       :           -0.00464459 Eh              -0.12639 eV
Free-energy (cav+disp)  :  This term is not implemented in the current solvation scheme

---------------
SCF CONVERGENCE
---------------

  Last Energy change         ...   -3.4608e-09  Tolerance :   1.0000e-08
  Last MAX-Density change    ...    3.8195e-05  Tolerance :   1.0000e-07
  Last RMS-Density change    ...    3.1698e-07  Tolerance :   5.0000e-09
  Last Orbital Gradient      ...    6.4888e-07  Tolerance :   1.0000e-05
  Last Orbital Rotation      ...    1.1842e-06  Tolerance :   1.0000e-05

             **** THE GBW FILE WAS UPDATED (inp.gbw) ****
             **** DENSITY inp.scfp WAS UPDATED ****
             **** ENERGY FILE WAS UPDATED (inp.en.tmp) ****
             **** THE GBW FILE WAS UPDATED (inp.gbw) ****
             **** DENSITY inp.scfp WAS UPDATED ****
----------------
ORBITAL ENERGIES
----------------

  NO   OCC          E(Eh)            E(eV) 
   0   2.0000     -18.673703      -508.1373 
   1   2.0000     -18.669992      -508.0363 
   2   2.0000      -9.935565      -270.3605 
   3   2.0000      -9.854531      -268.1554 
   4   2.0000      -9.852705      -268.1057 
   5   2.0000      -0.912174       -24.8215 
   6   2.0000      -0.831986       -22.6395 
   7   2.0000      -0.673875       -18.3371 
   8   2.0000      -0.550715       -14.9857 
   9   2.0000      -0.423691       -11.5292 
  10   2.0000      -0.392612       -10.6835 
  11   2.0000      -0.372216       -10.1285 
  12   2.0000      -0.347923        -9.4675 
  13   2.0000      -0.322025        -8.7627 
  14   2.0000      -0.314775        -8.5655 
  15   2.0000      -0.293891        -7.9972 
  16   2.0000      -0.276728        -7.5302 
  17   2.0000      -0.200680        -5.4608 
  18   2.0000      -0.176838        -4.8120 
  19   2.0000      -0.172657        -4.6982 
  20   0.0000       0.030727         0.8361 
  21   0.0000       0.033988         0.9249 
  22   0.0000       0.075284         2.0486 
  23   0.0000       0.095641         2.6025 
  24   0.0000       0.098768         2.6876 
  25   0.0000       0.130240         3.5440 
  26   0.0000       0.132236         3.5983 
  27   0.0000       0.163148         4.4395 
  28   0.0000       0.186419         5.0727 
  29   0.0000       0.197375         5.3709 
  30   0.0000       0.213293         5.8040 
  31   0.0000       0.223702         6.0873 
  32   0.0000       0.240999         6.5579 
  33   0.0000       0.255796         6.9605 
  34   0.0000       0.311251         8.4696 
  35   0.0000       0.317412         8.6372 
  36   0.0000       0.350506         9.5378 
  37   0.0000       0.365820         9.9545 
  38   0.0000       0.378423        10.2974 
  39   0.0000       0.406120        11.0511 
  40   0.0000       0.412269        11.2184 
  41   0.0000       0.413363        11.2482 
  42   0.0000       0.433430        11.7942 
  43   0.0000       0.446362        12.1461 
  44   0.0000       0.453602        12.3431 
  45   0.0000       0.460905        12.5419 
  46   0.0000       0.486848        13.2478 
  47   0.0000       0.536830        14.6079 
  48   0.0000       0.545489        14.8435 
  49   0.0000       0.559561        15.2264 
  50   0.0000       0.583804        15.8861 
  51   0.0000       0.591255        16.0889 
  52   0.0000       0.637834        17.3563 
  53   0.0000       0.707022        19.2391 
  54   0.0000       0.742518        20.2049 
  55   0.0000       0.780780        21.2461 
  56   0.0000       0.792932        21.5768 
  57   0.0000       0.819955        22.3121 
  58   0.0000       0.873699        23.7746 
  59   0.0000       0.879008        23.9190 
  60   0.0000       0.961525        26.1644 
  61   0.0000       0.965654        26.2768 
  62   0.0000       0.976562        26.5736 
  63   0.0000       1.032862        28.1056 
  64   0.0000       1.053342        28.6629 
  65   0.0000       1.060996        28.8712 
  66   0.0000       1.105800        30.0903 
  67   0.0000       1.155629        31.4463 
  68   0.0000       1.230358        33.4798 
  69   0.0000       1.342531        36.5321 
  70   0.0000       1.376666        37.4610 
  71   0.0000       1.398510        38.0554 
  72   0.0000       1.445028        39.3212 
  73   0.0000       1.453352        39.5477 
  74   0.0000       1.482752        40.3477 
  75   0.0000       1.485830        40.4315 
  76   0.0000       1.493394        40.6373 
  77   0.0000       1.527070        41.5537 
  78   0.0000       1.546458        42.0813 
  79   0.0000       1.598850        43.5069 
  80   0.0000       1.615357        43.9561 
  81   0.0000       1.625393        44.2292 
  82   0.0000       1.712138        46.5897 
  83   0.0000       1.744108        47.4596 
  84   0.0000       1.750965        47.6462 
  85   0.0000       1.812557        49.3222 
  86   0.0000       1.813857        49.3576 
  87   0.0000       1.825645        49.6783 
  88   0.0000       1.947373        52.9907 
  89   0.0000       1.949861        53.0584 
  90   0.0000       2.015149        54.8350 
  91   0.0000       2.029184        55.2169 
  92   0.0000       2.051717        55.8300 
  93   0.0000       2.076544        56.5056 
  94   0.0000       2.110060        57.4177 
  95   0.0000       2.159999        58.7766 
  96   0.0000       2.165358        58.9224 
  97   0.0000       2.228388        60.6375 
  98   0.0000       2.270459        61.7823 
  99   0.0000       2.271532        61.8115 
 100   0.0000       2.315444        63.0064 
 101   0.0000       2.376018        64.6547 
 102   0.0000       2.436659        66.3049 
 103   0.0000       2.446480        66.5721 
 104   0.0000       2.470519        67.2262 
 105   0.0000       2.491757        67.8042 
 106   0.0000       2.502311        68.0913 
 107   0.0000       2.565643        69.8147 
 108   0.0000       2.595293        70.6215 
 109   0.0000       2.609194        70.9998 
 110   0.0000       2.685862        73.0860 
 111   0.0000       2.714008        73.8519 
 112   0.0000       2.726825        74.2007 
 113   0.0000       2.783373        75.7394 
 114   0.0000       2.812843        76.5414 
 115   0.0000       2.857292        77.7509 
 116   0.0000       2.905147        79.0531 
 117   0.0000       2.941388        80.0392 
 118   0.0000       2.966301        80.7172 
 119   0.0000       3.006776        81.8185 
 120   0.0000       3.043650        82.8219 
 121   0.0000       3.046887        82.9100 
 122   0.0000       3.072314        83.6019 
 123   0.0000       3.143003        85.5255 
 124   0.0000       3.154829        85.8472 
 125   0.0000       3.159810        85.9828 
 126   0.0000       3.176770        86.4443 
 127   0.0000       3.180851        86.5553 
 128   0.0000       3.228117        87.8415 
 129   0.0000       3.242291        88.2272 
 130   0.0000       3.287387        89.4543 
 131   0.0000       3.316037        90.2339 
 132   0.0000       3.331359        90.6509 
 133   0.0000       3.383223        92.0622 
 134   0.0000       3.424929        93.1971 
 135   0.0000       3.475043        94.5607 
 136   0.0000       3.502302        95.3025 
 137   0.0000       3.539775        96.3222 
 138   0.0000       3.557173        96.7956 
 139   0.0000       3.703780       100.7850 
 140   0.0000       3.746247       101.9406 
 141   0.0000       3.813231       103.7633 
 142   0.0000       3.817110       103.8688 
 143   0.0000       3.896235       106.0220 
 144   0.0000       3.923250       106.7571 
 145   0.0000       4.022496       109.4577 
 146   0.0000       4.140038       112.6562 
 147   0.0000       4.234905       115.2376 
 148   0.0000       4.272604       116.2635 
 149   0.0000       4.287495       116.6687 
 150   0.0000       4.346015       118.2611 
 151   0.0000       4.424778       120.4043 
 152   0.0000       4.459165       121.3401 
 153   0.0000       4.564666       124.2109 
 154   0.0000       4.696165       127.7892 
 155   0.0000       4.774716       129.9266 
 156   0.0000       5.091258       138.5402 
 157   0.0000       5.117069       139.2425 
 158   0.0000       5.118436       139.2797 
 159   0.0000       5.134246       139.7099 
 160   0.0000       5.287797       143.8883 
 161   0.0000       5.410664       147.2317 
 162   0.0000       5.481537       149.1602 
 163   0.0000       5.492674       149.4633 
 164   0.0000       5.740014       156.1937 
 165   0.0000       5.936000       161.5268 
 166   0.0000       5.995779       163.1534 
 167   0.0000       6.025470       163.9614 
 168   0.0000       6.228594       169.4887 
 169   0.0000       6.298063       171.3790 
 170   0.0000       6.303565       171.5287 
 171   0.0000       6.353303       172.8822 
 172   0.0000       6.390186       173.8858 
 173   0.0000       6.607277       179.7932 
 174   0.0000       6.673213       181.5874 
 175   0.0000       6.772560       184.2907 
 176   0.0000       6.839171       186.1033 
 177   0.0000       7.002709       190.5534 
 178   0.0000       7.021136       191.0548 
 179   0.0000       7.157723       194.7716 
 180   0.0000      22.086466       601.0033 
 181   0.0000      22.219747       604.6301 
 182   0.0000      23.151419       629.9822 
 183   0.0000      43.456297      1182.5060 
 184   0.0000      43.477216      1183.0752 

                    ********************************
                    * MULLIKEN POPULATION ANALYSIS *
                    ********************************

-----------------------
MULLIKEN ATOMIC CHARGES
-----------------------
   0 C :   -0.350409
   1 C :   -0.240528
   2 H :    0.102284
   3 H :    0.100309
   4 H :    0.106841
   5 C :    0.161373
   6 H :    0.093259
   7 H :    0.095766
   8 O :   -0.522633
   9 O :   -0.546262
Sum of atomic charges:   -1.0000000

--------------------------------
MULLIKEN REDUCED ORBITAL CHARGES
--------------------------------
  0 C s       :     3.219781  s :     3.219781
      pz      :     1.031660  p :     3.070732
      px      :     0.986676
      py      :     1.052396
      dz2     :     0.016155  d :     0.056445
      dxz     :     0.007403
      dyz     :     0.006597
      dx2y2   :     0.007926
      dxy     :     0.018363
      f0      :     0.000491  f :     0.003451
      f+1     :     0.000755
      f-1     :     0.000218
      f+2     :     0.000228
      f-2     :     0.000484
      f+3     :     0.000772
      f-3     :     0.000503
  1 C s       :     3.152639  s :     3.152639
      pz      :     1.021411  p :     2.996853
      px      :     0.965501
      py      :     1.009940
      dz2     :     0.022990  d :     0.085471
      dxz     :     0.010785
      dyz     :     0.008838
      dx2y2   :     0.014139
      dxy     :     0.028719
      f0      :     0.000530  f :     0.005565
      f+1     :     0.000961
      f-1     :     0.000792
      f+2     :     0.000525
      f-2     :     0.000740
      f+3     :     0.001035
      f-3     :     0.000981
  2 H s       :     0.876745  s :     0.876745
      pz      :     0.004626  p :     0.020970
      px      :     0.008017
      py      :     0.008328
  3 H s       :     0.878655  s :     0.878655
      pz      :     0.011242  p :     0.021036
      px      :     0.004740
      py      :     0.005053
  4 H s       :     0.872235  s :     0.872235
      pz      :     0.005957  p :     0.020924
      px      :     0.005960
      py      :     0.009008
  5 C s       :     3.020678  s :     3.020678
      pz      :     0.811459  p :     2.589232
      px      :     0.834800
      py      :     0.942974
      dz2     :     0.053527  d :     0.205234
      dxz     :     0.041893
      dyz     :     0.034827
      dx2y2   :     0.038264
      dxy     :     0.036722
      f0      :     0.002662  f :     0.023482
      f+1     :     0.005139
      f-1     :     0.002551
      f+2     :     0.004910
      f-2     :     0.002905
      f+3     :     0.002630
      f-3     :     0.002684
  6 H s       :     0.885455  s :     0.885455
      pz      :     0.011615  p :     0.021286
      px      :     0.004679
      py      :     0.004992
  7 H s       :     0.882926  s :     0.882926
      pz      :     0.004791  p :     0.021308
      px      :     0.007675
      py      :     0.008843
  8 O s       :     3.761814  s :     3.761814
      pz      :     1.446377  p :     4.733820
      px      :     1.635851
      py      :     1.651592
      dz2     :     0.008039  d :     0.025448
      dxz     :     0.006210
      dyz     :     0.005732
      dx2y2   :     0.002345
      dxy     :     0.003123
      f0      :     0.000363  f :     0.001550
      f+1     :     0.000292
      f-1     :     0.000231
      f+2     :     0.000242
      f-2     :     0.000271
      f+3     :     0.000078
      f-3     :     0.000075
  9 O s       :     3.758444  s :     3.758444
      pz      :     1.627414  p :     4.761129
      px      :     1.449879
      py      :     1.683836
      dz2     :     0.004065  d :     0.025154
      dxz     :     0.006861
      dyz     :     0.002700
      dx2y2   :     0.006218
      dxy     :     0.005310
      f0      :     0.000123  f :     0.001535
      f+1     :     0.000344
      f-1     :     0.000061
      f+2     :     0.000271
      f-2     :     0.000257
      f+3     :     0.000267
      f-3     :     0.000212


                     *******************************
                     * LOEWDIN POPULATION ANALYSIS *
                     *******************************

----------------------
LOEWDIN ATOMIC CHARGES
----------------------
   0 C :   -0.341546
   1 C :   -0.314196
   2 H :    0.116040
   3 H :    0.115493
   4 H :    0.115023
   5 C :   -0.715176
   6 H :    0.138725
   7 H :    0.139760
   8 O :   -0.115118
   9 O :   -0.139004

-------------------------------
LOEWDIN REDUCED ORBITAL CHARGES
-------------------------------
  0 C s       :     2.838562  s :     2.838562
      pz      :     1.074761  p :     3.206910
      px      :     1.062059
      py      :     1.070090
      dz2     :     0.072101  d :     0.270590
      dxz     :     0.039974
      dyz     :     0.035149
      dx2y2   :     0.039264
      dxy     :     0.084101
      f0      :     0.002719  f :     0.025484
      f+1     :     0.005029
      f-1     :     0.001674
      f+2     :     0.004379
      f-2     :     0.003669
      f+3     :     0.004944
      f-3     :     0.003071
  1 C s       :     2.796300  s :     2.796300
      pz      :     1.033947  p :     3.100542
      px      :     1.031196
      py      :     1.035399
      dz2     :     0.096999  d :     0.380148
      dxz     :     0.055174
      dyz     :     0.044928
      dx2y2   :     0.065790
      dxy     :     0.117258
      f0      :     0.003415  f :     0.037206
      f+1     :     0.005820
      f-1     :     0.004590
      f+2     :     0.005936
      f-2     :     0.005134
      f+3     :     0.006999
      f-3     :     0.005312
  2 H s       :     0.822765  s :     0.822765
      pz      :     0.013550  p :     0.061195
      px      :     0.022100
      py      :     0.025545
  3 H s       :     0.823211  s :     0.823211
      pz      :     0.033034  p :     0.061297
      px      :     0.013909
      py      :     0.014354
  4 H s       :     0.823452  s :     0.823452
      pz      :     0.018512  p :     0.061525
      px      :     0.016226
      py      :     0.026787
  5 C s       :     2.783562  s :     2.783562
      pz      :     0.922817  p :     2.775761
      px      :     0.926735
      py      :     0.926208
      dz2     :     0.221580  d :     1.005504
      dxz     :     0.247757
      dyz     :     0.172397
      dx2y2   :     0.183177
      dxy     :     0.180592
      f0      :     0.017959  f :     0.150350
      f+1     :     0.029986
      f-1     :     0.019860
      f+2     :     0.030183
      f-2     :     0.015195
      f+3     :     0.018300
      f-3     :     0.018865
  6 H s       :     0.801523  s :     0.801523
      pz      :     0.031390  p :     0.059752
      px      :     0.013570
      py      :     0.014792
  7 H s       :     0.800357  s :     0.800357
      pz      :     0.013960  p :     0.059882
      px      :     0.021248
      py      :     0.024674
  8 O s       :     3.434880  s :     3.434880
      pz      :     1.479931  p :     4.615512
      px      :     1.570797
      py      :     1.564785
      dz2     :     0.015234  d :     0.059623
      dxz     :     0.016375
      dyz     :     0.015998
      dx2y2   :     0.006297
      dxy     :     0.005718
      f0      :     0.000729  f :     0.005103
      f+1     :     0.001166
      f-1     :     0.000954
      f+2     :     0.000967
      f-2     :     0.000911
      f+3     :     0.000182
      f-3     :     0.000195
  9 O s       :     3.439034  s :     3.439034
      pz      :     1.564623  p :     4.635880
      px      :     1.486443
      py      :     1.584814
      dz2     :     0.009230  d :     0.059043
      dxz     :     0.017791
      dyz     :     0.004899
      dx2y2   :     0.012680
      dxy     :     0.014443
      f0      :     0.000489  f :     0.005047
      f+1     :     0.001058
      f-1     :     0.000133
      f+2     :     0.001025
      f-2     :     0.000803
      f+3     :     0.000683
      f-3     :     0.000856


                      *****************************
                      * MAYER POPULATION ANALYSIS *
                      *****************************

  NA   - Mulliken gross atomic population
  ZA   - Total nuclear charge
  QA   - Mulliken gross atomic charge
  VA   - Mayer's total valence
  BVA  - Mayer's bonded valence
  FA   - Mayer's free valence

  ATOM       NA         ZA         QA         VA         BVA        FA
  0 C      6.3504     6.0000    -0.3504     3.8869     3.8869     0.0000
  1 C      6.2405     6.0000    -0.2405     3.6637     3.6637    -0.0000
  2 H      0.8977     1.0000     0.1023     0.9864     0.9864    -0.0000
  3 H      0.8997     1.0000     0.1003     0.9902     0.9902     0.0000
  4 H      0.8932     1.0000     0.1068     0.9700     0.9700    -0.0000
  5 C      5.8386     6.0000     0.1614     4.6873     4.6873    -0.0000
  6 H      0.9067     1.0000     0.0933     0.9862     0.9862    -0.0000
  7 H      0.9042     1.0000     0.0958     0.9831     0.9831     0.0000
  8 O      8.5226     8.0000    -0.5226     1.8937     1.8937     0.0000
  9 O      8.5463     8.0000    -0.5463     1.8701     1.8701     0.0000

  Mayer bond orders larger than 0.100000
B(  0-C ,  1-C ) :   0.9787 B(  0-C ,  2-H ) :   0.9706 B(  0-C ,  3-H ) :   0.9694 
B(  0-C ,  4-H ) :   0.9520 B(  1-C ,  5-C ) :   0.9550 B(  1-C ,  6-H ) :   0.9412 
B(  1-C ,  7-H ) :   0.9386 B(  1-C ,  8-O ) :  -0.1061 B(  5-C ,  8-O ) :   1.8604 
B(  5-C ,  9-O ) :   1.8445 

-------
TIMINGS
-------

Total SCF time: 0 days 0 hours 0 min 22 sec 

Total time                  ....      22.541 sec
Sum of individual times     ....      20.192 sec  ( 89.6%)

Fock matrix formation       ....      18.576 sec  ( 82.4%)
  Split-RI-J                ....       2.625 sec  ( 14.1% of F)
  XC integration            ....      10.213 sec  ( 55.0% of F)
    Basis function eval.    ....       2.999 sec  ( 29.4% of XC)
    Density eval.           ....       2.017 sec  ( 19.8% of XC)
    XC-Functional eval.     ....       0.558 sec  (  5.5% of XC)
    XC-Potential eval.      ....       2.673 sec  ( 26.2% of XC)
Diagonalization             ....       0.042 sec  (  0.2%)
Density matrix formation    ....       0.004 sec  (  0.0%)
Population analysis         ....       0.095 sec  (  0.4%)
Initial guess               ....       0.418 sec  (  1.9%)
Orbital Transformation      ....       0.000 sec  (  0.0%)
Orbital Orthonormalization  ....       0.000 sec  (  0.0%)
DIIS solution               ....       0.062 sec  (  0.3%)
SOSCF solution              ....       0.118 sec  (  0.5%)
Grid generation             ....       0.879 sec  (  3.9%)

Maximum memory used throughout the entire SCF-calculation: 57.2 MB

-------------------------   --------------------
FINAL SINGLE POINT ENERGY      -267.737679353696
-------------------------   --------------------

------------------------------------------------------------------------------
                         ORCA SCF GRADIENT CALCULATION
------------------------------------------------------------------------------

Gradient of the Kohn-Sham DFT energy:
Kohn-Sham wavefunction type      ... RKS
Hartree-Fock exchange scaling    ...    0.000
Number of operators              ...    1
Number of atoms                  ...   10
Basis set dimensions             ...  185
Integral neglect threshold       ... 2.5e-11
Integral primitive cutoff        ... 2.5e-12
SHARK Integral package           ... ON

Nuc. rep. gradient       (SHARK) ... done (  0.0 sec)
HCore & Overlap gradient (SHARK) ... done (  0.1 sec)
RI-J gradient            (SHARK) ... done (  0.9 sec)
Exchange-correlation gradient    ... done

------------------
CARTESIAN GRADIENT
------------------

   1   C   :   -0.001713389   -0.001795293    0.000274631
   2   C   :   -0.007080550   -0.004224940    0.001018241
   3   H   :   -0.002434683    0.001688490    0.000833787
   4   H   :   -0.000508657   -0.000212571    0.002923849
   5   H   :   -0.002893868   -0.003828056   -0.001432998
   6   C   :   -0.004242417   -0.010080944   -0.006544215
   7   H   :    0.002625190   -0.000086038   -0.004482526
   8   H   :    0.004110117   -0.002049405   -0.002659868
   9   O   :    0.005557953    0.010451539    0.005477440
  10   O   :    0.006580304    0.010137219    0.004591658

Difference to translation invariance:
           :   -0.0000000000    0.0000000000   -0.0000000000

Difference to rotation invariance:
           :    0.0003421017    0.0000014263   -0.0003779794

Norm of the cartesian gradient     ...    0.0259528256
RMS gradient                       ...    0.0047383160
MAX gradient                       ...    0.0104515391

-------
TIMINGS
-------

Total SCF gradient time            ...        5.896 sec

One electron gradient       ....       0.135 sec  (  2.3%)
RI-J Coulomb gradient       ....       0.921 sec  ( 15.6%)
XC gradient                 ....       4.062 sec  ( 68.9%)
CPCM gradient               ....       0.271 sec  (  4.6%)
   A-Matrix (El+Nuc)        ....       0.022 sec  (  0.4%)
   Potential                ....       0.249 sec  (  4.2%)

Maximum memory used throughout the entire SCFGRAD-calculation: 52.6 MB
------------------------------------------------------------------------------
                         ORCA GEOMETRY RELAXATION STEP
------------------------------------------------------------------------------

Reading the OPT-File                    .... done
Getting information on internals        .... done
Copying old internal coords+grads       .... done
Making the new internal coordinates     .... (new redundants).... done
Validating the new internal coordinates .... (new redundants).... done
Calculating the B-matrix                .... done
Calculating the G,G- and P matrices     .... done
Transforming gradient to internals      .... done
Projecting the internal gradient        .... done
Number of atoms                         ....  10
Number of internal coordinates          ....  39
Current Energy                          ....  -267.737679354 Eh
Current gradient norm                   ....     0.025952826 Eh/bohr
Maximum allowed component of the step   ....  0.300
Current trust radius                    ....  0.300
Evaluating the initial hessian          ....  (Almloef) done
Projecting the Hessian                  .... done
Forming the augmented Hessian           .... done
Diagonalizing the augmented Hessian     .... done
Last element of RFO vector              ....  0.996441740
Lowest eigenvalues of augmented Hessian:
 -0.002318246  0.010358151  0.010363428  0.012258730  0.079821028
Length of the computed step             ....  0.084585374
The final length of the internal step   ....  0.084585374
Converting the step to cartesian space:
 Initial RMS(Int)=    0.0135444998
Transforming coordinates:
 Iter   0:  RMS(Cart)=    0.0291832760 RMS(Int)=    0.0135497855
 Iter   1:  RMS(Cart)=    0.0002127282 RMS(Int)=    0.0001796244
 Iter   2:  RMS(Cart)=    0.0000053043 RMS(Int)=    0.0000029435
 Iter   3:  RMS(Cart)=    0.0000001324 RMS(Int)=    0.0000001285
 Iter   4:  RMS(Cart)=    0.0000000037 RMS(Int)=    0.0000000022
done
Storing new coordinates                 .... done

                                .--------------------.
          ----------------------|Geometry convergence|-------------------------
          Item                value                   Tolerance       Converged
          ---------------------------------------------------------------------
          RMS gradient        0.0049433612            0.0001000000      NO
          MAX gradient        0.0181834179            0.0003000000      NO
          RMS step            0.0135444998            0.0020000000      NO
          MAX step            0.0388315506            0.0040000000      NO
          ........................................................
          Max(Bonds)      0.0188      Max(Angles)    2.22
          Max(Dihed)        1.46      Max(Improp)    0.00
          ---------------------------------------------------------------------

The optimization has not yet converged - more geometry cycles are needed


    ---------------------------------------------------------------------------
                         Redundant Internal Coordinates
                            (Angstroem and degrees)

        Definition                    Value    dE/dq     Step     New-Value
    ----------------------------------------------------------------------------
     1. B(C   1,C   0)                1.5163 -0.008767  0.0117    1.5281   
     2. B(H   2,C   0)                1.0949 -0.002870  0.0043    1.0992   
     3. B(H   3,C   0)                1.0949 -0.002780  0.0041    1.0990   
     4. B(H   4,C   0)                1.0945 -0.004820  0.0072    1.1016   
     5. B(C   5,C   1)                1.5311 -0.013316  0.0188    1.5499   
     6. B(H   6,C   1)                1.0965 -0.003857  0.0058    1.1023   
     7. B(H   7,C   1)                1.0965 -0.004132  0.0062    1.1027   
     8. B(O   8,C   5)                1.2614 -0.006059  0.0036    1.2650   
     9. B(O   9,C   5)                1.2652 -0.006275  0.0037    1.2689   
    10. A(H   2,C   0,H   4)          108.09  0.001103   -0.14    107.95   
    11. A(C   1,C   0,H   4)          110.35 -0.001745    0.38    110.74   
    12. A(H   3,C   0,H   4)          108.06  0.000921   -0.09    107.96   
    13. A(H   2,C   0,H   3)          108.02  0.001245   -0.37    107.65   
    14. A(C   1,C   0,H   2)          111.06 -0.000833    0.12    111.18   
    15. A(C   1,C   0,H   3)          111.14 -0.000540    0.07    111.21   
    16. A(C   0,C   1,C   5)          115.34 -0.004042    0.94    116.28   
    17. A(H   6,C   1,H   7)          107.34  0.001466   -1.04    106.31   
    18. A(C   5,C   1,H   7)          107.84  0.002176   -0.41    107.44   
    19. A(C   0,C   1,H   7)          109.06 -0.000576    0.30    109.36   
    20. A(C   5,C   1,H   6)          107.99  0.002308   -0.38    107.60   
    21. A(C   0,C   1,H   6)          108.99 -0.000924    0.42    109.41   
    22. A(O   8,C   5,O   9)          129.30  0.018183   -2.22    127.08   
    23. A(C   1,C   5,O   9)          114.06 -0.008834    1.08    115.13   
    24. A(C   1,C   5,O   8)          116.64 -0.009349    1.15    117.79   
    25. D(H   7,C   1,C   0,H   2)    178.57  0.000125   -0.25    178.32   
    26. D(C   5,C   1,C   0,H   3)     60.34  0.000367   -0.23     60.12   
    27. D(H   6,C   1,C   0,H   2)     61.67 -0.000788    0.59     62.26   
    28. D(C   5,C   1,C   0,H   2)    -59.94 -0.000284    0.11    -59.83   
    29. D(C   5,C   1,C   0,H   4)   -179.80  0.000022   -0.04   -179.84   
    30. D(H   6,C   1,C   0,H   4)    -58.18 -0.000483    0.43    -57.75   
    31. D(H   7,C   1,C   0,H   3)    -61.14  0.000776   -0.58    -61.73   
    32. D(H   7,C   1,C   0,H   4)     58.72  0.000430   -0.40     58.31   
    33. D(H   6,C   1,C   0,H   3)   -178.04 -0.000137    0.25   -177.79   
    34. D(O   9,C   5,C   1,H   6)     55.08  0.001921   -0.16     54.92   
    35. D(O   9,C   5,C   1,C   0)    177.23 -0.000271    0.74    177.97   
    36. D(O   8,C   5,C   1,H   7)    119.28 -0.001955    0.80    120.08   
    37. D(O   8,C   5,C   1,H   6)   -125.02  0.002067   -0.82   -125.83   
    38. D(O   9,C   5,C   1,H   7)    -60.63 -0.002101    1.46    -59.17   
    39. D(O   8,C   5,C   1,C   0)     -2.86 -0.000125    0.08     -2.78   
    ----------------------------------------------------------------------------

         *************************************************************
         *                GEOMETRY OPTIMIZATION CYCLE   2            *
         *************************************************************
---------------------------------
CARTESIAN COORDINATES (ANGSTROEM)
---------------------------------
  C     -5.653951   -3.863613    0.521892
  C     -6.961773   -4.307764    1.175631
  H     -4.899647   -4.662272    0.559870
  H     -5.806809   -3.599551   -0.533910
  H     -5.240678   -2.981508    1.036311
  C     -7.654227   -5.546492    0.552461
  H     -6.782822   -4.526833    2.240972
  H     -7.685225   -3.476077    1.147938
  O     -7.125090   -6.064019   -0.473351
  O     -8.716735   -5.920734    1.136572

----------------------------
CARTESIAN COORDINATES (A.U.)
----------------------------
  NO LB      ZA    FRAG     MASS         X           Y           Z
   0 C     6.0000    0    12.011  -10.684420   -7.301170    0.986232
   1 C     6.0000    0    12.011  -13.155843   -8.140494    2.221620
   2 H     1.0000    0     1.008   -9.258991   -8.810417    1.058002
   3 H     1.0000    0     1.008  -10.973279   -6.802167   -1.008944
   4 H     1.0000    0     1.008   -9.903446   -5.634234    1.958343
   5 C     6.0000    0    12.011  -14.464393  -10.481351    1.044000
   6 H     1.0000    0     1.008  -12.817677   -8.554476    4.234824
   7 H     1.0000    0     1.008  -14.522971   -6.568834    2.169288
   8 O     8.0000    0    15.999  -13.464469  -11.459336   -0.894504
   9 O     8.0000    0    15.999  -16.472241  -11.188566    2.147810

--------------------------------
INTERNAL COORDINATES (ANGSTROEM)
--------------------------------
 C      0   0   0     0.000000000000     0.00000000     0.00000000
 C      1   0   0     1.528084114572     0.00000000     0.00000000
 H      1   2   0     1.099215148868   111.18257093     0.00000000
 H      1   2   3     1.099004937304   111.21060306   119.94757859
 H      1   2   3     1.101603323106   110.73495097   239.98959843
 C      2   1   3     1.549929522491   116.27353622   300.16742711
 H      2   1   3     1.102255303189   109.40896313    62.26475758
 H      2   1   3     1.102657355848   109.36293590   178.32219898
 O      6   2   1     1.264954787200   117.78458720   357.21823396
 O      6   2   1     1.268922671564   115.13319823   177.96706640

---------------------------
INTERNAL COORDINATES (A.U.)
---------------------------
 C      0   0   0     0.000000000000     0.00000000     0.00000000
 C      1   0   0     2.887660486137     0.00000000     0.00000000
 H      1   2   0     2.077215593618   111.18257093     0.00000000
 H      1   2   3     2.076818351331   111.21060306   119.94757859
 H      1   2   3     2.081728588889   110.73495097   239.98959843
 C      2   1   3     2.928942324388   116.27353622   300.16742711
 H      2   1   3     2.082960652689   109.40896313    62.26475758
 H      2   1   3     2.083720422107   109.36293590   178.32219898
 O      6   2   1     2.390418119600   117.78458720   357.21823396
 O      6   2   1     2.397916334380   115.13319823   177.96706640

------------------------------------------------------------------------------
                   ___                                                        
                  /   \      - P O W E R E D   B Y -                         
                 /     \                                                     
                 |  |  |   _    _      __       _____    __    __             
                 |  |  |  | |  | |    /  \     |  _  \  |  |  /  |          
                  \  \/   | |  | |   /    \    | | | |  |  | /  /          
                 / \  \   | |__| |  /  /\  \   | |_| |  |  |/  /          
                |  |  |   |  __  | /  /__\  \  |    /   |      \           
                |  |  |   | |  | | |   __   |  |    \   |  |\   \          
                \     /   | |  | | |  |  |  |  | |\  \  |  | \   \       
                 \___/    |_|  |_| |__|  |__|  |_| \__\ |__|  \__/        
                                                                              
                      - O R C A' S   B I G   F R I E N D -                    
                                      &                                       
                       - I N T E G R A L  F E E D E R -                       
                                                                              
 v1 FN, 2020, v2 2021                                                         
------------------------------------------------------------------------------


Reading SHARK input file inp.SHARKINP.tmp ... ok
----------------------
SHARK INTEGRAL PACKAGE
----------------------

Number of atoms                             ...     10
Number of basis functions                   ...    185
Number of shells                            ...     75
Maximum angular momentum                    ...      3
Integral batch strategy                     ... SHARK/LIBINT Hybrid
RI-J (if used) integral strategy            ... SPLIT-RIJ (Revised 2003 algorithm where possible)
Printlevel                                  ...      1
Contraction scheme used                     ... SEGMENTED contraction
Coulomb Range Separation                    ... NOT USED
Exchange Range Separation                   ... NOT USED
Finite Nucleus Model                        ... NOT USED
Auxiliary Coulomb fitting basis             ... AVAILABLE
   # of basis functions in Aux-J            ...    300
   # of shells in Aux-J                     ...    100
   Maximum angular momentum in Aux-J        ...      4
Auxiliary J/K fitting basis                 ... NOT available
Auxiliary Correlation fitting basis         ... NOT available
Auxiliary 'external' fitting basis          ... NOT available
Integral threshold                          ...     2.500000e-11
Primitive cut-off                           ...     2.500000e-12
Primitive pair pre-selection threshold      ...     2.500000e-12

Calculating pre-screening integrals         ... done (  0.1 sec) Dimension = 75
Organizing shell pair data                  ... done (  0.1 sec)
Shell pair information
Total number of shell pairs                 ...      2850
Shell pairs after pre-screening             ...      2734
Total number of primitive shell pairs       ...      8640
Primitive shell pairs kept                  ...      6599
          la=0 lb=0:    761 shell pairs
          la=1 lb=0:    779 shell pairs
          la=1 lb=1:    207 shell pairs
          la=2 lb=0:    383 shell pairs
          la=2 lb=1:    195 shell pairs
          la=2 lb=2:     54 shell pairs
          la=3 lb=0:    191 shell pairs
          la=3 lb=1:     99 shell pairs
          la=3 lb=2:     50 shell pairs
          la=3 lb=3:     15 shell pairs

Calculating one electron integrals          ... done (  0.0 sec)
Calculating RI/J V-Matrix + Cholesky decomp.... done (  0.1 sec)
Calculating Nuclear repulsion               ... done (  0.0 sec) ENN=    167.183870714762 Eh

SHARK setup successfully completed in   0.8 seconds

Maximum memory used throughout the entire GTOINT-calculation: 41.9 MB

Diagonalization of the overlap matrix:
Smallest eigenvalue                        ... 3.083e-04
Time for diagonalization                   ...    0.005 sec
Threshold for overlap eigenvalues          ... 1.000e-08
Number of eigenvalues below threshold      ... 0
Time for construction of square roots      ...    0.015 sec
Total time needed                          ...    0.021 sec

-------------------
DFT GRID GENERATION
-------------------

General Integration Accuracy     IntAcc      ... 4.388
Radial Grid Type                 RadialGrid  ... OptM3 with GC (2021)
Angular Grid (max. ang.)         AngularGrid ... 4 (Lebedev-302)
Angular grid pruning method      GridPruning ... 4 (adaptive)
Weight generation scheme         WeightScheme... Becke
Basis function cutoff            BFCut       ... 1.0000e-11
Integration weight cutoff        WCut        ... 1.0000e-14
Angular grids for H and He will be reduced by one unit
Partially contracted basis set               ... off
Rotationally invariant grid construction     ... off

Total number of grid points                  ...    46608
Total number of batches                      ...      734
Average number of points per batch           ...       63
Average number of grid points per atom       ...     4661
Time for grid setup =    0.498 sec


--------------------
CPCM SOLVATION MODEL
--------------------
CPCM parameters:
  Epsilon                                         ...      80.4000
  Refrac                                          ...       1.3300
  Rsolv                                           ...       1.3000
  Surface type                                    ... GAUSSIAN VDW
  Epsilon function type                           ...         CPCM
Radii:
 Radius for C  used is    3.8550 Bohr (=   2.0400 Ang.)
 Radius for H  used is    2.4944 Bohr (=   1.3200 Ang.)
 Radius for O  used is    3.4469 Bohr (=   1.8240 Ang.)
Calculating surface                               ...        done! (  0.0s)
GEPOL surface points                              ...          621
GEPOL Volume                                      ...     662.0412
GEPOL Surface-area                                ...     413.3751
Calculating surface distance matrix               ...        done! (  0.0s)
Performing Cholesky decomposition & store         ...        done! (  0.1s)
Overall time for CPCM initialization              ...                 0.1s
--------------
SCF ITERATIONS
--------------
ITER       Energy         Delta-E        Max-DP      RMS-DP      [F,P]     Damp
               ***  Starting incremental Fock matrix formation  ***
  0   -267.7384127522   0.000000000000 0.01209452  0.00012896  0.0072060 0.7000
                      *** Initiating the SOSCF procedure ***
                      *** Re-Reading the Fockian *** 
                      *** Removing any level shift *** 
ITER      Energy       Delta-E        Grad      Rot      Max-DP    RMS-DP
  1   -267.73860396  -0.0001912116  0.000802  0.000802  0.041502  0.000431
               *** Restarting incremental Fock matrix formation ***
  2   -267.73905794  -0.0004539800  0.000507  0.002220  0.020374  0.000188
  3   -267.73904011   0.0000178314  0.001538  0.002166  0.005514  0.000078
  4   -267.73906603  -0.0000259144  0.000503  0.001093  0.012895  0.000113
  5   -267.73905983   0.0000061986  0.000523  0.000566  0.008401  0.000073
  6   -267.73906887  -0.0000090380  0.000071  0.000194  0.000275  0.000005
  7   -267.73906871   0.0000001556  0.000137  0.000125  0.000087  0.000003
  8   -267.73906892  -0.0000002114  0.000007  0.000014  0.000333  0.000003
  9   -267.73906892  -0.0000000002  0.000011  0.000008  0.000190  0.000002
                  ***Gradient check signals convergence***
              ***Rediagonalizing the Fockian in SOSCF/NRSCF***

               *****************************************************
               *                     SUCCESS                       *
               *           SCF CONVERGED AFTER  10 CYCLES          *
               *****************************************************

Total Energy       :         -267.73906893 Eh           -7285.55046 eV
  Last Energy change         ...   -2.9221e-09  Tolerance :   1.0000e-08
  Last MAX-Density change    ...    1.2018e-05  Tolerance :   1.0000e-07
             **** THE GBW FILE WAS UPDATED (inp.gbw) ****
             **** DENSITY inp.scfp WAS UPDATED ****
             **** ENERGY FILE WAS UPDATED (inp.en.tmp) ****
             **** THE GBW FILE WAS UPDATED (inp.gbw) ****
             **** DENSITY inp.scfp WAS UPDATED ****
Total SCF time: 0 days 0 hours 0 min 15 sec 

Maximum memory used throughout the entire SCF-calculation: 57.0 MB

-------------------------   --------------------
FINAL SINGLE POINT ENERGY      -267.739068925283
-------------------------   --------------------

------------------------------------------------------------------------------
                         ORCA SCF GRADIENT CALCULATION
------------------------------------------------------------------------------

Gradient of the Kohn-Sham DFT energy:
Kohn-Sham wavefunction type      ... RKS
Hartree-Fock exchange scaling    ...    0.000
Number of operators              ...    1
Number of atoms                  ...   10
Basis set dimensions             ...  185
Integral neglect threshold       ... 2.5e-11
Integral primitive cutoff        ... 2.5e-12
SHARK Integral package           ... ON

Nuc. rep. gradient       (SHARK) ... done (  0.0 sec)
HCore & Overlap gradient (SHARK) ... done (  0.1 sec)
RI-J gradient            (SHARK) ... done (  0.9 sec)
Exchange-correlation gradient    ... done

------------------
CARTESIAN GRADIENT
------------------

   1   C   :    0.000648357   -0.000198875   -0.000512416
   2   C   :   -0.003866717   -0.001004931    0.001313508
   3   H   :   -0.000386739    0.000089409    0.000406533
   4   H   :   -0.000282227    0.000188635    0.000390508
   5   H   :   -0.000276460    0.000068472    0.000263616
   6   C   :   -0.001260924   -0.006171823   -0.002457264
   7   H   :    0.001834633   -0.000158184   -0.000700625
   8   H   :    0.001247575    0.000642756   -0.001371068
   9   O   :    0.001427185    0.003550349    0.001214382
  10   O   :    0.000915318    0.002994190    0.001452826

Difference to translation invariance:
           :    0.0000000000    0.0000000000    0.0000000000

Difference to rotation invariance:
           :    0.0007636593   -0.0004556779    0.0002505538

Norm of the cartesian gradient     ...    0.0100315130
RMS gradient                       ...    0.0018314953
MAX gradient                       ...    0.0061718227

-------
TIMINGS
-------

Total SCF gradient time            ...        5.898 sec

One electron gradient       ....       0.134 sec  (  2.3%)
RI-J Coulomb gradient       ....       0.913 sec  ( 15.5%)
XC gradient                 ....       4.093 sec  ( 69.4%)
CPCM gradient               ....       0.271 sec  (  4.6%)
   A-Matrix (El+Nuc)        ....       0.023 sec  (  0.4%)
   Potential                ....       0.248 sec  (  4.2%)

Maximum memory used throughout the entire SCFGRAD-calculation: 53.2 MB
------------------------------------------------------------------------------
                         ORCA GEOMETRY RELAXATION STEP
------------------------------------------------------------------------------

Reading the OPT-File                    .... done
Getting information on internals        .... done
Copying old internal coords+grads       .... done
Making the new internal coordinates     .... (new redundants).... done
Validating the new internal coordinates .... (new redundants).... done
Calculating the B-matrix                .... done
Calculating the G,G- and P matrices     .... done
Transforming gradient to internals      .... done
Projecting the internal gradient        .... done
Number of atoms                         ....  10
Number of internal coordinates          ....  39
Current Energy                          ....  -267.739068925 Eh
Current gradient norm                   ....     0.010031513 Eh/bohr
Maximum allowed component of the step   ....  0.300
Current trust radius                    ....  0.300
Updating the Hessian (BFGS)             .... done
Forming the augmented Hessian           .... done
Diagonalizing the augmented Hessian     .... done
Last element of RFO vector              ....  0.992852732
Lowest eigenvalues of augmented Hessian:
 -0.000365457  0.010333084  0.010650503  0.012258763  0.079779420
Length of the computed step             ....  0.120205074
The final length of the internal step   ....  0.120205074
Converting the step to cartesian space:
 Initial RMS(Int)=    0.0192482166
Transforming coordinates:
 Iter   0:  RMS(Cart)=    0.0184143722 RMS(Int)=    0.0194022631
 Iter   1:  RMS(Cart)=    0.0005582216 RMS(Int)=    0.0004704629
 Iter   2:  RMS(Cart)=    0.0000116640 RMS(Int)=    0.0000101319
 Iter   3:  RMS(Cart)=    0.0000005059 RMS(Int)=    0.0000004958
 Iter   4:  RMS(Cart)=    0.0000000228 RMS(Int)=    0.0000000194
done
Storing new coordinates                 .... done

                                .--------------------.
          ----------------------|Geometry convergence|-------------------------
          Item                value                   Tolerance       Converged
          ---------------------------------------------------------------------
          Energy change      -0.0013895716            0.0000050000      NO
          RMS gradient        0.0012525228            0.0001000000      NO
          MAX gradient        0.0054271059            0.0003000000      NO
[...]
  38   0.0000       0.373347        10.1593 
  39   0.0000       0.399718        10.8769 
  40   0.0000       0.407812        11.0971 
  41   0.0000       0.410133        11.1603 
  42   0.0000       0.430454        11.7132 
  43   0.0000       0.450024        12.2458 
  44   0.0000       0.454163        12.3584 
  45   0.0000       0.463285        12.6066 
  46   0.0000       0.486898        13.2492 
  47   0.0000       0.524647        14.2764 
  48   0.0000       0.527022        14.3410 
  49   0.0000       0.557576        15.1724 
  50   0.0000       0.579049        15.7567 
  51   0.0000       0.591671        16.1002 
  52   0.0000       0.639117        17.3913 
  53   0.0000       0.698718        19.0131 
  54   0.0000       0.740377        20.1467 
  55   0.0000       0.771966        21.0063 
  56   0.0000       0.789238        21.4763 
  57   0.0000       0.814990        22.1770 
  58   0.0000       0.864613        23.5273 
  59   0.0000       0.877019        23.8649 
  60   0.0000       0.951726        25.8978 
  61   0.0000       0.969451        26.3801 
  62   0.0000       0.972339        26.4587 
  63   0.0000       1.030642        28.0452 
  64   0.0000       1.049761        28.5654 
  65   0.0000       1.052759        28.6470 
  66   0.0000       1.107630        30.1401 
  67   0.0000       1.146904        31.2089 
  68   0.0000       1.219323        33.1795 
  69   0.0000       1.335396        36.3380 
  70   0.0000       1.372210        37.3397 
  71   0.0000       1.396002        37.9871 
  72   0.0000       1.443598        39.2823 
  73   0.0000       1.459607        39.7179 
  74   0.0000       1.479584        40.2615 
  75   0.0000       1.484993        40.4087 
  76   0.0000       1.495082        40.6833 
  77   0.0000       1.525801        41.5192 
  78   0.0000       1.539555        41.8934 
  79   0.0000       1.586004        43.1574 
  80   0.0000       1.606382        43.7119 
  81   0.0000       1.616054        43.9751 
  82   0.0000       1.711410        46.5698 
  83   0.0000       1.734515        47.1986 
  84   0.0000       1.764733        48.0208 
  85   0.0000       1.796399        48.8825 
  86   0.0000       1.807131        49.1745 
  87   0.0000       1.826205        49.6936 
  88   0.0000       1.936263        52.6884 
  89   0.0000       1.948687        53.0265 
  90   0.0000       1.989489        54.1367 
  91   0.0000       2.015682        54.8495 
  92   0.0000       2.044126        55.6235 
  93   0.0000       2.088135        56.8211 
  94   0.0000       2.108613        57.3783 
  95   0.0000       2.150341        58.5138 
  96   0.0000       2.158451        58.7344 
  97   0.0000       2.220940        60.4349 
  98   0.0000       2.261111        61.5280 
  99   0.0000       2.268677        61.7338 
 100   0.0000       2.313493        62.9533 
 101   0.0000       2.370792        64.5125 
 102   0.0000       2.410825        65.6019 
 103   0.0000       2.435981        66.2864 
 104   0.0000       2.455099        66.8066 
 105   0.0000       2.482817        67.5609 
 106   0.0000       2.496132        67.9232 
 107   0.0000       2.560450        69.6734 
 108   0.0000       2.574759        70.0628 
 109   0.0000       2.621930        71.3463 
 110   0.0000       2.682214        72.9867 
 111   0.0000       2.694284        73.3152 
 112   0.0000       2.729047        74.2611 
 113   0.0000       2.764610        75.2289 
 114   0.0000       2.801999        76.2463 
 115   0.0000       2.864843        77.9563 
 116   0.0000       2.903805        79.0166 
 117   0.0000       2.938417        79.9584 
 118   0.0000       2.964942        80.6802 
 119   0.0000       2.991852        81.4124 
 120   0.0000       3.033280        82.5397 
 121   0.0000       3.038807        82.6902 
 122   0.0000       3.063923        83.3736 
 123   0.0000       3.123256        84.9881 
 124   0.0000       3.132416        85.2374 
 125   0.0000       3.151376        85.7533 
 126   0.0000       3.167933        86.2038 
 127   0.0000       3.170971        86.2865 
 128   0.0000       3.216143        87.5157 
 129   0.0000       3.248629        88.3997 
 130   0.0000       3.285061        89.3911 
 131   0.0000       3.306094        89.9634 
 132   0.0000       3.327624        90.5493 
 133   0.0000       3.379557        91.9624 
 134   0.0000       3.411426        92.8296 
 135   0.0000       3.463037        94.2340 
 136   0.0000       3.490129        94.9712 
 137   0.0000       3.508879        95.4814 
 138   0.0000       3.514769        95.6417 
 139   0.0000       3.679622       100.1276 
 140   0.0000       3.723962       101.3342 
 141   0.0000       3.788827       103.0992 
 142   0.0000       3.808240       103.6275 
 143   0.0000       3.877661       105.5165 
 144   0.0000       3.896502       106.0292 
 145   0.0000       3.997016       108.7643 
 146   0.0000       4.123626       112.2096 
 147   0.0000       4.195670       114.1700 
 148   0.0000       4.283209       116.5520 
 149   0.0000       4.289669       116.7278 
 150   0.0000       4.315856       117.4404 
 151   0.0000       4.407860       119.9440 
 152   0.0000       4.436424       120.7212 
 153   0.0000       4.513411       122.8161 
 154   0.0000       4.686359       127.5223 
 155   0.0000       4.765482       129.6753 
 156   0.0000       5.091495       138.5466 
 157   0.0000       5.112480       139.1176 
 158   0.0000       5.115943       139.2119 
 159   0.0000       5.129384       139.5776 
 160   0.0000       5.254830       142.9912 
 161   0.0000       5.438464       147.9881 
 162   0.0000       5.458171       148.5244 
 163   0.0000       5.508460       149.8928 
 164   0.0000       5.697030       155.0241 
 165   0.0000       5.945499       161.7853 
 166   0.0000       5.947649       161.8438 
 167   0.0000       6.019063       163.7870 
 168   0.0000       6.223651       169.3541 
 169   0.0000       6.252021       170.1261 
 170   0.0000       6.321607       172.0197 
 171   0.0000       6.342649       172.5923 
 172   0.0000       6.385150       173.7488 
 173   0.0000       6.606591       179.7745 
 174   0.0000       6.680704       181.7912 
 175   0.0000       6.758753       183.9150 
 176   0.0000       6.832698       185.9272 
 177   0.0000       6.995039       190.3447 
 178   0.0000       7.016644       190.9326 
 179   0.0000       7.089206       192.9071 
 180   0.0000      22.047408       599.9405 
 181   0.0000      22.171464       603.3162 
 182   0.0000      23.092404       628.3763 
 183   0.0000      43.431086      1181.8199 
 184   0.0000      43.466994      1182.7970 

                    ********************************
                    * MULLIKEN POPULATION ANALYSIS *
                    ********************************

-----------------------
MULLIKEN ATOMIC CHARGES
-----------------------
   0 C :   -0.354982
   1 C :   -0.237505
   2 H :    0.102520
   3 H :    0.106348
   4 H :    0.112624
   5 C :    0.156663
   6 H :    0.100420
   7 H :    0.096396
   8 O :   -0.531134
   9 O :   -0.551351
Sum of atomic charges:   -1.0000000

--------------------------------
MULLIKEN REDUCED ORBITAL CHARGES
--------------------------------
  0 C s       :     3.224678  s :     3.224678
      pz      :     1.032238  p :     3.071677
      px      :     0.987731
      py      :     1.051708
      dz2     :     0.015641  d :     0.055288
      dxz     :     0.007064
      dyz     :     0.006872
      dx2y2   :     0.007867
      dxy     :     0.017843
      f0      :     0.000432  f :     0.003340
      f+1     :     0.000731
      f-1     :     0.000231
      f+2     :     0.000235
      f-2     :     0.000506
      f+3     :     0.000741
      f-3     :     0.000464
  1 C s       :     3.156771  s :     3.156771
      pz      :     1.022453  p :     2.990902
      px      :     0.968917
      py      :     0.999532
      dz2     :     0.022264  d :     0.084578
      dxz     :     0.010494
      dyz     :     0.009168
      dx2y2   :     0.014127
      dxy     :     0.028526
      f0      :     0.000465  f :     0.005253
      f+1     :     0.000891
      f-1     :     0.000697
      f+2     :     0.000543
      f-2     :     0.000741
      f+3     :     0.000985
      f-3     :     0.000933
  2 H s       :     0.876503  s :     0.876503
      pz      :     0.004619  p :     0.020977
      px      :     0.008033
      py      :     0.008325
  3 H s       :     0.872812  s :     0.872812
      pz      :     0.011061  p :     0.020840
      px      :     0.004664
      py      :     0.005115
  4 H s       :     0.866658  s :     0.866658
      pz      :     0.005904  p :     0.020718
      px      :     0.005929
      py      :     0.008886
  5 C s       :     3.033698  s :     3.033698
      pz      :     0.812830  p :     2.582811
      px      :     0.834555
      py      :     0.935426
      dz2     :     0.049935  d :     0.203769
      dxz     :     0.042669
      dyz     :     0.028612
      dx2y2   :     0.039956
      dxy     :     0.042597
      f0      :     0.002262  f :     0.023059
      f+1     :     0.004237
      f-1     :     0.002266
      f+2     :     0.005009
      f-2     :     0.002739
      f+3     :     0.002914
      f-3     :     0.003631
  6 H s       :     0.878386  s :     0.878386
      pz      :     0.011544  p :     0.021194
      px      :     0.004610
      py      :     0.005040
  7 H s       :     0.882423  s :     0.882423
      pz      :     0.004830  p :     0.021181
      px      :     0.007811
      py      :     0.008540
  8 O s       :     3.764224  s :     3.764224
      pz      :     1.462939  p :     4.739854
      px      :     1.659912
      py      :     1.617003
      dz2     :     0.007221  d :     0.025500
      dxz     :     0.005637
      dyz     :     0.005722
      dx2y2   :     0.003041
      dxy     :     0.003879
      f0      :     0.000276  f :     0.001556
      f+1     :     0.000253
      f-1     :     0.000236
      f+2     :     0.000265
      f-2     :     0.000298
      f+3     :     0.000121
      f-3     :     0.000108
  9 O s       :     3.761184  s :     3.761184
      pz      :     1.635007  p :     4.763334
      px      :     1.428440
      py      :     1.699887
      dz2     :     0.003689  d :     0.025288
      dxz     :     0.007036
      dyz     :     0.001934
      dx2y2   :     0.006792
      dxy     :     0.005837
      f0      :     0.000122  f :     0.001546
      f+1     :     0.000332
      f-1     :     0.000036
      f+2     :     0.000266
      f-2     :     0.000210
      f+3     :     0.000307
      f-3     :     0.000272


                     *******************************
                     * LOEWDIN POPULATION ANALYSIS *
                     *******************************

----------------------
LOEWDIN ATOMIC CHARGES
----------------------
   0 C :   -0.341160
   1 C :   -0.310472
   2 H :    0.116698
   3 H :    0.117625
   4 H :    0.117538
   5 C :   -0.701149
   6 H :    0.141306
   7 H :    0.138625
   8 O :   -0.130089
   9 O :   -0.148924

-------------------------------
LOEWDIN REDUCED ORBITAL CHARGES
-------------------------------
  0 C s       :     2.844044  s :     2.844044
      pz      :     1.075591  p :     3.209549
      px      :     1.061533
      py      :     1.072426
      dz2     :     0.068935  d :     0.263067
      dxz     :     0.039378
      dyz     :     0.035640
      dx2y2   :     0.037909
      dxy     :     0.081206
      f0      :     0.002590  f :     0.024499
      f+1     :     0.004877
      f-1     :     0.001769
      f+2     :     0.004133
      f-2     :     0.003392
      f+3     :     0.004807
      f-3     :     0.002931
  1 C s       :     2.804818  s :     2.804818
      pz      :     1.035936  p :     3.101739
      px      :     1.032714
      py      :     1.033088
      dz2     :     0.092388  d :     0.368954
      dxz     :     0.053376
      dyz     :     0.045247
      dx2y2   :     0.063049
      dxy     :     0.114892
      f0      :     0.003375  f :     0.034962
      f+1     :     0.005503
      f-1     :     0.004320
      f+2     :     0.005461
      f-2     :     0.004661
      f+3     :     0.006575
      f-3     :     0.005066
  2 H s       :     0.822458  s :     0.822458
      pz      :     0.013331  p :     0.060843
      px      :     0.022083
      py      :     0.025429
  3 H s       :     0.821819  s :     0.821819
      pz      :     0.032442  p :     0.060556
      px      :     0.013680
      py      :     0.014435
  4 H s       :     0.821856  s :     0.821856
      pz      :     0.018250  p :     0.060606
      px      :     0.016025
      py      :     0.026331
  5 C s       :     2.792603  s :     2.792603
      pz      :     0.898707  p :     2.771363
      px      :     0.944811
      py      :     0.927845
      dz2     :     0.194787  d :     0.987863
      dxz     :     0.237393
      dyz     :     0.147306
      dx2y2   :     0.201060
      dxy     :     0.207317
      f0      :     0.016687  f :     0.149320
      f+1     :     0.024299
      f-1     :     0.017389
      f+2     :     0.030917
      f-2     :     0.015118
      f+3     :     0.020238
      f-3     :     0.024671
  6 H s       :     0.799539  s :     0.799539
      pz      :     0.031123  p :     0.059155
      px      :     0.013239
      py      :     0.014793
  7 H s       :     0.802249  s :     0.802249
      pz      :     0.013690  p :     0.059125
      px      :     0.021561
      py      :     0.023874
  8 O s       :     3.441406  s :     3.441406
      pz      :     1.475780  p :     4.624825
      px      :     1.595254
      py      :     1.553792
      dz2     :     0.012285  d :     0.058850
      dxz     :     0.014987
      dyz     :     0.016049
      dx2y2   :     0.007869
      dxy     :     0.007660
      f0      :     0.000545  f :     0.005008
      f+1     :     0.000895
      f-1     :     0.000850
      f+2     :     0.001016
      f-2     :     0.001099
      f+3     :     0.000289
      f-3     :     0.000314
  9 O s       :     3.444106  s :     3.444106
      pz      :     1.559509  p :     4.641365
      px      :     1.485195
      py      :     1.596661
      dz2     :     0.008277  d :     0.058483
      dxz     :     0.017057
      dyz     :     0.003320
      dx2y2   :     0.015018
      dxy     :     0.014811
      f0      :     0.000468  f :     0.004970
      f+1     :     0.000959
      f-1     :     0.000075
      f+2     :     0.001021
      f-2     :     0.000589
      f+3     :     0.000856
      f-3     :     0.001001


                      *****************************
                      * MAYER POPULATION ANALYSIS *
                      *****************************

  NA   - Mulliken gross atomic population
  ZA   - Total nuclear charge
  QA   - Mulliken gross atomic charge
  VA   - Mayer's total valence
  BVA  - Mayer's bonded valence
  FA   - Mayer's free valence

  ATOM       NA         ZA         QA         VA         BVA        FA
  0 C      6.3550     6.0000    -0.3550     3.8906     3.8906    -0.0000
  1 C      6.2375     6.0000    -0.2375     3.6577     3.6577     0.0000
  2 H      0.8975     1.0000     0.1025     0.9915     0.9915    -0.0000
  3 H      0.8937     1.0000     0.1063     0.9827     0.9827     0.0000
  4 H      0.8874     1.0000     0.1126     0.9692     0.9692    -0.0000
  5 C      5.8433     6.0000     0.1567     4.6811     4.6811     0.0000
  6 H      0.8996     1.0000     0.1004     0.9807     0.9807     0.0000
  7 H      0.9036     1.0000     0.0964     0.9871     0.9871    -0.0000
  8 O      8.5311     8.0000    -0.5311     1.8830     1.8830    -0.0000
  9 O      8.5514     8.0000    -0.5514     1.8639     1.8639    -0.0000

  Mayer bond orders larger than 0.100000
B(  0-C ,  1-C ) :   0.9804 B(  0-C ,  2-H ) :   0.9676 B(  0-C ,  3-H ) :   0.9702 
B(  0-C ,  4-H ) :   0.9525 B(  1-C ,  5-C ) :   0.9447 B(  1-C ,  6-H ) :   0.9366 
B(  1-C ,  7-H ) :   0.9416 B(  1-C ,  8-O ) :  -0.1024 B(  5-C ,  8-O ) :   1.8613 
B(  5-C ,  9-O ) :   1.8448 

-------
TIMINGS
-------

Total SCF time: 0 days 0 hours 0 min 11 sec 

Total time                  ....      11.127 sec
Sum of individual times     ....       9.930 sec  ( 89.2%)

Fock matrix formation       ....       9.180 sec  ( 82.5%)
  Split-RI-J                ....       1.254 sec  ( 13.7% of F)
  XC integration            ....       4.635 sec  ( 50.5% of F)
    Basis function eval.    ....       1.489 sec  ( 32.1% of XC)
    Density eval.           ....       0.981 sec  ( 21.2% of XC)
    XC-Functional eval.     ....       0.278 sec  (  6.0% of XC)
    XC-Potential eval.      ....       1.041 sec  ( 22.5% of XC)
Diagonalization             ....       0.005 sec  (  0.0%)
Density matrix formation    ....       0.002 sec  (  0.0%)
Population analysis         ....       0.126 sec  (  1.1%)
Initial guess               ....       0.007 sec  (  0.1%)
Orbital Transformation      ....       0.000 sec  (  0.0%)
Orbital Orthonormalization  ....       0.005 sec  (  0.0%)
DIIS solution               ....       0.001 sec  (  0.0%)
SOSCF solution              ....       0.099 sec  (  0.9%)
Grid generation             ....       0.510 sec  (  4.6%)

Maximum memory used throughout the entire SCF-calculation: 57.0 MB

-------------------------   --------------------
FINAL SINGLE POINT ENERGY      -267.739278442726
-------------------------   --------------------

                                *** OPTIMIZATION RUN DONE ***

                            ***************************************
                            *     ORCA property calculations      *
                            ***************************************

                                    ---------------------
                                    Active property flags
                                    ---------------------
   (+) Dipole Moment


------------------------------------------------------------------------------
                       ORCA ELECTRIC PROPERTIES CALCULATION
------------------------------------------------------------------------------

Dipole Moment Calculation                       ... on
Quadrupole Moment Calculation                   ... off
Polarizability Calculation                      ... off
GBWName                                         ... inp.gbw
Electron density                                ... inp.scfp
The origin for moment calculation is the CENTER OF MASS  = (-13.642080, -9.724680  1.089919)

-------------
DIPOLE MOMENT
-------------
                                X             Y             Z
Electronic contribution:     -3.76806      -4.07542      -0.79501
Nuclear contribution   :      5.30192       6.06203       1.46268
                        -----------------------------------------
Total Dipole Moment    :      1.53385       1.98661       0.66767
                        -----------------------------------------
Magnitude (a.u.)       :      2.59713
Magnitude (Debye)      :      6.60139



--------------------
Rotational spectrum 
--------------------
 
Rotational constants in cm-1:     0.337957     0.130158     0.097455 
Rotational constants in MHz : 10131.707685  3902.025308  2921.639924 

 Dipole components along the rotational axes: 
x,y,z [a.u.] :     2.452503     0.853748     0.038088 
x,y,z [Debye]:     6.233767     2.170054     0.096812 

 

Timings for individual modules:

Sum of individual times         ...      269.843 sec (=   4.497 min)
GTO integral calculation        ...       10.777 sec (=   0.180 min)   4.0 %
SCF iterations                  ...      192.057 sec (=   3.201 min)  71.2 %
SCF Gradient evaluation         ...       65.371 sec (=   1.090 min)  24.2 %
Geometry relaxation             ...        1.638 sec (=   0.027 min)   0.6 %
                             ****ORCA TERMINATED NORMALLY****
TOTAL RUN TIME: 0 days 0 hours 4 minutes 35 seconds 663 msec
