 Entering Gaussian System
 *********************************************
 Gaussian 98:
 frequency output generated by the xtb code
 *********************************************
                         Standard orientation:
 --------------------------------------------------------------------
  Center     Atomic     Atomic              Coordinates (Angstroms)
  Number     Number      Type              X           Y           Z
 --------------------------------------------------------------------
    1          6             0       -4.077830   -1.948843    1.931857
    2          6             0       -3.791155   -2.421231    0.692595
    3          7             0       -7.203889   -3.882452    2.616645
    4          6             0       -5.229023   -2.370727    2.709519
    5          1             0       -3.438760   -1.214556    2.405670
    6          6             0       -4.620719   -3.375131    0.076221
    7          1             0       -2.913293   -2.064736    0.162552
    8          6             0       -5.723636   -3.819493    0.748532
    9          1             0       -4.385149   -3.746574   -0.911831
   10          6             0       -6.055944   -3.356938    2.031068
   11          1             0       -6.382396   -4.552655    0.303120
   12          8             0       -5.436442   -1.902164    3.835713
   13          8             0       -7.862230   -4.723751    1.975123
   14          8             0       -7.564485   -3.530801    3.736487
 --------------------------------------------------------------------
     1 basis functions        1 primitive gaussians
     1 alpha electrons        1 beta electrons
 
 Harmonic frequencies (cm**-1), IR intensities (km*mol⁻¹),
 Raman scattering activities (A**4/amu), Raman depolarization ratios,
 reduced masses (AMU), force constants (mDyne/A) and normal coordinates:
                      1                      2                      3
                        a                      a                      a 
 Frequencies --    15.2649                94.7594               217.5296
 Red. masses --    15.6105                11.7791                11.5748
 Frc consts  --     0.0000                 0.0000                 0.0000
 IR Inten    --     1.8412                 0.0118                11.7769
 Raman Activ --     0.0000                 0.0000                 0.0000
 Depolar     --     0.0000                 0.0000                 0.0000
 Atom AN      X      Y      Z        X      Y      Z        X      Y      Z
   1   6     0.03  -0.04   0.02     0.22  -0.30   0.17     0.20  -0.27   0.15
   2   6    -0.03   0.05  -0.03     0.18  -0.24   0.13    -0.14   0.19  -0.10
   3   7    -0.02   0.03  -0.02     0.03  -0.04   0.02     0.06  -0.08   0.04
   4   6     0.05  -0.07   0.04    -0.05   0.07  -0.04     0.13  -0.17   0.10
   5   1     0.02  -0.03   0.01     0.12  -0.16   0.09     0.07  -0.10   0.05
   6   6    -0.08   0.11  -0.06    -0.12   0.16  -0.09    -0.19   0.26  -0.14
   7   1    -0.02   0.02  -0.01     0.10  -0.14   0.08    -0.09   0.13  -0.07
   8   6    -0.06   0.09  -0.05    -0.22   0.30  -0.16     0.15  -0.20   0.11
   9   1    -0.04   0.06  -0.03    -0.06   0.09  -0.05    -0.13   0.17  -0.09
  10   6    -0.02   0.03  -0.02    -0.11   0.14  -0.08     0.27  -0.36   0.20
  11   1    -0.03   0.04  -0.02    -0.11   0.14  -0.08     0.05  -0.07   0.04
  12   8     0.18  -0.25   0.14    -0.24   0.32  -0.18    -0.20   0.27  -0.15
  13   8     0.32  -0.44   0.24     0.16  -0.22   0.12    -0.08   0.11  -0.06
  14   8    -0.37   0.50  -0.28     0.11  -0.15   0.08    -0.11   0.14  -0.08
                      4                      5                      6
                        a                      a                      a 
 Frequencies --   223.1422               362.2156               385.5625
 Red. masses --    14.7076                13.8995                10.1746
 Frc consts  --     0.0000                 0.0000                 0.0000
 IR Inten    --     0.7733                 0.3132                 1.7262
 Raman Activ --     0.0000                 0.0000                 0.0000
 Depolar     --     0.0000                 0.0000                 0.0000
 Atom AN      X      Y      Z        X      Y      Z        X      Y      Z
   1   6     0.07  -0.01  -0.10    -0.09  -0.05   0.04     0.22  -0.29   0.16
   2   6    -0.03  -0.08  -0.10    -0.29  -0.20   0.02    -0.19   0.26  -0.14
   3   7    -0.08  -0.06  -0.01     0.26   0.16  -0.06    -0.12   0.16  -0.09
   4   6     0.12   0.13   0.08    -0.02   0.08   0.17    -0.04   0.05  -0.03
   5   1     0.04  -0.00  -0.06     0.03  -0.01  -0.06     0.13  -0.18   0.10
   6   6    -0.14  -0.07   0.05    -0.22  -0.20  -0.07     0.01  -0.02   0.01
   7   1    -0.02  -0.04  -0.05    -0.09  -0.06  -0.00    -0.09   0.13  -0.07
   8   6    -0.07   0.06   0.21    -0.15  -0.10   0.03     0.18  -0.25   0.14
   9   1    -0.08  -0.05   0.02    -0.06  -0.05  -0.02     0.06  -0.08   0.05
  10   6    -0.01   0.11   0.22     0.16   0.12   0.01    -0.31   0.42  -0.23
  11   1    -0.04   0.02   0.09    -0.09  -0.02   0.07     0.16  -0.22   0.12
  12   8     0.41   0.34   0.07    -0.31  -0.10   0.23     0.03  -0.04   0.02
  13   8     0.19  -0.04  -0.33     0.45   0.19  -0.26     0.06  -0.07   0.04
  14   8    -0.44  -0.35  -0.04     0.21   0.10  -0.09     0.07  -0.10   0.06
                      7                      8                      9
                        a                      a                      a 
 Frequencies --   426.2767               480.9422               539.6027
 Red. masses --    14.8573                 9.4329                12.1571
 Frc consts  --     0.0000                 0.0000                 0.0000
 IR Inten    --     4.8845                 1.8082                 3.0516
 Raman Activ --     0.0000                 0.0000                 0.0000
 Depolar     --     0.0000                 0.0000                 0.0000
 Atom AN      X      Y      Z        X      Y      Z        X      Y      Z
   1   6    -0.22  -0.09   0.12     0.10  -0.13   0.07     0.23   0.28   0.19
   2   6    -0.15  -0.04   0.13    -0.18   0.24  -0.13    -0.10   0.07   0.27
   3   7    -0.01  -0.16  -0.27    -0.06   0.08  -0.04     0.02  -0.03  -0.08
   4   6    -0.13   0.03   0.22     0.22  -0.30   0.17     0.14  -0.03  -0.24
   5   1    -0.06  -0.03   0.03    -0.10   0.13  -0.07     0.04   0.08   0.09
   6   6    -0.02  -0.04  -0.04     0.27  -0.36   0.20    -0.26   0.05   0.44
   7   1    -0.03   0.01   0.07    -0.19   0.26  -0.14    -0.06  -0.05  -0.02
   8   6    -0.00  -0.03  -0.05    -0.21   0.28  -0.15    -0.33  -0.23   0.03
   9   1     0.02   0.01  -0.01     0.08  -0.11   0.06    -0.02   0.05   0.12
  10   6    -0.02  -0.04  -0.04     0.02  -0.02   0.01    -0.06  -0.07  -0.05
  11   1    -0.02  -0.01   0.01    -0.15   0.20  -0.11    -0.07  -0.06  -0.02
  12   8     0.36   0.39   0.22    -0.10   0.14  -0.08     0.15  -0.06  -0.31
  13   8    -0.26  -0.20  -0.02     0.03  -0.04   0.02     0.03  -0.04  -0.12
  14   8     0.40   0.15  -0.27     0.02  -0.02   0.01     0.15   0.06  -0.09
                     10                     11                     12
                        a                      a                      a 
 Frequencies --   579.7380               644.8347               658.7895
 Red. masses --    12.8280                12.6046                11.2777
 Frc consts  --     0.0000                 0.0000                 0.0000
 IR Inten    --     6.7651                13.9622                 5.3163
 Raman Activ --     0.0000                 0.0000                 0.0000
 Depolar     --     0.0000                 0.0000                 0.0000
 Atom AN      X      Y      Z        X      Y      Z        X      Y      Z
   1   6    -0.35  -0.20   0.11     0.12   0.19   0.19    -0.11   0.14  -0.08
   2   6    -0.06   0.05   0.16    -0.24  -0.07   0.20     0.17  -0.23   0.13
   3   7     0.03   0.13   0.19     0.11   0.09   0.01    -0.27   0.37  -0.20
   4   6    -0.26  -0.25  -0.11     0.14   0.14   0.07     0.27  -0.37   0.20
   5   1    -0.17  -0.06   0.12     0.08   0.05  -0.02    -0.17   0.23  -0.13
   6   6     0.08   0.05  -0.02     0.05  -0.09  -0.23    -0.13   0.18  -0.10
   7   1     0.00   0.06   0.11    -0.06  -0.02   0.05    -0.04   0.06  -0.03
   8   6     0.02  -0.10  -0.19    -0.03  -0.24  -0.40     0.15  -0.20   0.11
   9   1     0.07   0.05  -0.01     0.14   0.06  -0.07    -0.10   0.13  -0.07
  10   6    -0.12  -0.14  -0.09     0.20   0.01  -0.26    -0.09   0.12  -0.06
  11   1     0.04  -0.03  -0.10    -0.03  -0.07  -0.09    -0.02   0.03  -0.02
  12   8     0.31   0.13  -0.19     0.07   0.11   0.11    -0.06   0.09  -0.05
  13   8     0.37   0.20  -0.14    -0.10   0.09   0.30     0.09  -0.12   0.07
  14   8    -0.10   0.06   0.23    -0.32  -0.24  -0.01     0.09  -0.12   0.07
                     13                     14                     15
                        a                      a                      a 
 Frequencies --   737.8272               768.5094               801.8380
 Red. masses --    11.8846                 5.6251                13.7874
 Frc consts  --     0.0000                 0.0000                 0.0000
 IR Inten    --    83.7597                 2.1328                 6.3850
 Raman Activ --     0.0000                 0.0000                 0.0000
 Depolar     --     0.0000                 0.0000                 0.0000
 Atom AN      X      Y      Z        X      Y      Z        X      Y      Z
   1   6    -0.09   0.12  -0.07    -0.07   0.10  -0.05     0.23   0.17  -0.01
   2   6     0.03  -0.05   0.02    -0.09   0.12  -0.07     0.04  -0.00  -0.05
   3   7     0.32  -0.43   0.24    -0.20   0.27  -0.15    -0.33  -0.13   0.19
   4   6     0.27  -0.37   0.20     0.10  -0.13   0.07     0.06   0.11   0.13
   5   1     0.01  -0.01   0.00     0.15  -0.20   0.11     0.12   0.05  -0.07
   6   6    -0.08   0.11  -0.06    -0.10   0.14  -0.08     0.06  -0.03  -0.14
   7   1     0.03  -0.05   0.03     0.19  -0.25   0.14     0.00  -0.02  -0.05
   8   6    -0.02   0.03  -0.01    -0.11   0.14  -0.08    -0.04  -0.16  -0.24
   9   1     0.14  -0.19   0.11     0.32  -0.44   0.24     0.07   0.03  -0.04
  10   6    -0.23   0.31  -0.17     0.16  -0.22   0.12    -0.15  -0.14  -0.05
  11   1     0.09  -0.13   0.07     0.14  -0.19   0.10     0.03  -0.05  -0.13
  12   8    -0.08   0.11  -0.06    -0.03   0.04  -0.02    -0.06   0.08   0.22
  13   8    -0.09   0.12  -0.07     0.06  -0.08   0.05     0.04  -0.20  -0.41
  14   8    -0.10   0.13  -0.07     0.05  -0.06   0.04     0.09   0.28   0.39
                     16                     17                     18
                        a                      a                      a 
 Frequencies --   838.4489               847.6089               901.6142
 Red. masses --     4.5414                11.9813                 3.2123
 Frc consts  --     0.0000                 0.0000                 0.0000
 IR Inten    --     3.4620                 7.7468                 0.3824
 Raman Activ --     0.0000                 0.0000                 0.0000
 Depolar     --     0.0000                 0.0000                 0.0000
 Atom AN      X      Y      Z        X      Y      Z        X      Y      Z
   1   6    -0.19   0.25  -0.14    -0.01  -0.11  -0.20     0.01  -0.01   0.00
   2   6    -0.10   0.14  -0.07     0.42   0.16  -0.26     0.05  -0.07   0.04
   3   7    -0.03   0.03  -0.02     0.13   0.07  -0.05    -0.03   0.04  -0.02
   4   6     0.13  -0.18   0.10    -0.14  -0.00   0.18     0.03  -0.04   0.02
   5   1     0.33  -0.45   0.25    -0.03  -0.03  -0.01    -0.07   0.09  -0.05
   6   6     0.17  -0.22   0.12    -0.08   0.13   0.34     0.09  -0.12   0.07
   7   1     0.15  -0.20   0.11     0.09  -0.01  -0.14    -0.03   0.04  -0.02
   8   6     0.04  -0.05   0.03    -0.26  -0.31  -0.20    -0.21   0.29  -0.16
   9   1    -0.26   0.35  -0.19    -0.04   0.02   0.09    -0.20   0.28  -0.15
  10   6    -0.04   0.05  -0.03    -0.03  -0.09  -0.13     0.02  -0.03   0.02
  11   1    -0.07   0.09  -0.05    -0.01  -0.09  -0.14     0.43  -0.59   0.32
  12   8    -0.04   0.05  -0.03    -0.05   0.13   0.30    -0.00   0.00  -0.00
  13   8     0.01  -0.01   0.01     0.05   0.11   0.13     0.01  -0.01   0.01
  14   8     0.01  -0.01   0.01    -0.04  -0.09  -0.11     0.00  -0.01   0.00
                     19                     20                     21
                        a                      a                      a 
 Frequencies --   918.4841              1059.1133              1088.3306
 Red. masses --     3.1725                 9.5107                 8.0158
 Frc consts  --     0.0000                 0.0000                 0.0000
 IR Inten    --     0.0897                 3.8543                 0.3560
 Raman Activ --     0.0000                 0.0000                 0.0000
 Depolar     --     0.0000                 0.0000                 0.0000
 Atom AN      X      Y      Z        X      Y      Z        X      Y      Z
   1   6     0.12  -0.17   0.09    -0.30  -0.31  -0.16     0.21   0.12  -0.05
   2   6    -0.19   0.26  -0.15    -0.23  -0.15   0.03    -0.25  -0.18   0.02
   3   7     0.01  -0.02   0.01    -0.05  -0.02   0.03     0.03   0.00  -0.03
   4   6     0.03  -0.04   0.02     0.34   0.23  -0.04    -0.22  -0.13   0.06
   5   1    -0.27   0.36  -0.20     0.10  -0.09  -0.30     0.22   0.03  -0.23
   6   6     0.03  -0.04   0.02     0.09   0.27   0.36     0.03   0.09   0.12
   7   1     0.40  -0.54   0.30    -0.05   0.01   0.08    -0.13  -0.22  -0.22
   8   6     0.04  -0.05   0.03     0.02  -0.00  -0.03     0.22   0.18   0.03
   9   1    -0.08   0.11  -0.06     0.16   0.18   0.10     0.00   0.02   0.04
  10   6    -0.04   0.05  -0.03     0.18   0.07  -0.10    -0.33  -0.23   0.02
  11   1    -0.02   0.03  -0.01     0.14  -0.00  -0.19     0.29   0.04  -0.31
  12   8    -0.00   0.00  -0.00    -0.04  -0.05  -0.03     0.02   0.05   0.06
  13   8    -0.00   0.00  -0.00    -0.07  -0.09  -0.07     0.13   0.17   0.14
  14   8    -0.00   0.00  -0.00    -0.02   0.04   0.10     0.03  -0.06  -0.16
                     22                     23                     24
                        a                      a                      a 
 Frequencies --  1161.7151              1184.2275              1214.0733
 Red. masses --     4.0944                 4.1846                 6.3844
 Frc consts  --     0.0000                 0.0000                 0.0000
 IR Inten    --     1.2199                 6.8013                 6.6311
 Raman Activ --     0.0000                 0.0000                 0.0000
 Depolar     --     0.0000                 0.0000                 0.0000
 Atom AN      X      Y      Z        X      Y      Z        X      Y      Z
   1   6     0.05   0.00  -0.06     0.07  -0.02  -0.13     0.07   0.04  -0.02
   2   6    -0.06  -0.06  -0.03     0.04   0.06   0.06     0.02   0.08   0.11
   3   7     0.02   0.02   0.00    -0.03  -0.02   0.00     0.10   0.06  -0.03
   4   6    -0.24  -0.16   0.02    -0.08  -0.05   0.02    -0.34  -0.22   0.06
   5   1    -0.11   0.00   0.15     0.24  -0.01  -0.34     0.35   0.01  -0.45
   6   6     0.02   0.07   0.11     0.08   0.00  -0.10    -0.06   0.03   0.13
   7   1    -0.15  -0.37  -0.47     0.07   0.18   0.22     0.03   0.10   0.13
   8   6     0.10   0.05  -0.05    -0.16  -0.10   0.02     0.11   0.05  -0.05
   9   1     0.37   0.28   0.02     0.47   0.32  -0.05    -0.29  -0.19   0.05
  10   6     0.25   0.16  -0.05    -0.25  -0.05   0.25     0.25   0.05  -0.24
  11   1    -0.17   0.02   0.27    -0.25  -0.03   0.28    -0.13   0.02   0.22
  12   8     0.02   0.01   0.00     0.00  -0.02  -0.04     0.06   0.02  -0.05
  13   8    -0.08  -0.10  -0.07     0.08   0.10   0.07    -0.10  -0.12  -0.09
  14   8    -0.04   0.04   0.12     0.06  -0.04  -0.15    -0.08   0.04   0.19
                     25                     26                     27
                        a                      a                      a 
 Frequencies --  1299.2409              1347.1579              1372.9784
 Red. masses --     9.2640                12.5358                 7.7011
 Frc consts  --     0.0000                 0.0000                 0.0000
 IR Inten    --   398.6755               794.6357                 6.6940
 Raman Activ --     0.0000                 0.0000                 0.0000
 Depolar     --     0.0000                 0.0000                 0.0000
 Atom AN      X      Y      Z        X      Y      Z        X      Y      Z
   1   6    -0.13  -0.01   0.14    -0.09  -0.03   0.05    -0.29  -0.07   0.25
   2   6    -0.01  -0.04  -0.05     0.00   0.01   0.01     0.19   0.24   0.17
   3   7    -0.32  -0.17   0.12     0.54   0.31  -0.16    -0.05  -0.03   0.02
   4   6     0.19   0.11  -0.07     0.20   0.16   0.03     0.06   0.07   0.05
   5   1     0.03  -0.00  -0.04    -0.01  -0.01  -0.00     0.19  -0.02  -0.29
   6   6     0.20   0.17   0.03     0.08   0.05  -0.02     0.11  -0.02  -0.17
   7   1    -0.04  -0.11  -0.15    -0.03  -0.08  -0.10    -0.08  -0.28  -0.40
   8   6     0.01   0.05   0.07     0.05   0.04  -0.00    -0.09  -0.15  -0.15
   9   1    -0.17  -0.12   0.02    -0.04  -0.03  -0.00    -0.13  -0.13  -0.05
  10   6    -0.08  -0.27  -0.39    -0.42  -0.32  -0.01    -0.01   0.19   0.35
  11   1    -0.28   0.02   0.41    -0.13   0.01   0.20     0.01  -0.04  -0.10
  12   8    -0.01   0.04   0.09    -0.02  -0.01   0.01     0.03  -0.08  -0.18
  13   8     0.20   0.21   0.11    -0.17  -0.20  -0.13    -0.00   0.00   0.01
  14   8     0.06  -0.04  -0.15    -0.11   0.03   0.20     0.04  -0.01  -0.07
                     28                     29                     30
                        a                      a                      a 
 Frequencies --  1451.7192              1510.8161              1536.8165
 Red. masses --     9.6989                12.5749                13.6924
 Frc consts  --     0.0000                 0.0000                 0.0000
 IR Inten    --    41.7260                69.3100                93.3822
 Raman Activ --     0.0000                 0.0000                 0.0000
 Depolar     --     0.0000                 0.0000                 0.0000
 Atom AN      X      Y      Z        X      Y      Z        X      Y      Z
   1   6    -0.16   0.06   0.34     0.03   0.12   0.17     0.03   0.08   0.10
   2   6     0.21   0.06  -0.17    -0.13  -0.25  -0.28    -0.09  -0.18  -0.20
   3   7     0.05   0.01  -0.04     0.09   0.25   0.33     0.02  -0.30  -0.57
   4   6    -0.02  -0.01  -0.00    -0.14  -0.14  -0.07    -0.10   0.04   0.21
   5   1     0.14   0.02  -0.14     0.02   0.03   0.02    -0.01   0.02   0.05
   6   6    -0.13  -0.18  -0.16     0.44   0.30  -0.06     0.27   0.20  -0.01
   7   1     0.05  -0.01  -0.09     0.00   0.03   0.05     0.01   0.03   0.04
   8   6    -0.22   0.11   0.49    -0.29  -0.14   0.14    -0.18  -0.10   0.06
   9   1     0.26   0.17  -0.06    -0.08  -0.07  -0.01    -0.05  -0.04  -0.00
  10   6     0.11  -0.13  -0.38     0.07   0.10   0.09     0.01   0.06   0.09
  11   1     0.17   0.02  -0.19    -0.01  -0.04  -0.07    -0.04  -0.03  -0.01
  12   8     0.03   0.02  -0.01     0.02   0.03   0.03     0.04  -0.07  -0.19
  13   8    -0.01  -0.02  -0.02    -0.13  -0.16  -0.12     0.12   0.16   0.14
  14   8    -0.04   0.01   0.09     0.06  -0.07  -0.20    -0.11   0.11   0.35
                     31                     32                     33
                        a                      a                      a 
 Frequencies --  1606.2887              1640.4104              2999.2007
 Red. masses --    12.1273                12.5571                 1.7779
 Frc consts  --     0.0000                 0.0000                 0.0000
 IR Inten    --    95.9445               645.0619               109.6659
 Raman Activ --     0.0000                 0.0000                 0.0000
 Depolar     --     0.0000                 0.0000                 0.0000
 Atom AN      X      Y      Z        X      Y      Z        X      Y      Z
   1   6     0.11  -0.11  -0.36    -0.13   0.08   0.32    -0.02  -0.02  -0.02
   2   6    -0.06   0.19   0.42     0.04  -0.11  -0.25     0.21   0.08  -0.13
   3   7     0.05  -0.05  -0.16     0.03  -0.08  -0.19    -0.00  -0.00   0.00
   4   6     0.04  -0.17  -0.35     0.11  -0.24  -0.59    -0.00  -0.00   0.00
   5   1    -0.05  -0.04  -0.01     0.09   0.02  -0.08     0.09   0.11   0.07
   6   6     0.24   0.07  -0.20    -0.11  -0.03   0.10    -0.00   0.01   0.03
   7   1    -0.07  -0.09  -0.08     0.03   0.04   0.03    -0.76  -0.31   0.46
   8   6    -0.28  -0.05   0.28     0.15   0.01  -0.18     0.00   0.00   0.01
   9   1    -0.06  -0.07  -0.05     0.03   0.03   0.02     0.03  -0.05  -0.13
  10   6     0.05   0.00  -0.06    -0.03   0.10   0.21     0.00  -0.00  -0.00
  11   1     0.03  -0.02  -0.08    -0.02   0.01   0.04    -0.01  -0.01  -0.01
  12   8    -0.07   0.12   0.31    -0.07   0.15   0.37     0.00  -0.00  -0.00
  13   8     0.01   0.02   0.02     0.01   0.03   0.04     0.00   0.00   0.00
  14   8    -0.04   0.03   0.11    -0.03   0.04   0.10     0.00  -0.00  -0.00
                     34                     35                     36
                        a                      a                      a 
 Frequencies --  3048.1044              3055.6259              3071.0139
 Red. masses --     1.7949                 1.8350                 1.8582
 Frc consts  --     0.0000                 0.0000                 0.0000
 IR Inten    --    96.7381                83.7135                44.5727
 Raman Activ --     0.0000                 0.0000                 0.0000
 Depolar     --     0.0000                 0.0000                 0.0000
 Atom AN      X      Y      Z        X      Y      Z        X      Y      Z
   1   6     0.07   0.09   0.06    -0.13  -0.16  -0.11    -0.01  -0.02  -0.01
   2   6    -0.01  -0.00   0.01    -0.05  -0.02   0.03    -0.02  -0.01   0.01
   3   7     0.00   0.00   0.00     0.00  -0.00  -0.00     0.00   0.00   0.00
   4   6     0.00   0.00   0.00    -0.00  -0.01  -0.01    -0.00  -0.00  -0.00
   5   1    -0.27  -0.31  -0.20     0.49   0.56   0.36     0.05   0.06   0.04
   6   6    -0.05   0.08   0.21    -0.02   0.04   0.10    -0.02   0.03   0.09
   7   1     0.03   0.01  -0.02     0.15   0.06  -0.09     0.06   0.02  -0.03
   8   6    -0.04  -0.04  -0.03    -0.04  -0.04  -0.02     0.16   0.17   0.10
   9   1     0.18  -0.28  -0.74     0.08  -0.13  -0.35     0.07  -0.11  -0.30
  10   6    -0.00  -0.00  -0.00    -0.00  -0.00   0.00     0.01   0.00   0.00
  11   1     0.16   0.18   0.11     0.15   0.16   0.10    -0.54  -0.61  -0.37
  12   8    -0.00  -0.00  -0.00    -0.00   0.00   0.00     0.00   0.00   0.00
  13   8    -0.00   0.00   0.00    -0.00  -0.00   0.00    -0.00  -0.00  -0.00
  14   8    -0.00  -0.00   0.00    -0.00   0.00   0.00    -0.00  -0.00   0.00
