14
 energy: -30.144533303751 gnorm: 0.000470996502 xtb: 6.7.1 (edcfbbe)
C           -4.07782929030643       -1.94884289393061        1.93185651433126
C           -3.79115430247386       -2.42123041890351        0.69259479110538
N           -7.20388791804191       -3.88245211477207        2.61664452186992
C           -5.22902269030324       -2.37072644129543        2.70951922811879
H           -3.43875951385380       -1.21455540855094        2.40566975028077
C           -4.62071846863009       -3.37513053675979        0.07622053671368
H           -2.91329297900460       -2.06473620205202        0.16255188726738
C           -5.72363590141818       -3.81949291912741        0.74853165181900
H           -4.38514824336250       -3.74657401697791       -0.91183049013039
C           -6.05594390830533       -3.35693745409952        2.03106811355072
H           -6.38239528871073       -4.55265442023702        0.30311997881715
O           -5.43644194107812       -1.90216363224200        3.83571259101747
O           -7.86222959348009       -4.72375091983793        1.97512329621943
O           -7.56448475099510       -3.53080062886554        3.73648622088724
