14
 energy: -30.128273191454 gnorm: 0.148714732591 xtb: 6.7.1 (edcfbbe)
C           -4.09894300000000       -1.94712900000000        1.96325800000000
C           -3.77763000000000       -2.41464000000000        0.68644000000000
N           -7.24502400000000       -3.87744600000000        2.68099700000000
C           -5.23324300000000       -2.41363700000000        2.63751900000000
H           -3.46440700000000       -1.20951400000000        2.44915100000000
C           -4.59494000000000       -3.35895200000000        0.07103300000000
H           -2.89179300000000       -2.04085600000000        0.17700700000000
C           -5.73036500000000       -3.83364900000000        0.73197300000000
H           -4.34948800000000       -3.72692500000000       -0.92395900000000
C           -6.05040200000000       -3.35813500000000        2.02157100000000
H           -6.35486000000000       -4.57234600000000        0.23067400000000
O           -5.43395900000000       -1.96073300000000        3.72639200000000
O           -7.90913500000000       -4.71657800000000        2.05089300000000
O           -7.55060900000000       -3.47993800000000        3.80998400000000
14
 energy: -30.142148050313 gnorm: 0.050335191976 xtb: 6.7.1 (edcfbbe)
C           -4.08334492606875       -1.94739169131879        1.94189472927273
C           -3.78327372641684       -2.41732820918695        0.68913040759195
N           -7.22723656543816       -3.88182769261899        2.64923952481230
C           -5.23237614893712       -2.39311405802213        2.67351857501456
H           -3.44884848180426       -1.21381415773315        2.42053011909153
C           -4.60982783714168       -3.36545016957646        0.07920418816187
H           -2.90166053227782       -2.05168991989209        0.17060363265037
C           -5.73052977932666       -3.83055344897287        0.73779813438822
H           -4.36987662617941       -3.73524538226767       -0.91172185764353
C           -6.05562300621410       -3.36367989919209        2.01852163838432
H           -6.36102735141464       -4.56508035056823        0.25208883553409
O           -5.44360767118336       -1.92588474557141        3.80241398353331
O           -7.88949687449672       -4.71939376446955        2.01949846667608
O           -7.54806847310047       -3.50002451060961        3.77021262253220
14
 energy: -30.144220383493 gnorm: 0.021154578149 xtb: 6.7.1 (edcfbbe)
C           -4.07757550398422       -1.94788993471622        1.93326605779916
C           -3.79027980321266       -2.42060416959558        0.69258017075328
N           -7.21060826152446       -3.88287074757940        2.62509148553821
C           -5.22934847391389       -2.37755904206110        2.69762979510742
H           -3.44104999496604       -1.21476425520388        2.40836575955378
C           -4.62050281929984       -3.37186200153157        0.08188903799863
H           -2.91176547263794       -2.06175610050589        0.16590827853595
C           -5.72873464089033       -3.82371060825659        0.74778427189180
H           -4.38542665624700       -3.74421150243292       -0.90713327876664
C           -6.05542389482405       -3.35959810167549        2.02564786289967
H           -6.37328544484399       -4.55688905566387        0.28333615328901
O           -5.43906848355777       -1.90673931387552        3.83100326370437
O           -7.86562528389280       -4.72101004351752        1.98460029409681
O           -7.55610326620500       -3.52101312338447        3.74296384759854
14
 energy: -30.144484108985 gnorm: 0.009216486861 xtb: 6.7.1 (edcfbbe)
C           -4.07669147960283       -1.94813171237915        1.93164571151469
C           -3.79156618215700       -2.42158542712284        0.69252795804315
N           -7.20529540772551       -3.88299782582026        2.61772424723393
C           -5.22860186329892       -2.37156252162152        2.70748756319520
H           -3.43866064019290       -1.21435655940783        2.40590641243139
C           -4.62185838055590       -3.37457869915840        0.07878622869764
H           -2.91389878123867       -2.06528794819700        0.16237306994011
C           -5.72570914325797       -3.82024043740141        0.75001526723790
H           -4.38760871434093       -3.74717466364261       -0.90957686202955
C           -6.05567180510298       -3.35724035952002        2.03024307153198
H           -6.37951577030197       -4.55339081077478        0.29801044231415
O           -5.43675536416855       -1.90132531311714        3.83770557375564
O           -7.85989988784398       -4.72274719283547        1.97380298964956
O           -7.56306458021190       -3.52985852900156        3.73628132648420
14
 energy: -30.144529713153 gnorm: 0.002231042913 xtb: 6.7.1 (edcfbbe)
C           -4.07728846840955       -1.94859999240352        1.93159354983181
C           -3.79131620724301       -2.42144103464323        0.69244957581648
N           -7.20404527977800       -3.88281964475486        2.61644019818323
C           -5.22876208408290       -2.37037630045139        2.70985214366964
H           -3.43844074798577       -1.21440245656616        2.40552171351869
C           -4.62105592441108       -3.37520101192657        0.07658173738674
H           -2.91362040282513       -2.06532226642829        0.16192900483842
C           -5.72384920924568       -3.81927120026456        0.74928274526503
H           -4.38613038548370       -3.74713243917446       -0.91148023260449
C           -6.05593144522479       -3.35680424475961        2.03139941886832
H           -6.38188211172404       -4.55244974862064        0.30289216948361
O           -5.43622466198402       -1.90135864247886        3.83694359151527
O           -7.86113014494888       -4.72370422717913        1.97367147106969
O           -7.56512092665345       -3.53159479034872        3.73585591315757
14
 energy: -30.144533303738 gnorm: 0.000470391908 xtb: 6.7.1 (edcfbbe)
C           -4.07782582955953       -1.94886761706601        1.93183887863290
C           -3.79114404247787       -2.42125147808699        0.69257733164043
N           -7.20387672323999       -3.88249440104421        2.61661259938525
C           -5.22901973511142       -2.37075854932941        2.70949683766297
H           -3.43876155176003       -1.21457761249999        2.40565562691900
C           -4.62070106245630       -3.37515486373549        0.07619851666829
H           -2.91328273542657       -2.06475173967575        0.16253811432186
C           -5.72361851535507       -3.81952419435606        0.74850500629975
H           -4.38512544337114       -3.74659538603222       -0.91185233615528
C           -6.05593342106720       -3.35697270774224        2.03104111534803
H           -6.38237250902989       -4.55268836731655        0.30308975419640
O           -5.43644537042776       -1.90219879190474        3.83569029430922
O           -7.86221175430337       -4.72379553349643        1.97508760735963
O           -7.56447930641386       -3.53084675771392        3.73645365341154
