 Entering Gaussian System
 *********************************************
 Gaussian 98:
 frequency output generated by the xtb code
 *********************************************
                         Standard orientation:
 --------------------------------------------------------------------
  Center     Atomic     Atomic              Coordinates (Angstroms)
  Number     Number      Type              X           Y           Z
 --------------------------------------------------------------------
    1          6             0       -0.277920   -0.913091    0.908049
    2          6             0       -0.394902   -0.776631   -0.730069
    3         17             0       -1.851818   -1.250496    1.636566
    4          1             0        0.380964   -1.745638    1.165819
    5         17             0        0.404263    0.541168    1.647654
    6          8             0       -1.075216    0.147728   -1.133171
    7          8             0        0.247321   -1.661927   -1.279057
 --------------------------------------------------------------------
     1 basis functions        1 primitive gaussians
     1 alpha electrons        1 beta electrons
 
 Harmonic frequencies (cm**-1), IR intensities (km*mol⁻¹),
 Raman scattering activities (A**4/amu), Raman depolarization ratios,
 reduced masses (AMU), force constants (mDyne/A) and normal coordinates:
                      1                      2                      3
                        a                      a                      a 
 Frequencies --   -15.4090               125.9754               169.1798
 Red. masses --    19.8283                27.6203                21.4924
 Frc consts  --     0.0000                 0.0000                 0.0000
 IR Inten    --     0.6210                 5.7260                 0.3777
 Raman Activ --     0.0000                 0.0000                 0.0000
 Depolar     --     0.0000                 0.0000                 0.0000
 Atom AN      X      Y      Z        X      Y      Z        X      Y      Z
   1   6    -0.08  -0.06   0.00    -0.20  -0.16   0.00     0.13  -0.16   0.18
   2   6    -0.01  -0.01   0.00     0.09   0.07   0.00     0.05  -0.07   0.30
   3  17    -0.19   0.26   0.05    -0.17  -0.12   0.51    -0.11  -0.01  -0.40
   4   1    -0.05  -0.04   0.00    -0.05  -0.04   0.00     0.03  -0.03   0.12
   5  17     0.20  -0.24  -0.05    -0.16  -0.13  -0.52     0.04   0.11  -0.38
   6   8    -0.47  -0.35   0.01     0.37   0.28   0.02    -0.03   0.02   0.69
   7   8     0.53   0.39  -0.01     0.23   0.18  -0.02    -0.04   0.04   0.03
                      4                      5                      6
                        a                      a                      a 
 Frequencies --   245.0072               373.9844               624.3240
 Red. masses --    27.8082                23.8926                16.5433
 Frc consts  --     0.0000                 0.0000                 0.0000
 IR Inten    --     0.4867                 1.2117                 5.5620
 Raman Activ --     0.0000                 0.0000                 0.0000
 Depolar     --     0.0000                 0.0000                 0.0000
 Atom AN      X      Y      Z        X      Y      Z        X      Y      Z
   1   6     0.18  -0.22  -0.06     0.03  -0.05   0.19    -0.59  -0.35  -0.12
   2   6     0.10  -0.14  -0.10     0.12  -0.16  -0.24    -0.39  -0.32  -0.00
   3  17     0.30   0.47   0.11    -0.40  -0.16   0.17     0.27   0.05  -0.12
   4   1     0.05  -0.05   0.03    -0.01   0.01   0.15    -0.10  -0.05  -0.05
   5  17    -0.52  -0.18   0.12     0.25   0.37   0.19     0.12   0.25   0.15
   6   8     0.05  -0.07   0.21     0.09  -0.12   0.07     0.13   0.10   0.09
   7   8     0.01  -0.04  -0.42     0.01  -0.02  -0.60     0.16   0.04  -0.00
                      7                      8                      9
                        a                      a                      a 
 Frequencies --   641.8458               704.3577               750.9285
 Red. masses --    13.3386                13.4578                13.5713
 Frc consts  --     0.0000                 0.0000                 0.0000
 IR Inten    --     3.1914               294.3742                16.7088
 Raman Activ --     0.0000                 0.0000                 0.0000
 Depolar     --     0.0000                 0.0000                 0.0000
 Atom AN      X      Y      Z        X      Y      Z        X      Y      Z
   1   6     0.14  -0.39   0.62    -0.14   0.19  -0.21    -0.04  -0.61  -0.31
   2   6    -0.17   0.06   0.10     0.08  -0.08   0.69     0.42   0.38   0.09
   3  17     0.11   0.05  -0.10     0.01  -0.01   0.01    -0.07   0.01   0.05
   4   1     0.04  -0.10   0.21    -0.03   0.04  -0.10    -0.01  -0.18  -0.13
   5  17    -0.03  -0.00  -0.06     0.01  -0.02   0.01     0.06   0.24   0.08
   6   8     0.06  -0.04  -0.45     0.24  -0.34  -0.14    -0.16  -0.07  -0.06
   7   8    -0.17   0.28   0.00    -0.21   0.27  -0.28    -0.15  -0.08   0.10
                     10                     11                     12
                        a                      a                      a 
 Frequencies --   753.3535              1119.0776              1183.8396
 Red. masses --    13.8179                 2.9377                 1.9594
 Frc consts  --     0.0000                 0.0000                 0.0000
 IR Inten    --    21.2042                 0.0447                60.7641
 Raman Activ --     0.0000                 0.0000                 0.0000
 Depolar     --     0.0000                 0.0000                 0.0000
 Atom AN      X      Y      Z        X      Y      Z        X      Y      Z
   1   6    -0.60   0.21   0.35    -0.04   0.05   0.38     0.18   0.15   0.00
   2   6     0.44   0.24  -0.11     0.02  -0.01  -0.03    -0.03  -0.02  -0.00
   3  17     0.26  -0.00  -0.08    -0.03   0.02  -0.02     0.06  -0.04   0.00
   4   1    -0.17   0.07   0.16     0.14  -0.17  -0.89    -0.76  -0.60  -0.01
   5  17    -0.01  -0.12  -0.06    -0.02   0.04  -0.02    -0.03   0.06  -0.00
   6   8    -0.10  -0.11   0.07     0.02  -0.03   0.05     0.00   0.00   0.00
   7   8    -0.10  -0.12  -0.11     0.03  -0.05  -0.06     0.01   0.01  -0.00
                     13                     14                     15
                        a                      a                      a 
 Frequencies --  1291.4714              1897.9597              2944.6977
 Red. masses --    15.0004                13.1944                 1.7889
 Frc consts  --     0.0000                 0.0000                 0.0000
 IR Inten    --   312.2709               521.5687                 8.8319
 Raman Activ --     0.0000                 0.0000                 0.0000
 Depolar     --     0.0000                 0.0000                 0.0000
 Atom AN      X      Y      Z        X      Y      Z        X      Y      Z
   1   6    -0.01   0.01  -0.09    -0.01   0.01  -0.01     0.16  -0.20   0.07
   2   6    -0.01   0.01  -0.48     0.49  -0.67  -0.04     0.01  -0.01  -0.00
   3  17    -0.00   0.00  -0.00    -0.00  -0.00   0.00     0.00  -0.00  -0.00
   4   1     0.00  -0.00  -0.04     0.01  -0.01  -0.03    -0.58   0.73  -0.22
   5  17    -0.00   0.00  -0.00     0.00   0.00   0.00    -0.00  -0.00  -0.00
   6   8     0.34  -0.46   0.22    -0.22   0.31  -0.13    -0.00   0.00   0.00
   7   8    -0.32   0.44   0.30    -0.20   0.27   0.17    -0.00   0.00   0.00
