      -----------------------------------------------------------      
     |                   =====================                   |     
     |                           x T B                           |     
     |                   =====================                   |     
     |                         S. Grimme                         |     
     |          Mulliken Center for Theoretical Chemistry        |     
     |                    University of Bonn                     |     
      -----------------------------------------------------------      

   * xtb version 6.7.1 (edcfbbe) compiled by 'albert@albert-system' on 2024-07-22

   xtb is free software: you can redistribute it and/or modify it under
   the terms of the GNU Lesser General Public License as published by
   the Free Software Foundation, either version 3 of the License, or
   (at your option) any later version.
   
   xtb is distributed in the hope that it will be useful,
   but WITHOUT ANY WARRANTY; without even the implied warranty of
   MERCHANTABILITY or FITNESS FOR A PARTICULAR PURPOSE.  See the
   GNU Lesser General Public License for more details.
   
   Cite this work as:
   * C. Bannwarth, E. Caldeweyher, S. Ehlert, A. Hansen, P. Pracht,
     J. Seibert, S. Spicher, S. Grimme, WIREs Comput. Mol. Sci., 2020, 11,
     e01493. DOI: 10.1002/wcms.1493
   
   for GFN2-xTB:
   * C. Bannwarth, S. Ehlert and S. Grimme., J. Chem. Theory Comput., 2019,
     15, 1652-1671. DOI: 10.1021/acs.jctc.8b01176
   for GFN1-xTB:
   * S. Grimme, C. Bannwarth, P. Shushkov, J. Chem. Theory Comput., 2017,
     13, 1989-2009. DOI: 10.1021/acs.jctc.7b00118
   for GFN0-xTB:
   * P. Pracht, E. Caldeweyher, S. Ehlert, S. Grimme, ChemRxiv, 2019, preprint.
     DOI: 10.26434/chemrxiv.8326202.v1
   for GFN-FF:
   * S. Spicher and S. Grimme, Angew. Chem. Int. Ed., 2020, 59, 15665-15673.
     DOI: 10.1002/anie.202004239
   
   for ALPB and GBSA implicit solvation:
   * S. Ehlert, M. Stahn, S. Spicher, S. Grimme, J. Chem. Theory Comput.,
     2021, 17, 4250-4261. DOI: 10.1021/acs.jctc.1c00471
   
   for ddCOSMO and CPCM-X implicit solvation:
   * M. Stahn, S. Ehlert, S. Grimme, J. Phys. Chem. A,
     2023, XX, XXXX-XXXX. DOI: 10.1021/acs.jpca.3c04382
   
   for DFT-D4:
   * E. Caldeweyher, C. Bannwarth and S. Grimme, J. Chem. Phys., 2017,
     147, 034112. DOI: 10.1063/1.4993215
   * E. Caldeweyher, S. Ehlert, A. Hansen, H. Neugebauer, S. Spicher,
     C. Bannwarth and S. Grimme, J. Chem. Phys., 2019, 150, 154122.
     DOI: 10.1063/1.5090222
   * E. Caldeweyher, J.-M. Mewes, S. Ehlert and S. Grimme, Phys. Chem. Chem. Phys.
     2020, 22, 8499-8512. DOI: 10.1039/D0CP00502A
   
   for sTDA-xTB:
   * S. Grimme and C. Bannwarth, J. Chem. Phys., 2016, 145, 054103.
     DOI: 10.1063/1.4959605
   
   in the mass-spec context:
   * V. Asgeirsson, C. Bauer and S. Grimme, Chem. Sci., 2017, 8, 4879.
     DOI: 10.1039/c7sc00601b
   * J. Koopman and S. Grimme, ACS Omega 2019, 4, 12, 15120-15133.
     DOI: 10.1021/acsomega.9b02011
   
   for metadynamics refer to:
   * S. Grimme, J. Chem. Theory Comput., 2019, 155, 2847-2862
     DOI: 10.1021/acs.jctc.9b00143
   
   for SPH calculations refer to:
   * S. Spicher and S. Grimme, J. Chem. Theory Comput., 2021, 17, 1701-1714
     DOI: 10.1021/acs.jctc.0c01306
   
   for ONIOM refer to:
   * C. Plett, A. Katbashev, S. Ehlert, S. Grimme, M. Bursch,
     Phys. Chem. Chem. Phys., 2023, 25, 17860-17868. DOI: 10.1039/D3CP02178E
   
   for DIPRO refer to:
   * J. Kohn, N. Gildemeister, S. Grimme, D. Fazzi, A. Hansen,
     J. Chem. Phys., 2023, just accepted.
   
   for PTB refer to:
   * S. Grimme, M. Mueller, A. Hansen, J. Chem. Phys., 2023, 158, 124111.
     DOI: 10.1063/5.0137838
   
   with help from (in alphabetical order)
   P. Atkinson, C. Bannwarth, F. Bohle, G. Brandenburg, E. Caldeweyher
   M. Checinski, S. Dohm, S. Ehlert, S. Ehrlich, I. Gerasimov, C. Hölzer
   A. Katbashev, J. Kohn, J. Koopman, C. Lavigne, S. Lehtola, F. März, M. Müller,
   F. Musil, H. Neugebauer, J. Pisarek, C. Plett, P. Pracht, F. Pultar,
   J. Seibert, P. Shushkov, S. Spicher, M. Stahn, M. Steiner, T. Strunk,
   J. Stückrath, T. Rose, and J. Unsleber
   
 * started run on 2025/10/18 at 21:14:34.911     
   ID    Z sym.   atoms
    1    6 C      1, 2
    2   17 Cl     3, 5
    3    1 H      4
    4    8 O      6, 7

           -------------------------------------------------
          |                Calculation Setup                |
           -------------------------------------------------

          program call               : xtb xyz.xyz --charge -1 --ohess
          hostname                   : m003
          coordinate file            : xyz.xyz
          omp threads                :                     2


molecular fragmentation (1/2 indicates fragments):
1211122
# atoms in fragment 1/2:     4     3
 fragment masses (1/2) :       83.92       44.01
CMA distance (Bohr)    :   6.321
constraining FC (au)   :  0.0500

           -------------------------------------------------
          |                 G F N 2 - x T B                 |
           -------------------------------------------------

        Reference                      10.1021/acs.jctc.8b01176
      * Hamiltonian:
        H0-scaling (s, p, d)           1.850000    2.230000    2.230000
        zeta-weighting                 0.500000
      * Dispersion:
        s8                             2.700000
        a1                             0.520000
        a2                             5.000000
        s9                             5.000000
      * Repulsion:
        kExp                           1.500000    1.000000
        rExp                           1.000000
      * Coulomb:
        alpha                          2.000000
        third order                    shell-resolved
        anisotropic                    true
        a3                             3.000000
        a5                             4.000000
        cn-shift                       1.200000
        cn-exp                         4.000000
        max-rad                        5.000000


          ...................................................
          :                      SETUP                      :
          :.................................................:
          :  # basis functions                  37          :
          :  # atomic orbitals                  35          :
          :  # shells                           15          :
          :  # electrons                        36          :
          :  max. iterations                   250          :
          :  Hamiltonian                  GFN2-xTB          :
          :  restarted?                      false          :
          :  GBSA solvation                  false          :
          :  PC potential                    false          :
          :  electronic temp.          300.0000000     K    :
          :  accuracy                    1.0000000          :
          :  -> integral cutoff          0.2500000E+02      :
          :  -> integral neglect         0.1000000E-07      :
          :  -> SCF convergence          0.1000000E-05 Eh   :
          :  -> wf. convergence          0.1000000E-03 e    :
          :  Broyden damping             0.4000000          :
          :  net charge                         -1          :
          :  unpaired electrons                  0          :
          ...................................................

 iter      E             dE          RMSdq      gap      omega  full diag
   1    -22.2897991 -0.222898E+02  0.713E+00    3.64       0.0  T
   2    -22.3468676 -0.570686E-01  0.387E+00    2.02       1.0  T
   3    -22.3529396 -0.607192E-02  0.198E+00    1.10       1.0  T
   4    -22.2549719  0.979677E-01  0.398E+00    0.23       1.0  T
   5    -21.3327434  0.922229E+00  0.112E+01    0.00       1.0  T
   6    -21.3342692 -0.152586E-02  0.112E+01    0.00       1.0  T
   7    -22.2958344 -0.961565E+00  0.300E+00    0.25       1.0  T
   8    -22.3552388 -0.594044E-01  0.919E-01    0.55       1.0  T
   9    -22.3556484 -0.409621E-03  0.870E-01    0.57       1.0  T
  10    -22.3548909  0.757497E-03  0.838E-01    1.18       1.0  T
  11    -22.3549609 -0.699723E-04  0.757E-01    1.17       1.0  T
  12    -22.3548933  0.676560E-04  0.640E-01    1.18       1.0  T
  13    -22.3548878  0.546243E-05  0.607E-01    1.19       1.0  T
  14    -22.3550632 -0.175409E-03  0.567E-01    1.16       1.0  T
  15    -22.3552342 -0.170961E-03  0.534E-01    1.13       1.0  T
  16    -22.3554115 -0.177290E-03  0.502E-01    1.11       1.0  T
  17    -22.3556494 -0.237913E-03  0.456E-01    1.07       1.0  T
  18    -22.3562660 -0.616679E-03  0.314E-01    0.96       1.0  T
  19    -22.3566418 -0.375761E-03  0.190E-01    0.88       1.0  T
  20    -22.3567545 -0.112654E-03  0.131E-01    0.84       1.0  T
  21    -22.3568206 -0.661628E-04  0.784E-02    0.81       1.0  T
  22    -22.3568509 -0.302852E-04  0.354E-02    0.79       1.1  T
  23    -22.3568562 -0.533319E-05  0.193E-02    0.78       2.0  T
  24    -22.3568580 -0.172071E-05  0.949E-03    0.78       4.0  T
  25    -22.3568584 -0.432035E-06  0.395E-03    0.77       9.6  T
  26    -22.3568585 -0.733742E-07  0.899E-04    0.77      42.0  T
  27    -22.3568585 -0.330364E-08  0.799E-05    0.77     472.8  T

   *** convergence criteria satisfied after 27 iterations ***

         #    Occupation            Energy/Eh            Energy/eV
      -------------------------------------------------------------
         1        2.0000           -0.8779039             -23.8890
       ...           ...                  ...                  ...
        12        2.0000           -0.3073294              -8.3629
        13        2.0000           -0.3016259              -8.2077
        14        2.0000           -0.2683687              -7.3027
        15        2.0000           -0.2424853              -6.5984
        16        2.0000           -0.2347036              -6.3866
        17        2.0000           -0.2323602              -6.3228
        18        2.0000           -0.0914828              -2.4894 (HOMO)
        19        0.0000           -0.0630919              -1.7168 (LUMO)
        20                         -0.0586346              -1.5955
        21                          0.0443115               1.2058
        22                          0.1109798               3.0199
        23                          0.2100159               5.7148
       ...                                ...                  ...
        35                          1.5233922              41.4536
      -------------------------------------------------------------
                  HL-Gap            0.0283909 Eh            0.7726 eV
             Fermi-level           -0.0772917 Eh           -2.1032 eV

 SCC (total)                   0 d,  0 h,  0 min,  0.032 sec
 SCC setup                      ...        0 min,  0.000 sec (  0.434%)
 Dispersion                     ...        0 min,  0.000 sec (  0.165%)
 classical contributions        ...        0 min,  0.000 sec (  0.071%)
 integral evaluation            ...        0 min,  0.022 sec ( 67.858%)
 iterations                     ...        0 min,  0.008 sec ( 26.429%)
 molecular gradient             ...        0 min,  0.001 sec (  4.675%)
 printout                       ...        0 min,  0.000 sec (  0.281%)

         :::::::::::::::::::::::::::::::::::::::::::::::::::::
         ::                     SUMMARY                     ::
         :::::::::::::::::::::::::::::::::::::::::::::::::::::
         :: total energy             -22.201599652913 Eh    ::
         :: gradient norm              0.095735603146 Eh/a0 ::
         :: HOMO-LUMO gap              0.772555836881 eV    ::
         ::.................................................::
         :: SCC energy               -22.356852979534 Eh    ::
         :: -> isotropic ES            0.148121509603 Eh    ::
         :: -> anisotropic ES         -0.008337516132 Eh    ::
         :: -> anisotropic XC         -0.008063266412 Eh    ::
         :: -> dispersion             -0.005934406182 Eh    ::
         :: repulsion energy           0.155253326621 Eh    ::
         :: add. restraining           0.000000000000 Eh    ::
         :: total charge              -1.000000000013 e     ::
         :::::::::::::::::::::::::::::::::::::::::::::::::::::

      ----------------------------------------------------------- 
     |                   =====================                   |
     |                        A N C O P T                        |
     |                   =====================                   |
     |               Approximate Normal Coordinate               |
     |                Rational Function Optimizer                |
      ----------------------------------------------------------- 
      ----------------------------------------------------------- 
     |                   =====================                   |
     |                        A N C O P T                        |
     |                   =====================                   |
     |               Approximate Normal Coordinate               |
     |                Rational Function Optimizer                |
      ----------------------------------------------------------- 

          ...................................................
          :                      SETUP                      :
          :.................................................:
          :   optimization level            normal          :
          :   max. optcycles                   200          :
          :   ANC micro-cycles                  20          :
          :   degrees of freedom                15          :
          :.................................................:
          :   RF solver                   davidson          :
          :   write xtbopt.log                true          :
          :   linear?                        false          :
          :   energy convergence         0.5000000E-05 Eh   :
          :   grad. convergence          0.1000000E-02 Eh/α :
          :   maxmium RF displ.          1.0000000          :
          :   Hlow (freq-cutoff)         0.1000000E-01      :
          :   Hmax (freq-cutoff)         5.0000000          :
          :   S6 in model hess.         20.0000000          :
          ...................................................

generating ANC from exact Hessian ...
Using Lindh-Hessian (1995)
 Shifting diagonal of input Hessian by   9.606519110660473E-003
 Lowest  eigenvalues of input Hessian
    0.000000    0.000000    0.000000    0.000000    0.000000    0.000000
    0.010000    0.010270    0.010597    0.010994    0.011126    0.011442
    0.043382    0.114211    0.173050    0.568612    1.137710    1.251750
 Highest eigenvalues
    0.568612    1.137710    1.251750    1.283646    1.544273    3.264226
 

........................................................................
.............................. CYCLE    1 ..............................
........................................................................

 iter      E             dE          RMSdq      gap      omega  full diag
   1    -22.3568585 -0.223569E+02  0.765E-05    0.77       0.0  T
   2    -22.3568585  0.492761E-11  0.402E-05    0.77     939.3  T
   3    -22.3568585 -0.563105E-11  0.463E-05    0.77     816.0  T
     SCC iter.                  ...        0 min,  0.001 sec
     gradient                   ...        0 min,  0.001 sec
 * total energy  :   -22.2015997 Eh     change       -0.2018297E-10 Eh
   gradient norm :     0.0957321 Eh/α   predicted     0.0000000E+00 (-100.00%)
   displ. norm   :     0.6554535 α      lambda       -0.4308403E-01
   maximum displ.:     0.6444905 α      in ANC's #7, #10, #6, ...

........................................................................
.............................. CYCLE    2 ..............................
........................................................................

 iter      E             dE          RMSdq      gap      omega  full diag
   1    -22.3625557 -0.223626E+02  0.221E+00    1.91       0.0  T
   2    -22.3636698 -0.111410E-02  0.123E+00    2.06       1.0  T
   3    -22.3637840 -0.114197E-03  0.392E-01    1.93       1.0  T
   4    -22.3638973 -0.113304E-03  0.130E-01    2.01       1.0  T
   5    -22.3638863  0.109641E-04  0.931E-02    1.94       1.0  T
   6    -22.3639232 -0.369285E-04  0.542E-02    1.96       1.0  T
   7    -22.3639355 -0.122296E-04  0.286E-02    1.97       1.3  T
   8    -22.3639340  0.149635E-05  0.259E-02    1.96       1.5  T
   9    -22.3639378 -0.387704E-05  0.472E-03    1.97       8.0  T
  10    -22.3639379 -0.645093E-07  0.967E-04    1.98      39.1  T
  11    -22.3639379  0.252912E-07  0.212E-03    1.97      17.8  T
  12    -22.3639379 -0.270772E-07  0.411E-04    1.98      92.0  T
     SCC iter.                  ...        0 min,  0.003 sec
     gradient                   ...        0 min,  0.001 sec
 * total energy  :   -22.2339702 Eh     change       -0.3237054E-01 Eh
   gradient norm :     0.0569706 Eh/α   predicted    -0.3079692E-01 (  -4.86%)
   displ. norm   :     0.5884753 α      lambda       -0.9658058E-02
   maximum displ.:     0.5570031 α      in ANC's #3, #7, #4, ...

........................................................................
.............................. CYCLE    3 ..............................
........................................................................

 iter      E             dE          RMSdq      gap      omega  full diag
   1    -22.3691560 -0.223692E+02  0.121E+00    2.57       0.0  T
   2    -22.3693857 -0.229637E-03  0.722E-01    2.70       1.0  T
   3    -22.3692706  0.115092E-03  0.300E-01    2.62       1.0  T
   4    -22.3695497 -0.279095E-03  0.122E-01    2.70       1.0  T
   5    -22.3695719 -0.222521E-04  0.556E-02    2.68       1.0  T
   6    -22.3695771 -0.515294E-05  0.352E-02    2.68       1.1  T
   7    -22.3695799 -0.285036E-05  0.100E-02    2.68       3.8  T
   8    -22.3695800 -0.109577E-06  0.473E-03    2.68       8.0  T
   9    -22.3695801 -0.253733E-07  0.204E-03    2.68      18.5  T
  10    -22.3695801 -0.471296E-08  0.136E-03    2.68      27.7  T
  11    -22.3695801 -0.286066E-08  0.537E-04    2.68      70.4  T
  12    -22.3695801 -0.556767E-09  0.108E-04    2.68     350.7  T
     SCC iter.                  ...        0 min,  0.003 sec
     gradient                   ...        0 min,  0.001 sec
 * total energy  :   -22.2382326 Eh     change       -0.4262387E-02 Eh
   gradient norm :     0.0396346 Eh/α   predicted    -0.6501314E-02 (  52.53%)
   displ. norm   :     0.3083209 α      lambda       -0.3839499E-02
   maximum displ.:     0.2454755 α      in ANC's #6, #4, #7, ...

........................................................................
.............................. CYCLE    4 ..............................
........................................................................

 iter      E             dE          RMSdq      gap      omega  full diag
   1    -22.3758774 -0.223759E+02  0.423E-01    2.63       0.0  T
   2    -22.3759948 -0.117373E-03  0.243E-01    2.78       1.0  T
   3    -22.3759996 -0.481593E-05  0.109E-01    2.79       1.0  T
   4    -22.3760355 -0.358999E-04  0.551E-02    2.84       1.0  T
   5    -22.3760381 -0.259850E-05  0.181E-02    2.83       2.1  T
   6    -22.3760385 -0.377386E-06  0.109E-02    2.83       3.5  T
   7    -22.3760386 -0.142887E-06  0.445E-03    2.82       8.5  T
   8    -22.3760387 -0.212845E-07  0.232E-03    2.83      16.3  T
   9    -22.3760387 -0.961567E-08  0.539E-04    2.83      70.2  T
  10    -22.3760387 -0.519471E-09  0.274E-04    2.82     137.8  T
     SCC iter.                  ...        0 min,  0.002 sec
     gradient                   ...        0 min,  0.001 sec
 * total energy  :   -22.2411650 Eh     change       -0.2932423E-02 Eh
   gradient norm :     0.0443012 Eh/α   predicted    -0.2102241E-02 ( -28.31%)
   displ. norm   :     0.6130034 α      lambda       -0.6599122E-02
   maximum displ.:     0.5792132 α      in ANC's #6, #4, #12, ...

........................................................................
.............................. CYCLE    5 ..............................
........................................................................

 iter      E             dE          RMSdq      gap      omega  full diag
   1    -22.3749626 -0.223750E+02  0.126E+00    2.90       0.0  T
   2    -22.3776584 -0.269585E-02  0.659E-01    3.61       1.0  T
   3    -22.3791019 -0.144350E-02  0.261E-01    3.41       1.0  T
   4    -22.3792950 -0.193057E-03  0.858E-02    3.55       1.0  T
   5    -22.3792982 -0.318914E-05  0.432E-02    3.56       1.0  T
   6    -22.3793015 -0.332071E-05  0.221E-02    3.55       1.7  T
   7    -22.3793015 -0.682917E-07  0.157E-02    3.54       2.4  T
   8    -22.3793023 -0.729298E-06  0.456E-03    3.55       8.3  T
   9    -22.3793023  0.143702E-08  0.348E-03    3.55      10.8  T
  10    -22.3793023 -0.434815E-07  0.487E-04    3.55      77.7  T
  11    -22.3793023 -0.276408E-09  0.279E-04    3.55     135.2  T
     SCC iter.                  ...        0 min,  0.003 sec
     gradient                   ...        0 min,  0.001 sec
 * total energy  :   -22.2479777 Eh     change       -0.6812708E-02 Eh
   gradient norm :     0.0624682 Eh/α   predicted    -0.4539456E-02 ( -33.37%)
   displ. norm   :     0.5484384 α      lambda       -0.7985318E-02
   maximum displ.:     0.5165831 α      in ANC's #6, #12, #3, ...

........................................................................
.............................. CYCLE    6 ..............................
........................................................................

 iter      E             dE          RMSdq      gap      omega  full diag
   1    -22.3701240 -0.223701E+02  0.157E+00    3.56       0.0  T
   2    -22.3755990 -0.547501E-02  0.931E-01    4.40       1.0  T
   3    -22.3790141 -0.341509E-02  0.285E-01    4.18       1.0  T
   4    -22.3791937 -0.179595E-03  0.105E-01    4.30       1.0  T
   5    -22.3791990 -0.535005E-05  0.540E-02    4.32       1.0  T
   6    -22.3792038 -0.482624E-05  0.271E-02    4.31       1.4  T
   7    -22.3792043 -0.474012E-06  0.174E-02    4.30       2.2  T
   8    -22.3792051 -0.799903E-06  0.493E-03    4.30       7.7  T
   9    -22.3792052 -0.381500E-07  0.265E-03    4.30      14.2  T
  10    -22.3792052 -0.251343E-07  0.789E-04    4.30      47.9  T
  11    -22.3792052 -0.155325E-08  0.254E-04    4.30     148.9  T
     SCC iter.                  ...        0 min,  0.003 sec
     gradient                   ...        0 min,  0.001 sec
 * total energy  :   -22.2563443 Eh     change       -0.8366554E-02 Eh
   gradient norm :     0.0800658 Eh/α   predicted    -0.5193590E-02 ( -37.92%)
   displ. norm   :     0.3890205 α      lambda       -0.9019749E-02
   maximum displ.:     0.3458574 α      in ANC's #6, #12, #4, ...

........................................................................
.............................. CYCLE    7 ..............................
........................................................................

 iter      E             dE          RMSdq      gap      omega  full diag
   1    -22.3679602 -0.223680E+02  0.134E+00    4.15       0.0  T
   2    -22.3732431 -0.528285E-02  0.899E-01    4.42       1.0  T
   3    -22.3761618 -0.291876E-02  0.276E-01    4.38       1.0  T
   4    -22.3762575 -0.956899E-04  0.125E-01    4.32       1.0  T
   5    -22.3762701 -0.125604E-04  0.413E-02    4.32       1.0  T
   6    -22.3762722 -0.215705E-05  0.287E-02    4.32       1.3  T
   7    -22.3762735 -0.130053E-05  0.102E-02    4.33       3.7  T
   8    -22.3762739 -0.328454E-06  0.326E-03    4.32      11.6  T
   9    -22.3762739 -0.798559E-08  0.170E-03    4.32      22.2  T
  10    -22.3762739 -0.883118E-08  0.755E-04    4.32      50.0  T
  11    -22.3762739 -0.118039E-08  0.332E-04    4.32     113.9  T
     SCC iter.                  ...        0 min,  0.003 sec
     gradient                   ...        0 min,  0.001 sec
 * total energy  :   -22.2645753 Eh     change       -0.8231003E-02 Eh
   gradient norm :     0.0770850 Eh/α   predicted    -0.5192392E-02 ( -36.92%)
   displ. norm   :     0.6687136 α      lambda       -0.4524251E-01
   maximum displ.:     0.6171679 α      in ANC's #12, #6, #4, ...

........................................................................
.............................. CYCLE    8 ..............................
........................................................................

 iter      E             dE          RMSdq      gap      omega  full diag
   1    -22.2654239 -0.222654E+02  0.239E+00    3.45       0.0  T
   2    -22.2895305 -0.241066E-01  0.177E+00    3.79       1.0  T
   3    -22.2972474 -0.771684E-02  0.803E-01    3.65       1.0  T
   4    -22.2977071 -0.459688E-03  0.338E-01    3.57       1.0  T
   5    -22.2977063  0.814609E-06  0.192E-01    3.52       1.0  T
   6    -22.2977926 -0.863429E-04  0.750E-02    3.56       1.0  T
   7    -22.2977983 -0.571193E-05  0.466E-02    3.56       1.0  T
   8    -22.2978035 -0.521530E-05  0.158E-02    3.56       2.4  T
   9    -22.2978040 -0.441605E-06  0.633E-03    3.56       6.0  T
  10    -22.2978040 -0.443953E-07  0.182E-03    3.56      20.7  T
  11    -22.2978040 -0.471524E-08  0.739E-04    3.56      51.2  T
  12    -22.2978040 -0.910351E-09  0.412E-04    3.56      91.8  T
     SCC iter.                  ...        0 min,  0.003 sec
     gradient                   ...        0 min,  0.001 sec
 * total energy  :   -22.2385315 Eh     change        0.2604376E-01 Eh
   gradient norm :     0.2111881 Eh/α   predicted    -0.3273703E-01 (-225.70%)
   displ. norm   :     0.3748171 α      lambda       -0.6866585E-01
   maximum displ.:     0.3404877 α      in ANC's #12, #7, #4, ...

........................................................................
.............................. CYCLE    9 ..............................
........................................................................

 iter      E             dE          RMSdq      gap      omega  full diag
   1    -22.3586601 -0.223587E+02  0.121E+00    3.89       0.0  T
   2    -22.3649362 -0.627605E-02  0.773E-01    4.22       1.0  T
   3    -22.3662967 -0.136050E-02  0.373E-01    4.29       1.0  T
   4    -22.3663746 -0.778740E-04  0.161E-01    4.40       1.0  T
   5    -22.3663805 -0.588224E-05  0.712E-02    4.39       1.0  T
   6    -22.3663914 -0.109606E-04  0.368E-02    4.38       1.0  T
   7    -22.3663929 -0.147993E-05  0.229E-02    4.38       1.7  T
   8    -22.3663939 -0.100765E-05  0.531E-03    4.38       7.1  T
   9    -22.3663939 -0.330264E-07  0.179E-03    4.38      21.2  T
  10    -22.3663939 -0.560957E-08  0.791E-04    4.38      47.8  T
  11    -22.3663939 -0.763535E-09  0.319E-04    4.38     118.4  T
     SCC iter.                  ...        0 min,  0.003 sec
     gradient                   ...        0 min,  0.001 sec
 * total energy  :   -22.2771653 Eh     change       -0.3863384E-01 Eh
   gradient norm :     0.0425933 Eh/α   predicted    -0.3915629E-01 (   1.35%)
   displ. norm   :     0.3674037 α      lambda       -0.4239582E-02
   maximum displ.:     0.2684792 α      in ANC's #4, #6, #7, ...

........................................................................
.............................. CYCLE   10 ..............................
........................................................................

 iter      E             dE          RMSdq      gap      omega  full diag
   1    -22.3644243 -0.223644E+02  0.693E-01    4.51       0.0  T
   2    -22.3665178 -0.209352E-02  0.396E-01    4.55       1.0  T
   3    -22.3666297 -0.111960E-03  0.222E-01    4.58       1.0  T
   4    -22.3666298 -0.365395E-07  0.422E-02    4.60       1.0  T
   5    -22.3666354 -0.557227E-05  0.223E-02    4.60       1.7  T
   6    -22.3666358 -0.466996E-06  0.123E-02    4.59       3.1  T
   7    -22.3666359 -0.127410E-06  0.737E-03    4.59       5.1  T
   8    -22.3666361 -0.125751E-06  0.240E-03    4.59      15.8  T
   9    -22.3666361 -0.607025E-08  0.115E-03    4.59      32.7  T
  10    -22.3666361 -0.390504E-08  0.274E-04    4.59     137.7  T
  11    -22.3666361 -0.117709E-09  0.109E-04    4.59     346.8  T
     SCC iter.                  ...        0 min,  0.003 sec
     gradient                   ...        0 min,  0.001 sec
 * total energy  :   -22.2725349 Eh     change        0.4630429E-02 Eh
   gradient norm :     0.1116789 Eh/α   predicted    -0.2405930E-02 (-151.96%)
   displ. norm   :     0.2936801 α      lambda       -0.1191974E-01
   maximum displ.:     0.2054737 α      in ANC's #6, #4, #3, ...

........................................................................
.............................. CYCLE   11 ..............................
........................................................................

 iter      E             dE          RMSdq      gap      omega  full diag
   1    -22.3781265 -0.223781E+02  0.586E-01    4.57       0.0  T
   2    -22.3792967 -0.117018E-02  0.352E-01    4.54       1.0  T
   3    -22.3793509 -0.542310E-04  0.192E-01    4.53       1.0  T
   4    -22.3793492  0.168003E-05  0.480E-02    4.50       1.0  T
   5    -22.3793568 -0.759908E-05  0.186E-02    4.51       2.0  T
   6    -22.3793572 -0.386019E-06  0.933E-03    4.51       4.1  T
   7    -22.3793573 -0.138648E-06  0.469E-03    4.51       8.1  T
   8    -22.3793574 -0.676601E-07  0.258E-03    4.51      14.7  T
   9    -22.3793574 -0.842294E-08  0.119E-03    4.51      31.8  T
  10    -22.3793574 -0.400281E-08  0.347E-04    4.51     109.0  T
  11    -22.3793574 -0.294818E-09  0.205E-04    4.51     184.6  T
     SCC iter.                  ...        0 min,  0.003 sec
     gradient                   ...        0 min,  0.001 sec
 * total energy  :   -22.2783360 Eh     change       -0.5801095E-02 Eh
   gradient norm :     0.0264764 Eh/α   predicted    -0.6473906E-02 (  11.60%)
   displ. norm   :     0.5129213 α      lambda       -0.5134465E-02
   maximum displ.:     0.4163949 α      in ANC's #6, #4, #3, ...

........................................................................
.............................. CYCLE   12 ..............................
........................................................................

 iter      E             dE          RMSdq      gap      omega  full diag
   1    -22.3576986 -0.223577E+02  0.130E+00    4.54       0.0  T
   2    -22.3635616 -0.586298E-02  0.936E-01    4.72       1.0  T
   3    -22.3657208 -0.215916E-02  0.430E-01    4.74       1.0  T
   4    -22.3657438 -0.229923E-04  0.125E-01    4.80       1.0  T
   5    -22.3657680 -0.242196E-04  0.689E-02    4.80       1.0  T
   6    -22.3657744 -0.638103E-05  0.286E-02    4.79       1.3  T
   7    -22.3657752 -0.834332E-06  0.215E-02    4.79       1.8  T
   8    -22.3657761 -0.933590E-06  0.514E-03    4.80       7.4  T
   9    -22.3657762 -0.311706E-07  0.286E-03    4.80      13.2  T
  10    -22.3657762 -0.257218E-07  0.761E-04    4.80      49.7  T
  11    -22.3657762 -0.113667E-08  0.382E-04    4.80      99.0  T
     SCC iter.                  ...        0 min,  0.003 sec
     gradient                   ...        0 min,  0.001 sec
 * total energy  :   -22.2727153 Eh     change        0.5620732E-02 Eh
   gradient norm :     0.0620439 Eh/α   predicted    -0.3242633E-02 (-157.69%)
   displ. norm   :     0.3190372 α      lambda       -0.8819758E-02
   maximum displ.:     0.2464416 α      in ANC's #6, #4, #3, ...

........................................................................
.............................. CYCLE   13 ..............................
........................................................................

 iter      E             dE          RMSdq      gap      omega  full diag
   1    -22.3730633 -0.223731E+02  0.791E-01    4.82       0.0  T
   2    -22.3752561 -0.219285E-02  0.561E-01    4.76       1.0  T
   3    -22.3759187 -0.662609E-03  0.262E-01    4.75       1.0  T
   4    -22.3759370 -0.182454E-04  0.805E-02    4.69       1.0  T
   5    -22.3759417 -0.471583E-05  0.386E-02    4.70       1.0  T
   6    -22.3759433 -0.163449E-05  0.187E-02    4.70       2.0  T
   7    -22.3759437 -0.416326E-06  0.125E-02    4.70       3.0  T
   8    -22.3759441 -0.347052E-06  0.304E-03    4.70      12.4  T
   9    -22.3759441 -0.962718E-08  0.920E-04    4.70      41.1  T
  10    -22.3759441 -0.179672E-08  0.481E-04    4.70      78.5  T
     SCC iter.                  ...        0 min,  0.002 sec
     gradient                   ...        0 min,  0.001 sec
 * total energy  :   -22.2786450 Eh     change       -0.5929674E-02 Eh
   gradient norm :     0.0102595 Eh/α   predicted    -0.4858746E-02 ( -18.06%)
   displ. norm   :     0.1983749 α      lambda       -0.1387189E-02
   maximum displ.:     0.1601299 α      in ANC's #6, #4, #3, ...

........................................................................
.............................. CYCLE   14 ..............................
........................................................................

 iter      E             dE          RMSdq      gap      omega  full diag
   1    -22.3750855 -0.223751E+02  0.466E-01    4.69       0.0  T
   2    -22.3759045 -0.819031E-03  0.346E-01    4.61       1.0  T
   3    -22.3761384 -0.233914E-03  0.165E-01    4.60       1.0  T
   4    -22.3761496 -0.111896E-04  0.548E-02    4.54       1.0  T
   5    -22.3761514 -0.176516E-05  0.168E-02    4.55       2.2  T
   6    -22.3761517 -0.325034E-06  0.120E-02    4.55       3.2  T
   7    -22.3761520 -0.294911E-06  0.350E-03    4.55      10.8  T
   8    -22.3761520 -0.179435E-07  0.178E-03    4.55      21.2  T
   9    -22.3761520 -0.504212E-08  0.583E-04    4.55      64.9  T
  10    -22.3761520 -0.312220E-09  0.371E-04    4.55     101.9  T
     SCC iter.                  ...        0 min,  0.002 sec
     gradient                   ...        0 min,  0.001 sec
 * total energy  :   -22.2788249 Eh     change       -0.1799713E-03 Eh
   gradient norm :     0.0137560 Eh/α   predicted    -0.7208887E-03 ( 300.56%)
   displ. norm   :     0.0909916 α      lambda       -0.6413019E-03
   maximum displ.:     0.0797834 α      in ANC's #6, #4, #3, ...

........................................................................
.............................. CYCLE   15 ..............................
........................................................................

 iter      E             dE          RMSdq      gap      omega  full diag
   1    -22.3769890 -0.223770E+02  0.224E-01    4.54       0.0  T
   2    -22.3772004 -0.211318E-03  0.169E-01    4.61       1.0  T
   3    -22.3772636 -0.632002E-04  0.781E-02    4.62       1.0  T
   4    -22.3772663 -0.276895E-05  0.270E-02    4.64       1.4  T
   5    -22.3772668 -0.430641E-06  0.814E-03    4.64       4.6  T
   6    -22.3772668 -0.736276E-07  0.592E-03    4.64       6.4  T
   7    -22.3772669 -0.664022E-07  0.180E-03    4.64      21.0  T
   8    -22.3772669 -0.622040E-08  0.855E-04    4.64      44.2  T
   9    -22.3772669 -0.825697E-09  0.244E-04    4.64     154.9  T
     SCC iter.                  ...        0 min,  0.002 sec
     gradient                   ...        0 min,  0.001 sec
 * total energy  :   -22.2790989 Eh     change       -0.2739345E-03 Eh
   gradient norm :     0.0047574 Eh/α   predicted    -0.3233081E-03 (  18.02%)
   displ. norm   :     0.0118590 α      lambda       -0.2117751E-04
   maximum displ.:     0.0073004 α      in ANC's #4, #3, #12, ...

........................................................................
.............................. CYCLE   16 ..............................
........................................................................

 iter      E             dE          RMSdq      gap      omega  full diag
   1    -22.3771031 -0.223771E+02  0.282E-02    4.64       0.0  T
   2    -22.3771055 -0.246356E-05  0.190E-02    4.64       2.0  T
   3    -22.3771062 -0.713185E-06  0.896E-03    4.64       4.2  T
   4    -22.3771063 -0.342361E-07  0.275E-03    4.63      13.8  T
   5    -22.3771063 -0.257428E-08  0.741E-04    4.63      51.0  T
   6    -22.3771063 -0.666617E-09  0.493E-04    4.63      76.6  T
     SCC iter.                  ...        0 min,  0.002 sec
     gradient                   ...        0 min,  0.001 sec
 * total energy  :   -22.2791152 Eh     change       -0.1632978E-04 Eh
   gradient norm :     0.0040402 Eh/α   predicted    -0.1058986E-04 ( -35.15%)
   displ. norm   :     0.0218136 α      lambda       -0.2477720E-04
   maximum displ.:     0.0136882 α      in ANC's #4, #3, #1, ...

........................................................................
.............................. CYCLE   17 ..............................
........................................................................

 iter      E             dE          RMSdq      gap      omega  full diag
   1    -22.3771683 -0.223772E+02  0.343E-02    4.64       0.0  T
   2    -22.3771705 -0.221971E-05  0.216E-02    4.64       1.8  T
   3    -22.3771710 -0.486562E-06  0.114E-02    4.64       3.3  T
   4    -22.3771711 -0.849270E-07  0.288E-03    4.64      13.1  T
   5    -22.3771711 -0.834745E-08  0.174E-03    4.64      21.7  T
   6    -22.3771711 -0.455485E-08  0.113E-03    4.64      33.3  T
   7    -22.3771711 -0.465721E-08  0.405E-04    4.64      93.4  T
   8    -22.3771711 -0.335639E-09  0.303E-04    4.64     124.9  T
     SCC iter.                  ...        0 min,  0.002 sec
     gradient                   ...        0 min,  0.001 sec
 * total energy  :   -22.2791305 Eh     change       -0.1530859E-04 Eh
   gradient norm :     0.0027119 Eh/α   predicted    -0.1239279E-04 ( -19.05%)
   displ. norm   :     0.0214708 α      lambda       -0.1004682E-04
   maximum displ.:     0.0119894 α      in ANC's #5, #4, #6, ...

........................................................................
.............................. CYCLE   18 ..............................
........................................................................

 iter      E             dE          RMSdq      gap      omega  full diag
   1    -22.3771855 -0.223772E+02  0.266E-02    4.63       0.0  T
   2    -22.3771858 -0.316098E-06  0.160E-02    4.63       2.4  T
   3    -22.3771858 -0.190300E-07  0.560E-03    4.64       6.7  T
   4    -22.3771859 -0.543559E-07  0.289E-03    4.64      13.1  T
   5    -22.3771859 -0.123395E-07  0.230E-03    4.64      16.4  T
   6    -22.3771859 -0.143959E-07  0.160E-03    4.64      23.7  T
   7    -22.3771859 -0.139572E-07  0.628E-04    4.64      60.2  T
   8    -22.3771859 -0.107425E-08  0.499E-04    4.64      75.7  T
     SCC iter.                  ...        0 min,  0.002 sec
     gradient                   ...        0 min,  0.001 sec
 * total energy  :   -22.2791354 Eh     change       -0.4952299E-05 Eh
   gradient norm :     0.0019535 Eh/α   predicted    -0.5026258E-05 (   1.49%)
   displ. norm   :     0.0287353 α      lambda       -0.8492107E-05
   maximum displ.:     0.0168346 α      in ANC's #5, #1, #4, ...

........................................................................
.............................. CYCLE   19 ..............................
........................................................................

 iter      E             dE          RMSdq      gap      omega  full diag
   1    -22.3772088 -0.223772E+02  0.388E-02    4.63       0.0  T
   2    -22.3772105 -0.170017E-05  0.238E-02    4.64       1.6  T
   3    -22.3772107 -0.196359E-06  0.121E-02    4.64       3.1  T
   4    -22.3772109 -0.200796E-06  0.519E-03    4.64       7.3  T
   5    -22.3772110 -0.398133E-07  0.382E-03    4.64       9.9  T
   6    -22.3772110 -0.351771E-07  0.282E-03    4.64      13.4  T
   7    -22.3772110 -0.477758E-07  0.977E-04    4.64      38.7  T
   8    -22.3772110 -0.230127E-08  0.754E-04    4.64      50.2  T
     SCC iter.                  ...        0 min,  0.002 sec
     gradient                   ...        0 min,  0.001 sec
 * total energy  :   -22.2791376 Eh     change       -0.2135932E-05 Eh
   gradient norm :     0.0009232 Eh/α   predicted    -0.4248438E-05 (  98.90%)
   displ. norm   :     0.0154465 α      lambda       -0.4239194E-05
   maximum displ.:     0.0104676 α      in ANC's #5, #3, #6, ...

   *** GEOMETRY OPTIMIZATION CONVERGED AFTER 19 ITERATIONS ***

------------------------------------------------------------------------
 total energy gain   :        -0.0775379 Eh      -48.6558 kcal/mol
 total RMSD          :         0.9018655 a0        0.4772 Å
 total power (kW/mol):       -10.7145162 (step)-2381.8936 (real)
------------------------------------------------------------------------

 ANCopt (total)                0 d,  0 h,  0 min,  0.085 sec
 optimizer setup                ...        0 min,  0.000 sec (  0.471%)
 model hessian                  ...        0 min,  0.000 sec (  0.325%)
 ANC generation                 ...        0 min,  0.000 sec (  0.110%)
 coordinate transformation      ...        0 min,  0.000 sec (  0.132%)
 single point calculation       ...        0 min,  0.082 sec ( 96.475%)
 optimization log               ...        0 min,  0.001 sec (  0.813%)
 hessian update                 ...        0 min,  0.000 sec (  0.134%)
 rational function              ...        0 min,  0.001 sec (  0.738%)

================
 final structure:
================
7
 xtb: 6.7.1 (edcfbbe)
C           -0.27791832574195       -0.91309393628777        0.90804607242672
C           -0.39489580390081       -0.77663197605762       -0.73007131450971
Cl          -1.85181694062699       -1.25050891698746        1.63655722175080
H            0.38096916411110       -1.74563782783893        1.16581698424551
Cl           0.40425470106029        0.54116692137805        1.64765608754336
O           -1.07521297408877        0.14772431678359       -1.13317435793953
O            0.24733417918723       -1.66192358098974       -1.27905869351725
 
 Bond Distances (Angstroems)
 ---------------------------
C1-C2=1.6479         C1-Cl3=1.7668        C1-H4=1.0926         C1-Cl5=1.7684        C2-C1=1.6479         C2-O6=1.2165         
C2-O7=1.2238         Cl3-C1=1.7668        H4-C1=1.0926         Cl5-C1=1.7684        O6-C2=1.2165         O7-C2=1.2238         
 C  H  Rav=1.0926 sigma=0.0000  Rmin=1.0926  Rmax=1.0926     1
 C  C  Rav=1.6479 sigma=0.0000  Rmin=1.6479  Rmax=1.6479     1
 O  C  Rav=1.2201 sigma=0.0037  Rmin=1.2165  Rmax=1.2238     2
 Cl C  Rav=1.7676 sigma=0.0008  Rmin=1.7668  Rmax=1.7684     2
 
 selected bond angles (degree)
 --------------------
Cl3-C1-C2=111.25               H4-C1-C2=109.90                H4-C1-Cl3=107.12               Cl5-C1-C2=112.03               
Cl5-C1-Cl3=109.16              Cl5-C1-H4=107.18               O6-C2-C1=115.60                O7-C2-C1=110.41                
O7-C2-O6=133.99                
 
 selected dihedral angles (degree)
 ---------------------------------
O6-C2-C1-Cl3= 63.65           O6-C2-C1-H4=182.13            O6-C2-C1-Cl5=301.16           O7-C2-C1-Cl3=243.64           
O7-C2-C1-H4=  2.11            O7-C2-C1-Cl5=121.14           
 
 CMA Distance (Angstroems)
 ---------------------------
R(CMA):  2.6368
           -------------------------------------------------
          |                Final Singlepoint                |
           -------------------------------------------------

          ...................................................
          :                      SETUP                      :
          :.................................................:
          :  # basis functions                  37          :
          :  # atomic orbitals                  35          :
          :  # shells                           15          :
          :  # electrons                        36          :
          :  max. iterations                   250          :
          :  Hamiltonian                  GFN2-xTB          :
          :  restarted?                      false          :
          :  GBSA solvation                  false          :
          :  PC potential                    false          :
          :  electronic temp.          300.0000000     K    :
          :  accuracy                    1.0000000          :
          :  -> integral cutoff          0.2500000E+02      :
          :  -> integral neglect         0.1000000E-07      :
          :  -> SCF convergence          0.1000000E-05 Eh   :
          :  -> wf. convergence          0.1000000E-03 e    :
          :  Broyden damping             0.4000000          :
          :  net charge                         -1          :
          :  unpaired electrons                  0          :
          ...................................................

 iter      E             dE          RMSdq      gap      omega  full diag
   1    -22.3772110 -0.223772E+02  0.313E-04    4.64       0.0  T
   2    -22.3772110 -0.691358E-10  0.250E-04    4.64     151.2  T
   3    -22.3772110 -0.126594E-09  0.123E-04    4.64     306.7  T

   *** convergence criteria satisfied after 3 iterations ***

         #    Occupation            Energy/Eh            Energy/eV
      -------------------------------------------------------------
         1        2.0000           -0.9313803             -25.3441
       ...           ...                  ...                  ...
        12        2.0000           -0.3056698              -8.3177
        13        2.0000           -0.2970136              -8.0822
        14        2.0000           -0.2885162              -7.8509
        15        2.0000           -0.2880927              -7.8394
        16        2.0000           -0.2515674              -6.8455
        17        2.0000           -0.2390480              -6.5048
        18        2.0000           -0.2172659              -5.9121 (HOMO)
        19                         -0.0466498              -1.2694 (LUMO)
        20                         -0.0408313              -1.1111
        21                          0.0227695               0.6196
        22                          0.1289435               3.5087
        23                          0.1458329               3.9683
       ...                                ...                  ...
        35                          0.9191557              25.0115
      -------------------------------------------------------------
                  HL-Gap            0.1706160 Eh            4.6427 eV
             Fermi-level           -0.1319578 Eh           -3.5908 eV

 SCC (total)                   0 d,  0 h,  0 min,  0.003 sec
 SCC setup                      ...        0 min,  0.000 sec (  3.728%)
 Dispersion                     ...        0 min,  0.000 sec (  0.818%)
 classical contributions        ...        0 min,  0.000 sec (  0.267%)
 integral evaluation            ...        0 min,  0.001 sec ( 23.189%)
 iterations                     ...        0 min,  0.001 sec ( 27.649%)
 molecular gradient             ...        0 min,  0.001 sec ( 41.336%)
 printout                       ...        0 min,  0.000 sec (  2.171%)

         :::::::::::::::::::::::::::::::::::::::::::::::::::::
         ::                     SUMMARY                     ::
         :::::::::::::::::::::::::::::::::::::::::::::::::::::
         :: total energy             -22.279137585642 Eh    ::
         :: gradient norm              0.000991205495 Eh/a0 ::
         :: HOMO-LUMO gap              4.642699008386 eV    ::
         ::.................................................::
         :: SCC energy               -22.377208858321 Eh    ::
         :: -> isotropic ES            0.173885174797 Eh    ::
         :: -> anisotropic ES         -0.005711100544 Eh    ::
         :: -> anisotropic XC         -0.009395386854 Eh    ::
         :: -> dispersion             -0.006220192556 Eh    ::
         :: repulsion energy           0.098071272679 Eh    ::
         :: add. restraining           0.000000000000 Eh    ::
         :: total charge              -1.000000000000 e     ::
         :::::::::::::::::::::::::::::::::::::::::::::::::::::

           ------------------------------------------------- 
          |                Numerical Hessian                |
           ------------------------------------------------- 
step length          :   0.00500
SCC accuracy         :   0.30000
Hessian scale factor :   1.00000
frozen atoms in %    :   0.00000    0
RMS gradient         :   0.00099
estimated CPU  time      0.01 min
estimated wall time      0.00 min

writing file <hessian>.

 projected vibrational frequencies (cm⁻¹)
eigval :       -0.00    -0.00    -0.00    -0.00     0.00     0.00
eigval :      -15.41   125.98   169.18   245.01   373.98   624.32
eigval :      641.85   704.36   750.93   753.35  1119.08  1183.84
eigval :     1291.47  1897.96  2944.70
           -------------------------------------------------
          |                Property Printout                |
           -------------------------------------------------

    * Orbital Energies and Occupations

         #    Occupation            Energy/Eh            Energy/eV
      -------------------------------------------------------------
         1        2.0000           -0.9313806             -25.3442
       ...           ...                  ...                  ...
         6        2.0000           -0.4189156             -11.3993
         7        2.0000           -0.3888374             -10.5808
         8        2.0000           -0.3877532             -10.5513
         9        2.0000           -0.3831007             -10.4247
        10        2.0000           -0.3563080              -9.6956
        11        2.0000           -0.3380797              -9.1996
        12        2.0000           -0.3056702              -8.3177
        13        2.0000           -0.2970139              -8.0822
        14        2.0000           -0.2885166              -7.8509
        15        2.0000           -0.2880930              -7.8394
        16        2.0000           -0.2515679              -6.8455
        17        2.0000           -0.2390485              -6.5048
        18        2.0000           -0.2172665              -5.9121 (HOMO)
        19                         -0.0466506              -1.2694 (LUMO)
        20                         -0.0408320              -1.1111
        21                          0.0227687               0.6196
        22                          0.1289430               3.5087
        23                          0.1458326               3.9683
        24                          0.1506999               4.1008
        25                          0.1512206               4.1149
        26                          0.1520761               4.1382
        27                          0.1525874               4.1521
        28                          0.1531426               4.1672
        29                          0.1544859               4.2038
       ...                                ...                  ...
        35                          0.9191549              25.0115
      -------------------------------------------------------------
                  HL-Gap            0.1706159 Eh            4.6427 eV
             Fermi-level           -0.1319586 Eh           -3.5908 eV

     #   Z          covCN         q      C6AA      α(0)
     1   6 C        3.653     0.099    19.229     6.297
     2   6 C        2.680     0.383    20.511     7.411
     3  17 Cl       1.062    -0.227   106.364    15.778
     4   1 H        0.925     0.038     2.474     2.460
     5  17 Cl       1.060    -0.228   106.394    15.781
     6   8 O        0.856    -0.520    24.244     6.602
     7   8 O        0.857    -0.545    24.802     6.677

 Mol. C6AA /au·bohr⁶  :       1674.301182
 Mol. C8AA /au·bohr⁸  :      53201.373031
 Mol. α(0) /au        :         61.005221


Wiberg/Mayer (AO) data.
largest (>0.10) Wiberg bond orders for each atom

 ---------------------------------------------------------------------------
     #   Z sym  total        # sym  WBO       # sym  WBO       # sym  WBO
 ---------------------------------------------------------------------------
     1   6 C    3.772 --     4 H    0.980     3 Cl   0.941     5 Cl   0.940
                             2 C    0.761
     2   6 C    3.948 --     6 O    1.603     7 O    1.561     1 C    0.761
     3  17 Cl   1.022 --     1 C    0.941
     4   1 H    0.999 --     1 C    0.980
     5  17 Cl   1.022 --     1 C    0.940
     6   8 O    1.947 --     2 C    1.603     7 O    0.249
     7   8 O    1.924 --     2 C    1.561     6 O    0.249
 ---------------------------------------------------------------------------

Topologies differ in total number of bonds
Writing topology from bond orders to xtbtopo.mol

molecular dipole:
                 x           y           z       tot (Debye)
 q only:        1.113       1.010       0.743
   full:        1.187       0.921       0.595       4.106
molecular quadrupole (traceless):
                xx          xy          yy          xz          yz          zz
 q only:        2.144      -0.816       1.451       0.951      -4.027      -3.594
  q+dip:        2.455      -2.072       2.754       2.219      -5.102      -5.209
   full:        3.086      -0.918       2.765       1.882      -4.686      -5.851

           -------------------------------------------------
          |                Geometry Summary                 |
           -------------------------------------------------

      molecular mass/u    :      127.9340976
   center of mass at/Å    :       -0.5648455      -0.5583217       0.6343405
  moments of inertia/u·Å² :        0.1907596E+03   0.2567277E+03   0.3603195E+03
rotational constants/cm⁻¹ :        0.8837106E-01   0.6566348E-01   0.4678523E-01

 * 5 selected distances

     #   Z          #   Z                                           value/Å
     1   6 C        3  17 Cl                                      1.7668432
     1   6 C        4   1 H                                       1.0925695 (min)
     1   6 C        5  17 Cl                                      1.7684056 (max)
     2   6 C        6   8 O                                       1.2164532
     2   6 C        7   8 O                                       1.2237598

 * 3 distinct bonds (by element types)

   Z      Z             #   av. dist./Å        max./Å        min./Å
   1 H    6 C           1     1.0925695     1.0925695     1.0925695
   6 C    8 O           2     1.2201065     1.2237598     1.2164532
   6 C   17 Cl          2     1.7676244     1.7684056     1.7668432

           -------------------------------------------------
          |               Frequency Printout                |
           -------------------------------------------------
 projected vibrational frequencies (cm⁻¹)
eigval :       -0.00    -0.00    -0.00    -0.00     0.00     0.00
eigval :      -15.41   125.98   169.18   245.01   373.98   624.32
eigval :      641.85   704.36   750.93   753.35  1119.08  1183.84
eigval :     1291.47  1897.96  2944.70
 reduced masses (amu)
   1: 18.90   2: 27.56   3: 22.52   4: 30.02   5: 32.05   6: 26.50   7: 19.83   8: 27.62
   9: 21.49  10: 27.81  11: 23.89  12: 16.54  13: 13.34  14: 13.46  15: 13.57  16: 13.82
  17:  2.94  18:  1.96  19: 15.00  20: 13.19  21:  1.79
 IR intensities (km·mol⁻¹)
   1:  5.39   2:  4.85   3:  8.34   4:  3.12   5:  2.33   6:  5.66   7:  0.62   8:  5.73
   9:  0.38  10:  0.49  11:  1.21  12:  5.56  13:  3.19  14:294.37  15: 16.71  16: 21.20
  17:  0.04  18: 60.76  19:312.27  20:521.57  21:  8.83
 Raman intensities (Ä⁴*amu⁻¹)
   1:  0.00   2:  0.00   3:  0.00   4:  0.00   5:  0.00   6:  0.00   7:  0.00   8:  0.00
   9:  0.00  10:  0.00  11:  0.00  12:  0.00  13:  0.00  14:  0.00  15:  0.00  16:  0.00
  17:  0.00  18:  0.00  19:  0.00  20:  0.00  21:  0.00
 output can be read by thermo (or use thermo option).
 writing <g98.out> molden fake output.
 recommended (thermochemical) frequency scaling factor: 1.0
           -------------------------------------------------
          |             Thermodynamic Functions             |
           -------------------------------------------------

Molecule has no symmetry elements
It seems to be the C1 point group
c1  symmetry found (for desy threshold:  0.10E+00) used in thermo
 inverting freq            1   15.4089812562230     

          ...................................................
          :                      SETUP                      :
          :.................................................:
          :  # frequencies                          15      :
          :  # imaginary freq.                       0      :
          :  linear?                             false      :
          :  only rotor calc.                    false      :
          :  symmetry                               c1      :
          :  rotational number                       1      :
          :  scaling factor                  1.0000000      :
          :  rotor cutoff                   50.0000000 cm⁻¹ :
          :  imag. cutoff                  -20.0000000 cm⁻¹ :
          :.................................................:

    mode    ω/cm⁻¹     T·S(HO)/kcal·mol⁻¹    T·S(FR)/kcal·mol⁻¹   T·S(vib)
   ------------------------------------------------------------------------
       1     15.41    -2.13240 (  0.89%)    -1.40405 ( 99.11%)    -1.41056
       2    125.98    -0.89641 ( 97.58%)    -0.78266 (  2.42%)    -0.89366
       3    169.18    -0.72885 ( 99.24%)    -0.69534 (  0.76%)    -0.72860
       4    245.01    -0.52660 ( 99.83%)    -0.58567 (  0.17%)    -0.52670
   ------------------------------------------------------------------------

   temp. (K)  partition function   enthalpy   heat capacity  entropy
                                   cal/mol     cal/K/mol   cal/K/mol   J/K/mol
 298.15  VIB   115.                 2304.221     12.938     14.729
         ROT  0.321E+06              888.752      2.981     28.177
         INT  0.369E+08             3192.973     15.918     42.906
         TR   0.140E+28             1481.254      4.968     40.434
         TOT                        4674.2268    20.8866    83.3397   348.6933

       T/K    H(0)-H(T)+PV         H(T)/Eh          T*S/Eh         G(T)/Eh
   ------------------------------------------------------------------------
    298.15    0.744885E-02    0.367037E-01    0.395974E-01   -0.289364E-02
   ------------------------------------------------------------------------

         :::::::::::::::::::::::::::::::::::::::::::::::::::::
         ::                  THERMODYNAMIC                  ::
         :::::::::::::::::::::::::::::::::::::::::::::::::::::
         :: total free energy         -22.282031225128 Eh   ::
         ::.................................................::
         :: total energy              -22.279137585692 Eh   ::
         :: zero point energy           0.029254887584 Eh   ::
         :: G(RRHO) w/o ZPVE           -0.032148527020 Eh   ::
         :: G(RRHO) contrib.           -0.002893639436 Eh   ::
         :::::::::::::::::::::::::::::::::::::::::::::::::::::
imag cut-off (cm-1) :    5.00
 found            1  significant imaginary frequency
 writing imag mode distorted coords to xtbhess.xyz
 for further optimization.

optimized geometry written to: xtbopt.xyz


           -------------------------------------------------
          | TOTAL ENERGY              -22.279137585692 Eh   |
          | TOTAL ENTHALPY            -22.242433843530 Eh   |
          | TOTAL FREE ENERGY         -22.282031225128 Eh   |
          | GRADIENT NORM               0.000990880405 Eh/α |
          | HOMO-LUMO GAP               4.642695907776 eV   |
           -------------------------------------------------

------------------------------------------------------------------------
 * finished run on 2025/10/18 at 21:14:36.516     
------------------------------------------------------------------------
 total:
 * wall-time:     0 d,  0 h,  0 min,  1.603 sec
 *  cpu-time:     0 d,  0 h,  0 min,  1.053 sec
 * ratio c/w:     0.657 speedup
 SCF:
 * wall-time:     0 d,  0 h,  0 min,  0.032 sec
 *  cpu-time:     0 d,  0 h,  0 min,  0.045 sec
 * ratio c/w:     1.403 speedup
 ANC optimizer:
 * wall-time:     0 d,  0 h,  0 min,  0.939 sec
 *  cpu-time:     0 d,  0 h,  0 min,  0.467 sec
 * ratio c/w:     0.497 speedup
 analytical hessian:
 * wall-time:     0 d,  0 h,  0 min,  0.204 sec
 *  cpu-time:     0 d,  0 h,  0 min,  0.325 sec
 * ratio c/w:     1.588 speedup

