7
 energy: -22.201599652933 gnorm: 0.095736044183 xtb: 6.7.1 (edcfbbe)
C           -0.23500286415981       -0.96774480098512        1.53052034057789
C           -0.42493347762564       -0.74336725895159       -1.53796872580231
Cl          -1.88448664182743       -1.22745371379305        1.81719314449317
H            0.42495548254918       -1.80661007322228        1.66823022128167
Cl           0.40239361015710        0.57337471153445        1.82908561408633
O           -1.10790727648458        0.17171863626229       -1.47741993740330
O            0.25769516739119       -1.65882250084469       -1.61386865723347
7
 energy: -22.233970191674 gnorm: 0.056977333904 xtb: 6.7.1 (edcfbbe)
C           -0.23623573126082       -0.96421094188323        1.22581976360092
C           -0.42362871180515       -0.74496481097157       -1.51079759467013
Cl          -1.85064366286993       -1.22937273688040        1.88908052881902
H            0.39530133993467       -1.76966769579490        1.77337659183016
Cl           0.39559245488388        0.53962095049765        1.90115170834241
O           -1.11284717295200        0.17877234849150       -1.45723033786457
O            0.26517548406937       -1.66908211345903       -1.60562866005783
7
 energy: -22.238232578342 gnorm: 0.039646977708 xtb: 6.7.1 (edcfbbe)
C           -0.25562033423985       -0.93887190595469        1.10507058866464
C           -0.41242531693027       -0.75874780008480       -1.44822707947961
Cl          -1.85177302100104       -1.24065796154967        1.98721769981351
H            0.37461607110217       -1.74189701484950        1.54771414243729
Cl           0.40514312845206        0.53748929198997        2.00139979815925
O           -1.10000809714250        0.16356962711939       -1.39330585732350
O            0.27278156975951       -1.67978923667062       -1.58409729227158
7
 energy: -22.241165000895 gnorm: 0.044314297933 xtb: 6.7.1 (edcfbbe)
C           -0.25358082187023       -0.94169564801814        1.10725657053489
C           -0.41494508547240       -0.75657317277600       -1.37298351962729
Cl          -1.86524839418869       -1.25364974678236        1.91835769201314
H            0.37846318898455       -1.74627708278784        1.49689370837515
Cl           0.42002686815136        0.54786224850367        1.93398247314028
O           -1.10218836143565        0.16814050654715       -1.37232453589380
O            0.27018660583113       -1.67671210468642       -1.49541038854241
7
 energy: -22.247977709139 gnorm: 0.062493113306 xtb: 6.7.1 (edcfbbe)
C           -0.25557797445372       -0.93931925736892        1.05640262988175
C           -0.41411451466989       -0.75905531517843       -1.19441370997663
Cl          -1.88851708950082       -1.27483941143574        1.77813093638721
H            0.37797641977953       -1.74503086168569        1.42624677303460
Cl           0.44461056242756        0.56617514517907        1.79470290138452
O           -1.10061636620308        0.17012490715944       -1.25953045448331
O            0.26895296262048       -1.67696020666966       -1.38576707622821
7
 energy: -22.256344262927 gnorm: 0.080089046029 xtb: 6.7.1 (edcfbbe)
C           -0.25874898826458       -0.93585413332797        0.99717025369104
C           -0.40939342343730       -0.76545065440257       -1.02437585820570
Cl          -1.90432361198841       -1.28372573766639        1.67306185364338
H            0.37605162680383       -1.74219262449323        1.33270619052031
Cl           0.45565967601548        0.57982999889366        1.68783387354509
O           -1.09674001985475        0.17033658587751       -1.14130270353075
O            0.27020874072579       -1.68184843488092       -1.30932160966346
7
 energy: -22.264575265776 gnorm: 0.077170748670 xtb: 6.7.1 (edcfbbe)
C           -0.25857380730035       -0.93747895527619        0.96016390244339
C           -0.40560521875431       -0.76893334257832       -0.88769086140417
Cl          -1.91200572236677       -1.28612457328518        1.60049268209535
H            0.37856243339697       -1.74549962726618        1.26896780795313
Cl           0.45870646322564        0.58682776329437        1.60975887256300
O           -1.09637494948137        0.17646959155486       -1.09122952207503
O            0.26800480128026       -1.68416585644327       -1.24469088157578
7
 energy: -22.238531503072 gnorm: 0.211207323751 xtb: 6.7.1 (edcfbbe)
C           -0.26616224297378       -0.92982080448093        0.97577061853327
C           -0.37745122419453       -0.79142322478234       -0.59483550239133
Cl          -1.90014884934637       -1.25426329365784        1.58157599359210
H            0.38768092996861       -1.75704896036525        1.21685151028034
Cl           0.42501590911627        0.58263569227340        1.58292315645607
O           -1.10111172247483        0.18281026584392       -1.12879235635338
O            0.26489119990470       -1.69179467483085       -1.41772142011716
7
 energy: -22.277165342941 gnorm: 0.042623131474 xtb: 6.7.1 (edcfbbe)
C           -0.26402904144588       -0.93213802007533        0.91427275525882
C           -0.39055694133897       -0.78188437755881       -0.72667502049633
Cl          -1.89017632322516       -1.25497951637459        1.58873308780463
H            0.38300918390599       -1.75200509849127        1.22355598261457
Cl           0.42349092553873        0.57271912793824        1.59022540220841
O           -1.08864982496572        0.16505499359313       -1.07374451308019
O            0.25962602153108       -1.67567210903124       -1.30059569431001
7
 energy: -22.272534914380 gnorm: 0.111789659757 xtb: 6.7.1 (edcfbbe)
C           -0.26171112404037       -0.93470356660004        0.89562722448672
C           -0.39663024311641       -0.77259985605974       -0.75419510344717
Cl          -1.85849990580194       -1.24573150250403        1.64613931757309
H            0.38665119416294       -1.75872412793532        1.21774743112079
Cl           0.40942021351932        0.54291189496886        1.65131566852331
O           -1.10125386502999        0.16522520237674       -1.21758054852942
O            0.25473773030656       -1.65528304424638       -1.22328198972746
7
 energy: -22.278336009314 gnorm: 0.026484755648 xtb: 6.7.1 (edcfbbe)
C           -0.27026497055037       -0.92347698803842        0.88340489510043
C           -0.39062113245584       -0.78184193046529       -0.72082313508055
Cl          -1.86317687358510       -1.24082623761651        1.61493082264075
H            0.37996842030570       -1.75046361576046        1.17057918612763
Cl           0.40644445343719        0.54888386872253        1.62126450605493
O           -1.08663763465626        0.14530710350101       -1.09076339220055
O            0.25700173750480       -1.65648720034274       -1.26282088264274
7
 energy: -22.272715276893 gnorm: 0.062058638152 xtb: 6.7.1 (edcfbbe)
C           -0.26786208658691       -0.92691281606627        0.98468255467447
C           -0.39058527218314       -0.77947994084332       -0.84468667624042
Cl          -1.86615240167054       -1.23677759965689        1.67880544129405
H            0.38298487427189       -1.75333321277930        1.28536789859333
Cl           0.40241067172167        0.55351974125997        1.68083388759232
O           -1.09015402040037        0.15010096887850       -1.15522380016937
O            0.26207223484750       -1.66602214079258       -1.41400730574444
7
 energy: -22.278644950839 gnorm: 0.010282185487 xtb: 6.7.1 (edcfbbe)
C           -0.27013636903266       -0.92418103198262        0.92114142898739
C           -0.39076867994525       -0.78014038480666       -0.76460039671340
Cl          -1.85929040244093       -1.23878763614126        1.64178681403560
H            0.38095666712937       -1.75116177979804        1.21643907543083
Cl           0.40260652021084        0.54626163713686        1.64481491196773
O           -1.08726090601066        0.14566146373249       -1.12782502613116
O            0.25660717008940       -1.65655726814064       -1.31598480757709
7
 energy: -22.278824922148 gnorm: 0.013774231640 xtb: 6.7.1 (edcfbbe)
C           -0.27370989185904       -0.91964376255824        0.89565621516597
C           -0.39004428010246       -0.78123423145662       -0.70425376611083
Cl          -1.85888837573937       -1.24209645562552        1.61545122443217
H            0.38032119431251       -1.75004686168130        1.16386122465754
Cl           0.40522780524070        0.54537165749453        1.62002255105059
O           -1.08674448195221        0.14323724386842       -1.10389823907207
O            0.25655203009999       -1.65449259004116       -1.27106721012348
7
 energy: -22.279098856689 gnorm: 0.004777132934 xtb: 6.7.1 (edcfbbe)
C           -0.27332638115944       -0.92009027242904        0.90922144482769
C           -0.39080226669561       -0.78034140454250       -0.73322496073978
Cl          -1.85739073715683       -1.24097693079329        1.62986109372125
H            0.38069209318344       -1.75029697684688        1.18243955952592
Cl           0.40346584461254        0.54443619529251        1.63428430863391
O           -1.08493710030261        0.14349363412559       -1.11695450450395
O            0.25501254751863       -1.65512924480628       -1.28985494146515
7
 energy: -22.279115186468 gnorm: 0.004069260751 xtb: 6.7.1 (edcfbbe)
C           -0.27433268309351       -0.91900706462670        0.90820821026288
C           -0.39100015355910       -0.77989199535650       -0.73025677363713
Cl          -1.85651477503054       -1.24211930756676        1.63108834909687
H            0.38054583798019       -1.74970374960334        1.17863398976535
Cl           0.40360914544458        0.54369916966340        1.63464712141454
O           -1.08398403755215        0.14355293883398       -1.11863566114047
O            0.25439066581063       -1.65543499134396       -1.28791323576215
7
 energy: -22.279130495062 gnorm: 0.002727751134 xtb: 6.7.1 (edcfbbe)
C           -0.27584942130238       -0.91656808575776        0.90740811812381
C           -0.39224390711699       -0.77887433424439       -0.72767840577531
Cl          -1.85443683014096       -1.24467572230975        1.63204328276691
H            0.38051779725353       -1.74830628377266        1.17294356324607
Cl           0.40385390793459        0.54224780841738        1.63870377965067
O           -1.08126483606188        0.14406467256148       -1.12338190464007
O            0.25213728943419       -1.65679305489419       -1.28426643337218
7
 energy: -22.279135447361 gnorm: 0.002063425918 xtb: 6.7.1 (edcfbbe)
C           -0.27787866403624       -0.91556546761397        0.90752142886192
C           -0.39237575945109       -0.77731366932669       -0.72813290220560
Cl          -1.85339187886956       -1.24742550169180        1.63960465810414
H            0.38034965647211       -1.74730986864925        1.16882830713192
Cl           0.40382592126704        0.54149305570372        1.63773880315679
O           -1.07865580225668        0.14540870509794       -1.12772821050330
O            0.25084052687451       -1.65819225351983       -1.28206008454597
7
 energy: -22.279137583293 gnorm: 0.000997255343 xtb: 6.7.1 (edcfbbe)
C           -0.27791832574195       -0.91309393628777        0.90804607242672
C           -0.39489580390081       -0.77663197605762       -0.73007131450971
Cl          -1.85181694062699       -1.25050891698746        1.63655722175080
H            0.38096916411110       -1.74563782783893        1.16581698424551
Cl           0.40425470106029        0.54116692137805        1.64765608754336
O           -1.07521297408877        0.14772431678359       -1.13317435793953
O            0.24733417918723       -1.66192358098974       -1.27905869351725
