 Entering Gaussian System
 *********************************************
 Gaussian 98:
 frequency output generated by the xtb code
 *********************************************
                         Standard orientation:
 --------------------------------------------------------------------
  Center     Atomic     Atomic              Coordinates (Angstroms)
  Number     Number      Type              X           Y           Z
 --------------------------------------------------------------------
    1          6             0       -7.046857   -4.537226    1.577081
    2          6             0       -8.052839   -3.387717    1.588896
    3          8             0       -7.544405   -5.733883    1.011678
    4          1             0       -6.138388   -4.235538    1.033645
    5          1             0       -6.782274   -4.844009    2.595515
    6          8             0       -7.674281   -5.621709   -0.415438
    7          1             0       -8.362202   -3.196061    0.563522
    8          1             0       -8.927598   -3.670032    2.168533
    9          1             0       -7.590536   -2.500720    2.010394
 --------------------------------------------------------------------
     1 basis functions        1 primitive gaussians
     1 alpha electrons        1 beta electrons
 
 Harmonic frequencies (cm**-1), IR intensities (km*mol⁻¹),
 Raman scattering activities (A**4/amu), Raman depolarization ratios,
 reduced masses (AMU), force constants (mDyne/A) and normal coordinates:
                      1                      2                      3
                        a                      a                      a 
 Frequencies --   121.8998               192.5481               338.3758
 Red. masses --    11.8412                 2.2861                10.6614
 Frc consts  --     0.0000                 0.0000                 0.0000
 IR Inten    --     9.5835                 2.7984                25.1986
 Raman Activ --     0.0000                 0.0000                 0.0000
 Depolar     --     0.0000                 0.0000                 0.0000
 Atom AN      X      Y      Z        X      Y      Z        X      Y      Z
   1   6     0.03  -0.12   0.24    -0.03  -0.08   0.07    -0.26   0.04   0.22
   2   6    -0.00  -0.15  -0.40    -0.01  -0.07  -0.03     0.02   0.33   0.18
   3   8     0.38  -0.16   0.03    -0.12  -0.03   0.00     0.41  -0.06  -0.25
   4   1     0.09  -0.03   0.20    -0.01  -0.04   0.00     0.03   0.07   0.27
   5   1    -0.14  -0.03   0.11     0.00  -0.02   0.02    -0.26  -0.09   0.08
   6   8    -0.39   0.44   0.15     0.15   0.19  -0.01    -0.18  -0.37  -0.22
   7   1     0.12  -0.13  -0.17    -0.37  -0.42   0.02    -0.04   0.09   0.06
   8   1    -0.07  -0.01  -0.20     0.21   0.21   0.42     0.01   0.26   0.14
   9   1    -0.06  -0.00  -0.13     0.15   0.15  -0.53     0.16   0.06  -0.04
                      4                      5                      6
                        a                      a                      a 
 Frequencies --   469.2096               810.0316               895.3747
 Red. masses --    10.9198                 3.2570                 9.7876
 Frc consts  --     0.0000                 0.0000                 0.0000
 IR Inten    --     9.7538                 6.4384                22.1968
 Raman Activ --     0.0000                 0.0000                 0.0000
 Depolar     --     0.0000                 0.0000                 0.0000
 Atom AN      X      Y      Z        X      Y      Z        X      Y      Z
   1   6    -0.33  -0.11  -0.31     0.00   0.02   0.34    -0.35  -0.17  -0.16
   2   6    -0.03   0.24   0.00    -0.04   0.06   0.14     0.07  -0.39  -0.02
   3   8     0.17  -0.52   0.11    -0.01  -0.11  -0.04     0.15   0.53   0.02
   4   1    -0.18  -0.02  -0.23    -0.28   0.18  -0.28    -0.13   0.16  -0.02
   5   1     0.07   0.11  -0.09     0.48  -0.04  -0.06     0.01  -0.10  -0.08
   6   8     0.13   0.29   0.20    -0.03  -0.04  -0.18     0.01  -0.04   0.18
   7   1    -0.03   0.25   0.04     0.34  -0.25  -0.13     0.15  -0.01  -0.03
   8   1    -0.02   0.20   0.04    -0.23   0.29  -0.18    -0.08   0.21  -0.01
   9   1     0.20  -0.07   0.06    -0.04   0.11  -0.13     0.35  -0.26  -0.03
                      7                      8                      9
                        a                      a                      a 
 Frequencies --  1000.4012              1065.6433              1088.6024
 Red. masses --    10.2587                11.2406                 8.7638
 Frc consts  --     0.0000                 0.0000                 0.0000
 IR Inten    --    19.0508                25.3386                26.3387
 Raman Activ --     0.0000                 0.0000                 0.0000
 Depolar     --     0.0000                 0.0000                 0.0000
 Atom AN      X      Y      Z        X      Y      Z        X      Y      Z
   1   6    -0.08   0.23   0.21    -0.33   0.54   0.05     0.41   0.20   0.18
   2   6     0.09  -0.26  -0.13     0.40  -0.23   0.06    -0.28  -0.13  -0.13
   3   8    -0.00  -0.08   0.40    -0.08  -0.23  -0.33    -0.20  -0.16  -0.36
   4   1    -0.06   0.01  -0.03    -0.10   0.11  -0.01     0.07   0.18   0.08
   5   1     0.04   0.40   0.14    -0.11   0.10  -0.01     0.04   0.05   0.05
   6   8    -0.06   0.02  -0.55     0.03  -0.01   0.25     0.02  -0.02   0.25
   7   1    -0.07   0.14   0.04     0.11  -0.18  -0.01    -0.06   0.26   0.02
   8   1     0.09  -0.02   0.08     0.13  -0.21  -0.02    -0.09   0.27   0.08
   9   1     0.23  -0.22   0.07    -0.05   0.03  -0.01     0.33  -0.26   0.03
                     10                     11                     12
                        a                      a                      a 
 Frequencies --  1167.0825              1268.8882              1316.6942
 Red. masses --     7.3339                 3.1063                 3.0928
 Frc consts  --     0.0000                 0.0000                 0.0000
 IR Inten    --     9.8228                 4.7766                31.6592
 Raman Activ --     0.0000                 0.0000                 0.0000
 Depolar     --     0.0000                 0.0000                 0.0000
 Atom AN      X      Y      Z        X      Y      Z        X      Y      Z
   1   6     0.16   0.24  -0.42    -0.03   0.13   0.05    -0.02   0.36   0.11
   2   6    -0.08  -0.12   0.30     0.06   0.05  -0.21    -0.17  -0.01  -0.01
   3   8    -0.08  -0.19   0.28    -0.06  -0.12   0.24     0.09   0.03   0.04
   4   1     0.21   0.12   0.24    -0.07   0.47   0.15     0.06  -0.68  -0.27
   5   1    -0.32  -0.07  -0.05     0.13  -0.67  -0.23    -0.04  -0.43  -0.12
   6   8     0.01   0.06  -0.15     0.01   0.04  -0.11    -0.00   0.00  -0.03
   7   1     0.28  -0.20  -0.05    -0.14   0.10   0.01     0.10  -0.05  -0.05
   8   1    -0.22   0.25  -0.10     0.14  -0.14   0.06     0.01  -0.03   0.05
   9   1     0.06   0.03  -0.13     0.01  -0.05   0.07     0.19  -0.14   0.02
                     13                     14                     15
                        a                      a                      a 
 Frequencies --  1372.4177              1435.9258              1461.7190
 Red. masses --     3.1844                 1.9483                 1.5381
 Frc consts  --     0.0000                 0.0000                 0.0000
 IR Inten    --     9.2300                 8.4345                 0.5122
 Raman Activ --     0.0000                 0.0000                 0.0000
 Depolar     --     0.0000                 0.0000                 0.0000
 Atom AN      X      Y      Z        X      Y      Z        X      Y      Z
   1   6    -0.02  -0.09  -0.05    -0.25   0.08  -0.08     0.01  -0.02   0.05
   2   6    -0.24   0.35   0.02     0.00  -0.07   0.01    -0.06  -0.02   0.20
   3   8    -0.03  -0.01  -0.03    -0.01  -0.03  -0.03     0.00   0.00   0.00
   4   1     0.06   0.11   0.15     0.38  -0.23   0.50    -0.05   0.04  -0.04
   5   1     0.11   0.15   0.02     0.64   0.08  -0.15    -0.03  -0.03   0.01
   6   8     0.00  -0.01   0.01     0.00   0.00   0.02    -0.00  -0.00  -0.00
   7   1     0.25  -0.42  -0.17    -0.03   0.11   0.03     0.02   0.38   0.08
   8   1     0.17  -0.44   0.07    -0.05   0.06  -0.03    -0.07  -0.44  -0.30
   9   1     0.41  -0.24   0.11    -0.04   0.04  -0.07     0.29   0.15  -0.63
                     16                     17                     18
                        a                      a                      a 
 Frequencies --  1496.9555              2830.7785              2894.7021
 Red. masses --     1.5908                 1.7429                 1.6341
 Frc consts  --     0.0000                 0.0000                 0.0000
 IR Inten    --     0.9643               139.6862               109.7407
 Raman Activ --     0.0000                 0.0000                 0.0000
 Depolar     --     0.0000                 0.0000                 0.0000
 Atom AN      X      Y      Z        X      Y      Z        X      Y      Z
   1   6    -0.02  -0.04  -0.01     0.19   0.06  -0.16    -0.07   0.07  -0.21
   2   6    -0.18  -0.12  -0.06     0.00  -0.00  -0.00    -0.00   0.00   0.01
   3   8     0.00   0.00   0.00     0.01   0.02  -0.00    -0.01  -0.01  -0.01
   4   1    -0.01   0.03   0.00    -0.79  -0.26   0.48     0.08   0.04  -0.09
   5   1    -0.01   0.02   0.01     0.06  -0.02   0.08     0.21  -0.27   0.90
   6   8    -0.00   0.00  -0.00    -0.00  -0.00   0.00    -0.00  -0.00   0.00
   7   1     0.60   0.33  -0.13    -0.00   0.00  -0.01    -0.01   0.01  -0.03
   8   1     0.33  -0.01   0.51     0.02   0.00  -0.01     0.01   0.00  -0.00
   9   1    -0.21   0.16  -0.14     0.00   0.01   0.01    -0.01  -0.01  -0.00
                     19                     20                     21
                        a                      a                      a 
 Frequencies --  3030.7600              3035.0488              3041.6944
 Red. masses --     1.8770                 1.3203                 1.9452
 Frc consts  --     0.0000                 0.0000                 0.0000
 IR Inten    --    50.9803                27.2738                64.2125
 Raman Activ --     0.0000                 0.0000                 0.0000
 Depolar     --     0.0000                 0.0000                 0.0000
 Atom AN      X      Y      Z        X      Y      Z        X      Y      Z
   1   6    -0.00  -0.01   0.02     0.00  -0.00  -0.01    -0.01  -0.00  -0.00
   2   6    -0.02  -0.08   0.27     0.06  -0.12  -0.10    -0.23  -0.17  -0.05
   3   8     0.00  -0.00   0.00     0.00  -0.00   0.00     0.00  -0.00  -0.00
   4   1     0.01   0.00  -0.01    -0.00  -0.00   0.00     0.02   0.01  -0.01
   5   1    -0.01   0.01  -0.03     0.00  -0.00   0.01     0.00  -0.00   0.01
   6   8     0.00   0.00  -0.00     0.00   0.00  -0.00     0.00   0.00   0.00
   7   1    -0.26   0.15  -0.83    -0.06   0.03  -0.23     0.06  -0.08   0.30
   8   1     0.32   0.10  -0.18    -0.49  -0.18   0.32     0.51   0.16  -0.37
   9   1     0.01   0.03   0.06     0.33   0.59   0.28     0.26   0.51   0.25
