      -----------------------------------------------------------      
     |                   =====================                   |     
     |                           x T B                           |     
     |                   =====================                   |     
     |                         S. Grimme                         |     
     |          Mulliken Center for Theoretical Chemistry        |     
     |                    University of Bonn                     |     
      -----------------------------------------------------------      

   * xtb version 6.7.1 (edcfbbe) compiled by 'albert@albert-system' on 2024-07-22

   xtb is free software: you can redistribute it and/or modify it under
   the terms of the GNU Lesser General Public License as published by
   the Free Software Foundation, either version 3 of the License, or
   (at your option) any later version.
   
   xtb is distributed in the hope that it will be useful,
   but WITHOUT ANY WARRANTY; without even the implied warranty of
   MERCHANTABILITY or FITNESS FOR A PARTICULAR PURPOSE.  See the
   GNU Lesser General Public License for more details.
   
   Cite this work as:
   * C. Bannwarth, E. Caldeweyher, S. Ehlert, A. Hansen, P. Pracht,
     J. Seibert, S. Spicher, S. Grimme, WIREs Comput. Mol. Sci., 2020, 11,
     e01493. DOI: 10.1002/wcms.1493
   
   for GFN2-xTB:
   * C. Bannwarth, S. Ehlert and S. Grimme., J. Chem. Theory Comput., 2019,
     15, 1652-1671. DOI: 10.1021/acs.jctc.8b01176
   for GFN1-xTB:
   * S. Grimme, C. Bannwarth, P. Shushkov, J. Chem. Theory Comput., 2017,
     13, 1989-2009. DOI: 10.1021/acs.jctc.7b00118
   for GFN0-xTB:
   * P. Pracht, E. Caldeweyher, S. Ehlert, S. Grimme, ChemRxiv, 2019, preprint.
     DOI: 10.26434/chemrxiv.8326202.v1
   for GFN-FF:
   * S. Spicher and S. Grimme, Angew. Chem. Int. Ed., 2020, 59, 15665-15673.
     DOI: 10.1002/anie.202004239
   
   for ALPB and GBSA implicit solvation:
   * S. Ehlert, M. Stahn, S. Spicher, S. Grimme, J. Chem. Theory Comput.,
     2021, 17, 4250-4261. DOI: 10.1021/acs.jctc.1c00471
   
   for ddCOSMO and CPCM-X implicit solvation:
   * M. Stahn, S. Ehlert, S. Grimme, J. Phys. Chem. A,
     2023, XX, XXXX-XXXX. DOI: 10.1021/acs.jpca.3c04382
   
   for DFT-D4:
   * E. Caldeweyher, C. Bannwarth and S. Grimme, J. Chem. Phys., 2017,
     147, 034112. DOI: 10.1063/1.4993215
   * E. Caldeweyher, S. Ehlert, A. Hansen, H. Neugebauer, S. Spicher,
     C. Bannwarth and S. Grimme, J. Chem. Phys., 2019, 150, 154122.
     DOI: 10.1063/1.5090222
   * E. Caldeweyher, J.-M. Mewes, S. Ehlert and S. Grimme, Phys. Chem. Chem. Phys.
     2020, 22, 8499-8512. DOI: 10.1039/D0CP00502A
   
   for sTDA-xTB:
   * S. Grimme and C. Bannwarth, J. Chem. Phys., 2016, 145, 054103.
     DOI: 10.1063/1.4959605
   
   in the mass-spec context:
   * V. Asgeirsson, C. Bauer and S. Grimme, Chem. Sci., 2017, 8, 4879.
     DOI: 10.1039/c7sc00601b
   * J. Koopman and S. Grimme, ACS Omega 2019, 4, 12, 15120-15133.
     DOI: 10.1021/acsomega.9b02011
   
   for metadynamics refer to:
   * S. Grimme, J. Chem. Theory Comput., 2019, 155, 2847-2862
     DOI: 10.1021/acs.jctc.9b00143
   
   for SPH calculations refer to:
   * S. Spicher and S. Grimme, J. Chem. Theory Comput., 2021, 17, 1701-1714
     DOI: 10.1021/acs.jctc.0c01306
   
   for ONIOM refer to:
   * C. Plett, A. Katbashev, S. Ehlert, S. Grimme, M. Bursch,
     Phys. Chem. Chem. Phys., 2023, 25, 17860-17868. DOI: 10.1039/D3CP02178E
   
   for DIPRO refer to:
   * J. Kohn, N. Gildemeister, S. Grimme, D. Fazzi, A. Hansen,
     J. Chem. Phys., 2023, just accepted.
   
   for PTB refer to:
   * S. Grimme, M. Mueller, A. Hansen, J. Chem. Phys., 2023, 158, 124111.
     DOI: 10.1063/5.0137838
   
   with help from (in alphabetical order)
   P. Atkinson, C. Bannwarth, F. Bohle, G. Brandenburg, E. Caldeweyher
   M. Checinski, S. Dohm, S. Ehlert, S. Ehrlich, I. Gerasimov, C. Hölzer
   A. Katbashev, J. Kohn, J. Koopman, C. Lavigne, S. Lehtola, F. März, M. Müller,
   F. Musil, H. Neugebauer, J. Pisarek, C. Plett, P. Pracht, F. Pultar,
   J. Seibert, P. Shushkov, S. Spicher, M. Stahn, M. Steiner, T. Strunk,
   J. Stückrath, T. Rose, and J. Unsleber
   
 * started run on 2025/10/18 at 02:41:37.789     
   ID    Z sym.   atoms
    1    6 C      1, 2
    2    8 O      3, 6
    3    1 H      4, 5, 7-9

           -------------------------------------------------
          |                Calculation Setup                |
           -------------------------------------------------

          program call               : xtb xyz.xyz --alpb water --charge -1 --ohess
          hostname                   : m003
          coordinate file            : xyz.xyz
          omp threads                :                     2


           -------------------------------------------------
          |                 G F N 2 - x T B                 |
           -------------------------------------------------

        Reference                      10.1021/acs.jctc.8b01176
      * Hamiltonian:
        H0-scaling (s, p, d)           1.850000    2.230000    2.230000
        zeta-weighting                 0.500000
      * Dispersion:
        s8                             2.700000
        a1                             0.520000
        a2                             5.000000
        s9                             5.000000
      * Repulsion:
        kExp                           1.500000    1.000000
        rExp                           1.000000
      * Coulomb:
        alpha                          2.000000
        third order                    shell-resolved
        anisotropic                    true
        a3                             3.000000
        a5                             4.000000
        cn-shift                       1.200000
        cn-exp                         4.000000
        max-rad                        5.000000

      * Solvation model:               ALPB
        Solvent                        water
        Parameter file                 internal GFN2-xTB/ALPB
        Dielectric constant                8.0200E+01
        Reference state                gsolv [1 M gas/solution]
        Free energy shift                  1.0808E-03 Eh       6.7819E-01 kcal/mol
        Temperature                        2.9815E+02 K
        Density                            1.0000E+00 kg/L
        Solvent mass                       1.8000E+01 g/mol
        Interaction kernel             P16
        Born radius scaling (c1)           1.4744E+00
        Born radii integrator          GBOBC
        Born offset                        0.0000E+00 a0       0.0000E+00 AA
        H-bond correction              true
        Ion screening                  false
        Surface tension                    1.0000E-05 Eh       1.5569E+01 dyn/cm
        Grid points                               230 per atom

          ...................................................
          :                      SETUP                      :
          :.................................................:
          :  # basis functions                  21          :
          :  # atomic orbitals                  21          :
          :  # shells                           13          :
          :  # electrons                        26          :
          :  max. iterations                   250          :
          :  Hamiltonian                  GFN2-xTB          :
          :  restarted?                      false          :
          :  GBSA solvation                   true          :
          :  PC potential                    false          :
          :  electronic temp.          300.0000000     K    :
          :  accuracy                    1.0000000          :
          :  -> integral cutoff          0.2500000E+02      :
          :  -> integral neglect         0.1000000E-07      :
          :  -> SCF convergence          0.1000000E-05 Eh   :
          :  -> wf. convergence          0.1000000E-03 e    :
          :  Broyden damping             0.4000000          :
          :  net charge                         -1          :
          :  unpaired electrons                  0          :
          ...................................................

 iter      E             dE          RMSdq      gap      omega  full diag
   1    -15.2036326 -0.152036E+02  0.545E+00    7.46       0.0  T
   2    -15.2706744 -0.670418E-01  0.285E+00    7.63       1.0  T
   3    -15.2726752 -0.200079E-02  0.131E+00    7.51       1.0  T
   4    -15.2729446 -0.269414E-03  0.235E-01    7.48       1.0  T
   5    -15.2730045 -0.599150E-04  0.112E-01    7.51       1.0  T
   6    -15.2730199 -0.153892E-04  0.508E-02    7.52       1.0  T
   7    -15.2730274 -0.752160E-05  0.168E-02    7.52       2.0  T
   8    -15.2730284 -0.104611E-05  0.459E-03    7.52       7.3  T
   9    -15.2730285 -0.673058E-07  0.167E-03    7.52      20.0  T
  10    -15.2730285 -0.331843E-08  0.334E-04    7.52      99.7  T
  11    -15.2730285 -0.376792E-09  0.145E-04    7.52     229.9  T

   *** convergence criteria satisfied after 11 iterations ***

         #    Occupation            Energy/Eh            Energy/eV
      -------------------------------------------------------------
         1        2.0000           -0.6651608             -18.0999
       ...           ...                  ...                  ...
         7        2.0000           -0.4991995             -13.5839
         8        2.0000           -0.4670220             -12.7083
         9        2.0000           -0.4563809             -12.4188
        10        2.0000           -0.4281783             -11.6513
        11        2.0000           -0.4220979             -11.4859
        12        2.0000           -0.3294499              -8.9648
        13        2.0000           -0.3099722              -8.4348 (HOMO)
        14                         -0.0334505              -0.9102 (LUMO)
        15                          0.0908953               2.4734
        16                          0.1343734               3.6565
        17                          0.1527907               4.1576
        18                          0.1632693               4.4428
       ...                                ...                  ...
        21                          0.2711276               7.3778
      -------------------------------------------------------------
                  HL-Gap            0.2765217 Eh            7.5245 eV
             Fermi-level           -0.1717113 Eh           -4.6725 eV

 SCC (total)                   0 d,  0 h,  0 min,  0.026 sec
 SCC setup                      ...        0 min,  0.000 sec (  1.463%)
 Dispersion                     ...        0 min,  0.000 sec (  0.383%)
 classical contributions        ...        0 min,  0.000 sec (  0.153%)
 integral evaluation            ...        0 min,  0.001 sec (  2.167%)
 iterations                     ...        0 min,  0.024 sec ( 92.624%)
 molecular gradient             ...        0 min,  0.001 sec (  2.681%)
 printout                       ...        0 min,  0.000 sec (  0.392%)

         :::::::::::::::::::::::::::::::::::::::::::::::::::::
         ::                     SUMMARY                     ::
         :::::::::::::::::::::::::::::::::::::::::::::::::::::
         :: total energy             -15.169705953870 Eh    ::
         :: total w/o Gsasa/hb       -15.171332599408 Eh    ::
         :: gradient norm              0.043133824005 Eh/a0 ::
         :: HOMO-LUMO gap              7.524538625799 eV    ::
         ::.................................................::
         :: SCC energy               -15.273027680829 Eh    ::
         :: -> isotropic ES            0.271658510819 Eh    ::
         :: -> anisotropic ES         -0.017686959193 Eh    ::
         :: -> anisotropic XC         -0.006028157644 Eh    ::
         :: -> dispersion             -0.003873440704 Eh    ::
         :: -> Gsolv                  -0.138707148725 Eh    ::
         ::    -> Gelec               -0.140333794263 Eh    ::
         ::    -> Gsasa                0.003479414608 Eh    ::
         ::    -> Ghb                 -0.002933528768 Eh    ::
         ::    -> Gshift               0.001080759698 Eh    ::
         :: repulsion energy           0.103321726959 Eh    ::
         :: add. restraining           0.000000000000 Eh    ::
         :: total charge              -1.000000000000 e     ::
         :::::::::::::::::::::::::::::::::::::::::::::::::::::

      ----------------------------------------------------------- 
     |                   =====================                   |
     |                        A N C O P T                        |
     |                   =====================                   |
     |               Approximate Normal Coordinate               |
     |                Rational Function Optimizer                |
      ----------------------------------------------------------- 
      ----------------------------------------------------------- 
     |                   =====================                   |
     |                        A N C O P T                        |
     |                   =====================                   |
     |               Approximate Normal Coordinate               |
     |                Rational Function Optimizer                |
      ----------------------------------------------------------- 

          ...................................................
          :                      SETUP                      :
          :.................................................:
          :   optimization level            normal          :
          :   max. optcycles                   200          :
          :   ANC micro-cycles                  20          :
          :   degrees of freedom                21          :
          :.................................................:
          :   RF solver                   davidson          :
          :   write xtbopt.log                true          :
          :   linear?                        false          :
          :   energy convergence         0.5000000E-05 Eh   :
          :   grad. convergence          0.1000000E-02 Eh/α :
          :   maxmium RF displ.          1.0000000          :
          :   Hlow (freq-cutoff)         0.1000000E-01      :
          :   Hmax (freq-cutoff)         5.0000000          :
          :   S6 in model hess.         20.0000000          :
          ...................................................

generating ANC from exact Hessian ...
Using Lindh-Hessian (1995)
 Shifting diagonal of input Hessian by   0.000000000000000E+000
 Lowest  eigenvalues of input Hessian
    0.000000    0.000000    0.000000    0.000000    0.000000    0.000000
    0.010676    0.012984    0.039695    0.041973    0.057527    0.062548
    0.078539    0.084388    0.121376    0.127905    0.139722    0.173288
 Highest eigenvalues
    1.031352    1.084303    1.122777    1.189752    1.233012    1.400803
 

........................................................................
.............................. CYCLE    1 ..............................
........................................................................

 iter      E             dE          RMSdq      gap      omega  full diag
   1    -15.2730285 -0.152730E+02  0.880E-06    7.52       0.0  T
   2    -15.2730285 -0.301981E-13  0.565E-06    7.52    5898.5  T
   3    -15.2730285 -0.124345E-13  0.105E-06    7.52   31658.0  T
     SCC iter.                  ...        0 min,  0.000 sec
     gradient                   ...        0 min,  0.001 sec
 * total energy  :   -15.1697060 Eh     change       -0.6186163E-10 Eh
   gradient norm :     0.0431336 Eh/α   predicted     0.0000000E+00 (-100.00%)
   displ. norm   :     0.2008825 α      lambda       -0.5148246E-02
   maximum displ.:     0.1056925 α      in ANC's #5, #13, #4, ...

........................................................................
.............................. CYCLE    2 ..............................
........................................................................

 iter      E             dE          RMSdq      gap      omega  full diag
   1    -15.2766142 -0.152766E+02  0.305E-01    6.92       0.0  T
   2    -15.2766416 -0.273703E-04  0.178E-01    6.93       1.0  T
   3    -15.2766470 -0.538807E-05  0.343E-02    6.93       1.0  T
   4    -15.2766482 -0.120403E-05  0.949E-03    6.93       3.5  T
   5    -15.2766483 -0.155104E-06  0.582E-03    6.93       5.7  T
   6    -15.2766485 -0.115125E-06  0.214E-03    6.93      15.6  T
   7    -15.2766485 -0.126772E-07  0.101E-03    6.93      33.1  T
   8    -15.2766485 -0.258320E-08  0.124E-04    6.93     268.3  T
   9    -15.2766485 -0.166427E-10  0.173E-05    6.93    1932.0  T
     SCC iter.                  ...        0 min,  0.001 sec
     gradient                   ...        0 min,  0.001 sec
 * total energy  :   -15.1727675 Eh     change       -0.3061573E-02 Eh
   gradient norm :     0.0121289 Eh/α   predicted    -0.2677996E-02 ( -12.53%)
   displ. norm   :     0.0892691 α      lambda       -0.5860409E-03
   maximum displ.:     0.0556353 α      in ANC's #4, #5, #13, ...

........................................................................
.............................. CYCLE    3 ..............................
........................................................................

 iter      E             dE          RMSdq      gap      omega  full diag
   1    -15.2776801 -0.152777E+02  0.133E-01    6.74       0.0  T
   2    -15.2776827 -0.261860E-05  0.807E-02    6.74       1.0  T
   3    -15.2776834 -0.702851E-06  0.101E-02    6.74       3.3  T
   4    -15.2776835 -0.115280E-06  0.384E-03    6.74       8.7  T
   5    -15.2776835 -0.184713E-07  0.192E-03    6.74      17.3  T
   6    -15.2776835 -0.831933E-08  0.637E-04    6.74      52.3  T
   7    -15.2776835 -0.130981E-08  0.240E-04    6.74     139.1  T
     SCC iter.                  ...        0 min,  0.001 sec
     gradient                   ...        0 min,  0.001 sec
 * total energy  :   -15.1730924 Eh     change       -0.3248637E-03 Eh
   gradient norm :     0.0038005 Eh/α   predicted    -0.2953557E-03 (  -9.08%)
   displ. norm   :     0.0409774 α      lambda       -0.5683862E-04
   maximum displ.:     0.0260363 α      in ANC's #4, #2, #5, ...

........................................................................
.............................. CYCLE    4 ..............................
........................................................................

 iter      E             dE          RMSdq      gap      omega  full diag
   1    -15.2780112 -0.152780E+02  0.549E-02    6.75       0.0  T
   2    -15.2780114 -0.218676E-06  0.338E-02    6.75       1.0  T
   3    -15.2780115 -0.980404E-07  0.241E-03    6.75      13.8  T
   4    -15.2780115 -0.448015E-08  0.128E-03    6.75      26.0  T
   5    -15.2780115 -0.373737E-09  0.409E-04    6.75      81.5  T
   6    -15.2780115 -0.663629E-10  0.495E-05    6.75     673.8  T
     SCC iter.                  ...        0 min,  0.001 sec
     gradient                   ...        0 min,  0.001 sec
 * total energy  :   -15.1731349 Eh     change       -0.4251561E-04 Eh
   gradient norm :     0.0030582 Eh/α   predicted    -0.2846871E-04 ( -33.04%)
   displ. norm   :     0.0794111 α      lambda       -0.5922960E-04
   maximum displ.:     0.0670992 α      in ANC's #2, #4, #1, ...

........................................................................
.............................. CYCLE    5 ..............................
........................................................................

 iter      E             dE          RMSdq      gap      omega  full diag
   1    -15.2782044 -0.152782E+02  0.902E-02    6.78       0.0  T
   2    -15.2782050 -0.632095E-06  0.563E-02    6.78       1.0  T
   3    -15.2782054 -0.339839E-06  0.357E-03    6.78       9.3  T
   4    -15.2782054 -0.127779E-07  0.169E-03    6.78      19.8  T
   5    -15.2782054 -0.168905E-08  0.710E-04    6.78      47.0  T
   6    -15.2782054 -0.558952E-09  0.185E-04    6.78     180.0  T
     SCC iter.                  ...        0 min,  0.001 sec
     gradient                   ...        0 min,  0.001 sec
 * total energy  :   -15.1731748 Eh     change       -0.3990952E-04 Eh
   gradient norm :     0.0020594 Eh/α   predicted    -0.2980115E-04 ( -25.33%)
   displ. norm   :     0.0655186 α      lambda       -0.2468032E-04
   maximum displ.:     0.0597461 α      in ANC's #2, #4, #1, ...

........................................................................
.............................. CYCLE    6 ..............................
........................................................................

 iter      E             dE          RMSdq      gap      omega  full diag
   1    -15.2781491 -0.152781E+02  0.690E-02    6.79       0.0  T
   2    -15.2781495 -0.356867E-06  0.434E-02    6.79       1.0  T
   3    -15.2781497 -0.229382E-06  0.222E-03    6.79      15.0  T
   4    -15.2781497 -0.427151E-08  0.101E-03    6.79      33.0  T
   5    -15.2781497 -0.101174E-08  0.426E-04    6.79      78.2  T
   6    -15.2781497 -0.417627E-09  0.186E-04    6.79     179.6  T
     SCC iter.                  ...        0 min,  0.001 sec
     gradient                   ...        0 min,  0.001 sec
 * total energy  :   -15.1731920 Eh     change       -0.1719696E-04 Eh
   gradient norm :     0.0015640 Eh/α   predicted    -0.1239383E-04 ( -27.93%)
   displ. norm   :     0.0445670 α      lambda       -0.8159889E-05
   maximum displ.:     0.0411439 α      in ANC's #2, #1, #7, ...

........................................................................
.............................. CYCLE    7 ..............................
........................................................................

 iter      E             dE          RMSdq      gap      omega  full diag
   1    -15.2781101 -0.152781E+02  0.437E-02    6.81       0.0  T
   2    -15.2781103 -0.162869E-06  0.275E-02    6.81       1.2  T
   3    -15.2781104 -0.964907E-07  0.149E-03    6.81      22.4  T
   4    -15.2781104 -0.222274E-08  0.822E-04    6.81      40.5  T
   5    -15.2781104 -0.760833E-09  0.334E-04    6.81      99.9  T
     SCC iter.                  ...        0 min,  0.001 sec
     gradient                   ...        0 min,  0.001 sec
 * total energy  :   -15.1731987 Eh     change       -0.6728703E-05 Eh
   gradient norm :     0.0006384 Eh/α   predicted    -0.4084886E-05 ( -39.29%)
   displ. norm   :     0.0077235 α      lambda       -0.5817694E-06
   maximum displ.:     0.0070666 α      in ANC's #2, #1, #5, ...

........................................................................
.............................. CYCLE    8 ..............................
........................................................................

 iter      E             dE          RMSdq      gap      omega  full diag
   1    -15.2781111 -0.152781E+02  0.723E-03    6.81       0.0  T
   2    -15.2781111 -0.123745E-07  0.451E-03    6.81       7.4  T
   3    -15.2781111 -0.152526E-08  0.651E-04    6.81      51.2  T
   4    -15.2781111 -0.662489E-09  0.175E-04    6.81     190.2  T
     SCC iter.                  ...        0 min,  0.001 sec
     gradient                   ...        0 min,  0.001 sec
 * total energy  :   -15.1731993 Eh     change       -0.5361387E-06 Eh
   gradient norm :     0.0002420 Eh/α   predicted    -0.2913293E-06 ( -45.66%)
   displ. norm   :     0.0038367 α      lambda       -0.1454811E-06
   maximum displ.:     0.0028124 α      in ANC's #2, #1, #4, ...

   *** GEOMETRY OPTIMIZATION CONVERGED AFTER 8 ITERATIONS ***

------------------------------------------------------------------------
 total energy gain   :        -0.0034933 Eh       -2.1921 kcal/mol
 total RMSD          :         0.1271567 a0        0.0673 Å
 total power (kW/mol):        -1.1464651 (step) -501.5382 (real)
------------------------------------------------------------------------

 ANCopt (total)                0 d,  0 h,  0 min,  0.018 sec
 optimizer setup                ...        0 min,  0.000 sec (  1.787%)
 model hessian                  ...        0 min,  0.001 sec (  7.535%)
 ANC generation                 ...        0 min,  0.000 sec (  0.984%)
 coordinate transformation      ...        0 min,  0.000 sec (  0.302%)
 single point calculation       ...        0 min,  0.015 sec ( 83.298%)
 optimization log               ...        0 min,  0.000 sec (  1.898%)
 hessian update                 ...        0 min,  0.000 sec (  0.390%)
 rational function              ...        0 min,  0.000 sec (  1.970%)

================
 final structure:
================
9
 xtb: 6.7.1 (edcfbbe)
C           -7.04683825503549       -4.53726521162574        1.57704804521154
C           -8.05282648136401       -3.38776142373033        1.58886138091741
O           -7.54437780564693       -5.73392335249902        1.01164186461385
H           -6.13836865187424       -4.23557114009623        1.03361621320612
H           -6.78225728914593       -4.84404890120527        2.59548299103250
O           -7.67424948479229       -5.62174811159252       -0.41547487034212
H           -8.36218598249569       -3.19610500553452        0.56348684886555
H           -8.92758516034634       -3.67008242326830        2.16849485364765
H           -7.59052888929908       -2.50076343044806        2.01036267284750
 
 Bond Distances (Angstroems)
 ---------------------------
C1-C2=1.5276         C1-O3=1.4139         C1-H4=1.1008         C1-H5=1.0961         C2-C1=1.5276         C2-H7=1.0880         
C2-H8=1.0867         C2-H9=1.0854         O3-C1=1.4139         O3-O6=1.4374         H4-C1=1.1008         H5-C1=1.0961         
O6-O3=1.4374         H7-C2=1.0880         H8-C2=1.0867         H9-C2=1.0854         
 C  H  Rav=1.0914 sigma=0.0060  Rmin=1.0854  Rmax=1.1008     5
 C  C  Rav=1.5276 sigma=0.0000  Rmin=1.5276  Rmax=1.5276     1
 O  C  Rav=1.4139 sigma=0.0000  Rmin=1.4139  Rmax=1.4139     1
 O  O  Rav=1.4374 sigma=0.0000  Rmin=1.4374  Rmax=1.4374     1
 
 selected bond angles (degree)
 --------------------
O3-C1-C2=114.09                H4-C1-C2=109.94                H4-C1-O3=108.96                H5-C1-C2=111.25                
H5-C1-O3=102.69                H5-C1-H4=109.65                H7-C2-C1=108.21                H8-C2-C1=109.80                
H8-C2-H7=108.64                H9-C2-C1=109.72                H9-C2-H7=110.07                H9-C2-H8=110.37                
O6-O3-C1=111.27                
 
 selected dihedral angles (degree)
 ---------------------------------
H7-C2-C1-O3=301.68            H7-C2-C1-H4= 64.43            H7-C2-C1-H5=186.08            H8-C2-C1-O3= 60.10            
H8-C2-C1-H4=182.85            H8-C2-C1-H5=304.51            H9-C2-C1-O3=181.57            H9-C2-C1-H4=304.32            
H9-C2-C1-H5= 65.97            O6-O3-C1-C2= 72.30            O6-O3-C1-H4=309.02            O6-O3-C1-H5=192.80            
           -------------------------------------------------
          |                Final Singlepoint                |
           -------------------------------------------------

          ...................................................
          :                      SETUP                      :
          :.................................................:
          :  # basis functions                  21          :
          :  # atomic orbitals                  21          :
          :  # shells                           13          :
          :  # electrons                        26          :
          :  max. iterations                   250          :
          :  Hamiltonian                  GFN2-xTB          :
          :  restarted?                      false          :
          :  GBSA solvation                   true          :
          :  PC potential                    false          :
          :  electronic temp.          300.0000000     K    :
          :  accuracy                    1.0000000          :
          :  -> integral cutoff          0.2500000E+02      :
          :  -> integral neglect         0.1000000E-07      :
          :  -> SCF convergence          0.1000000E-05 Eh   :
          :  -> wf. convergence          0.1000000E-03 e    :
          :  Broyden damping             0.4000000          :
          :  net charge                         -1          :
          :  unpaired electrons                  0          :
          ...................................................

 iter      E             dE          RMSdq      gap      omega  full diag
   1    -15.2781111 -0.152781E+02  0.894E-05    6.81       0.0  T
   2    -15.2781111 -0.220979E-11  0.569E-05    6.81     585.7  T
   3    -15.2781111 -0.225420E-11  0.104E-05    6.81    3200.4  T

   *** convergence criteria satisfied after 3 iterations ***

         #    Occupation            Energy/Eh            Energy/eV
      -------------------------------------------------------------
         1        2.0000           -0.6661896             -18.1279
       ...           ...                  ...                  ...
         7        2.0000           -0.4982748             -13.5587
         8        2.0000           -0.4676013             -12.7241
         9        2.0000           -0.4570949             -12.4382
        10        2.0000           -0.4288727             -11.6702
        11        2.0000           -0.4188560             -11.3977
        12        2.0000           -0.3341448              -9.0925
        13        2.0000           -0.3155671              -8.5870 (HOMO)
        14                         -0.0652306              -1.7750 (LUMO)
        15                          0.0934962               2.5442
        16                          0.1237404               3.3671
        17                          0.1624064               4.4193
        18                          0.1725179               4.6945
       ...                                ...                  ...
        21                          0.2826411               7.6911
      -------------------------------------------------------------
                  HL-Gap            0.2503365 Eh            6.8120 eV
             Fermi-level           -0.1903989 Eh           -5.1810 eV

 SCC (total)                   0 d,  0 h,  0 min,  0.002 sec
 SCC setup                      ...        0 min,  0.000 sec (  8.624%)
 Dispersion                     ...        0 min,  0.000 sec (  2.014%)
 classical contributions        ...        0 min,  0.000 sec (  0.613%)
 integral evaluation            ...        0 min,  0.000 sec ( 17.934%)
 iterations                     ...        0 min,  0.000 sec ( 27.608%)
 molecular gradient             ...        0 min,  0.001 sec ( 37.998%)
 printout                       ...        0 min,  0.000 sec (  3.736%)

         :::::::::::::::::::::::::::::::::::::::::::::::::::::
         ::                     SUMMARY                     ::
         :::::::::::::::::::::::::::::::::::::::::::::::::::::
         :: total energy             -15.173199277700 Eh    ::
         :: total w/o Gsasa/hb       -15.174711880479 Eh    ::
         :: gradient norm              0.000242753218 Eh/a0 ::
         :: HOMO-LUMO gap              6.812001768338 eV    ::
         ::.................................................::
         :: SCC energy               -15.278110214859 Eh    ::
         :: -> isotropic ES            0.273225961222 Eh    ::
         :: -> anisotropic ES         -0.018058554453 Eh    ::
         :: -> anisotropic XC         -0.004673890247 Eh    ::
         :: -> dispersion             -0.003840683819 Eh    ::
         :: -> Gsolv                  -0.140487503241 Eh    ::
         ::    -> Gelec               -0.142000106019 Eh    ::
         ::    -> Gsasa                0.003519559845 Eh    ::
         ::    -> Ghb                 -0.003087716765 Eh    ::
         ::    -> Gshift               0.001080759698 Eh    ::
         :: repulsion energy           0.104910937158 Eh    ::
         :: add. restraining           0.000000000000 Eh    ::
         :: total charge              -1.000000000000 e     ::
         :::::::::::::::::::::::::::::::::::::::::::::::::::::

           ------------------------------------------------- 
          |                Numerical Hessian                |
           ------------------------------------------------- 
step length          :   0.00500
SCC accuracy         :   0.30000
Hessian scale factor :   1.00000
frozen atoms in %    :   0.00000    0
RMS gradient         :   0.00024
estimated CPU  time      0.00 min
estimated wall time      0.00 min

writing file <hessian>.

 projected vibrational frequencies (cm⁻¹)
eigval :       -0.00    -0.00    -0.00     0.00     0.00     0.00
eigval :      121.90   192.55   338.38   469.21   810.03   895.37
eigval :     1000.40  1065.64  1088.60  1167.08  1268.89  1316.69
eigval :     1372.42  1435.93  1461.72  1496.96  2830.78  2894.70
eigval :     3030.76  3035.05  3041.69
           -------------------------------------------------
          |                Property Printout                |
           -------------------------------------------------

    * Orbital Energies and Occupations

         #    Occupation            Energy/Eh            Energy/eV
      -------------------------------------------------------------
         1        2.0000           -0.6661895             -18.1279
         2        2.0000           -0.6122682             -16.6607
         3        2.0000           -0.5897448             -16.0478
         4        2.0000           -0.5690148             -15.4837
         5        2.0000           -0.5212521             -14.1840
         6        2.0000           -0.5194553             -14.1351
         7        2.0000           -0.4982749             -13.5587
         8        2.0000           -0.4676013             -12.7241
         9        2.0000           -0.4570950             -12.4382
        10        2.0000           -0.4288728             -11.6702
        11        2.0000           -0.4188561             -11.3977
        12        2.0000           -0.3341448              -9.0925
        13        2.0000           -0.3155672              -8.5870 (HOMO)
        14                         -0.0652307              -1.7750 (LUMO)
        15                          0.0934962               2.5442
        16                          0.1237403               3.3671
        17                          0.1624063               4.4193
        18                          0.1725179               4.6945
        19                          0.1902514               5.1770
        20                          0.2565473               6.9810
        21                          0.2826411               7.6911
      -------------------------------------------------------------
                  HL-Gap            0.2503365 Eh            6.8120 eV
             Fermi-level           -0.1903989 Eh           -5.1810 eV

     #   Z          covCN         q      C6AA      α(0)
     1   6 C        3.673     0.113    18.946     6.238
     2   6 C        3.750    -0.112    22.699     6.795
     3   8 O        1.769    -0.382    20.473     6.110
     4   1 H        0.923     0.007     2.946     2.684
     5   1 H        0.924     0.027     2.634     2.538
     6   8 O        0.921    -0.796    31.407     7.516
     7   1 H        0.925     0.041     2.440     2.443
     8   1 H        0.925     0.046     2.364     2.405
     9   1 H        0.925     0.056     2.249     2.345

 Mol. C6AA /au·bohr⁶  :        734.508212
 Mol. C8AA /au·bohr⁸  :      14838.155297
 Mol. α(0) /au        :         39.073360


Wiberg/Mayer (AO) data.
largest (>0.10) Wiberg bond orders for each atom

 ---------------------------------------------------------------------------
     #   Z sym  total        # sym  WBO       # sym  WBO       # sym  WBO
 ---------------------------------------------------------------------------
     1   6 C    3.954 --     2 C    1.007     3 O    0.990     4 H    0.971
                             5 H    0.966
     2   6 C    3.996 --     1 C    1.007     8 H    0.988     7 H    0.987
                             9 H    0.986
     3   8 O    1.987 --     1 C    0.990     6 O    0.946
     4   1 H    1.000 --     1 C    0.971
     5   1 H    0.999 --     1 C    0.966
     6   8 O    0.995 --     3 O    0.946
     7   1 H    0.998 --     2 C    0.987
     8   1 H    0.998 --     2 C    0.988
     9   1 H    0.997 --     2 C    0.986
 ---------------------------------------------------------------------------

Topologies differ in total number of bonds
Writing topology from bond orders to xtbtopo.mol

molecular dipole:
                 x           y           z       tot (Debye)
 q only:       14.533      11.209       0.486
   full:       14.603      11.232       0.537      46.846
molecular quadrupole (traceless):
                xx          xy          yy          xz          yz          zz
 q only:     -149.215    -244.085     -18.172     -10.208      -5.033     167.387
  q+dip:     -149.752    -245.497     -18.302     -11.584      -6.697     168.054
   full:     -150.353    -245.444     -18.308     -11.292      -6.485     168.662

           -------------------------------------------------
          |                Geometry Summary                 |
           -------------------------------------------------

      molecular mass/u    :       61.0599854
   center of mass at/Å    :       -7.5818812      -4.8388473       0.9171845
  moments of inertia/u·Å² :        0.2946274E+02   0.9298875E+02   0.1083357E+03
rotational constants/cm⁻¹ :        0.5721679E+00   0.1812868E+00   0.1556054E+00

 * 7 selected distances

     #   Z          #   Z                                           value/Å
     1   6 C        2   6 C                                       1.5275835 (max)
     1   6 C        3   8 O                                       1.4139381
     1   6 C        4   1 H                                       1.1007519
     1   6 C        5   1 H                                       1.0960517
     2   6 C        7   1 H                                       1.0880389
     2   6 C        8   1 H                                       1.0866844
     2   6 C        9   1 H                                       1.0854253 (min)

 * 3 distinct bonds (by element types)

   Z      Z             #   av. dist./Å        max./Å        min./Å
   1 H    6 C           5     1.0913904     1.1007519     1.0854253
   6 C    6 C           1     1.5275835     1.5275835     1.5275835
   6 C    8 O           1     1.4139381     1.4139381     1.4139381

           -------------------------------------------------
          |               Frequency Printout                |
           -------------------------------------------------
 projected vibrational frequencies (cm⁻¹)
eigval :       -0.00    -0.00    -0.00     0.00     0.00     0.00
eigval :      121.90   192.55   338.38   469.21   810.03   895.37
eigval :     1000.40  1065.64  1088.60  1167.08  1268.89  1316.69
eigval :     1372.42  1435.93  1461.72  1496.96  2830.78  2894.70
eigval :     3030.76  3035.05  3041.69
 reduced masses (amu)
   1: 14.18   2: 12.12   3: 11.91   4: 10.01   5: 14.66   6: 10.97   7: 11.84   8:  2.29
   9: 10.66  10: 10.92  11:  3.26  12:  9.79  13: 10.26  14: 11.24  15:  8.76  16:  7.33
  17:  3.11  18:  3.09  19:  3.18  20:  1.95  21:  1.54  22:  1.59  23:  1.74  24:  1.63
  25:  1.88  26:  1.32  27:  1.95
 IR intensities (km·mol⁻¹)
   1: 40.28   2: 10.73   3:  3.31   4:  4.42   5: 34.64   6:  9.42   7:  9.58   8:  2.80
   9: 25.20  10:  9.75  11:  6.44  12: 22.20  13: 19.05  14: 25.34  15: 26.34  16:  9.82
  17:  4.78  18: 31.66  19:  9.23  20:  8.43  21:  0.51  22:  0.96  23:139.69  24:109.74
  25: 50.98  26: 27.27  27: 64.21
 Raman intensities (Ä⁴*amu⁻¹)
   1:  0.00   2:  0.00   3:  0.00   4:  0.00   5:  0.00   6:  0.00   7:  0.00   8:  0.00
   9:  0.00  10:  0.00  11:  0.00  12:  0.00  13:  0.00  14:  0.00  15:  0.00  16:  0.00
  17:  0.00  18:  0.00  19:  0.00  20:  0.00  21:  0.00  22:  0.00  23:  0.00  24:  0.00
  25:  0.00  26:  0.00  27:  0.00
 output can be read by thermo (or use thermo option).
 writing <g98.out> molden fake output.
 recommended (thermochemical) frequency scaling factor: 1.0
           -------------------------------------------------
          |             Thermodynamic Functions             |
           -------------------------------------------------

Refinement of some symmetry elements was terminated before convergence was reached.
Some symmetry elements may remain unidentified.
Molecule has no symmetry elements
It seems to be the C1 point group
c1  symmetry found (for desy threshold:  0.10E+00) used in thermo

          ...................................................
          :                      SETUP                      :
          :.................................................:
          :  # frequencies                          21      :
          :  # imaginary freq.                       0      :
          :  linear?                             false      :
          :  only rotor calc.                    false      :
          :  symmetry                               c1      :
          :  rotational number                       1      :
          :  scaling factor                  1.0000000      :
          :  rotor cutoff                   50.0000000 cm⁻¹ :
          :  imag. cutoff                  -20.0000000 cm⁻¹ :
          :.................................................:

    mode    ω/cm⁻¹     T·S(HO)/kcal·mol⁻¹    T·S(FR)/kcal·mol⁻¹   T·S(vib)
   ------------------------------------------------------------------------
       1    121.90    -0.91533 ( 97.25%)    -0.79201 (  2.75%)    -0.91193
       2    192.55    -0.65687 ( 99.55%)    -0.65678 (  0.45%)    -0.65687
   ------------------------------------------------------------------------

   temp. (K)  partition function   enthalpy   heat capacity  entropy
                                   cal/mol     cal/K/mol   cal/K/mol   J/K/mol
 298.15  VIB   5.50                 1366.735      9.690      7.959
         ROT  0.416E+05              888.752      2.981     24.118
         INT  0.229E+06             2255.487     12.671     32.077
         TR   0.462E+27             1481.254      4.968     38.230
         TOT                        3736.7413    17.6395    70.3073   294.1659

       T/K    H(0)-H(T)+PV         H(T)/Eh          T*S/Eh         G(T)/Eh
   ------------------------------------------------------------------------
    298.15    0.595488E-02    0.750625E-01    0.334053E-01    0.416572E-01
   ------------------------------------------------------------------------

         :::::::::::::::::::::::::::::::::::::::::::::::::::::
         ::                  THERMODYNAMIC                  ::
         :::::::::::::::::::::::::::::::::::::::::::::::::::::
         :: total free energy         -15.131542032059 Eh   ::
         ::.................................................::
         :: total energy              -15.173199277307 Eh   ::
         :: zero point energy           0.069107652342 Eh   ::
         :: G(RRHO) w/o ZPVE           -0.027450407095 Eh   ::
         :: G(RRHO) contrib.            0.041657245247 Eh   ::
         :::::::::::::::::::::::::::::::::::::::::::::::::::::

optimized geometry written to: xtbopt.xyz


           -------------------------------------------------
          | TOTAL ENERGY              -15.173199277307 Eh   |
          | TOTAL ENTHALPY            -15.098136748595 Eh   |
          | TOTAL FREE ENERGY         -15.131542032059 Eh   |
          | GRADIENT NORM               0.000242669618 Eh/α |
          | HOMO-LUMO GAP               6.812002537211 eV   |
           -------------------------------------------------

------------------------------------------------------------------------
 * finished run on 2025/10/18 at 02:41:38.219     
------------------------------------------------------------------------
 total:
 * wall-time:     0 d,  0 h,  0 min,  0.428 sec
 *  cpu-time:     0 d,  0 h,  0 min,  0.471 sec
 * ratio c/w:     1.100 speedup
 SCF:
 * wall-time:     0 d,  0 h,  0 min,  0.026 sec
 *  cpu-time:     0 d,  0 h,  0 min,  0.033 sec
 * ratio c/w:     1.282 speedup
 ANC optimizer:
 * wall-time:     0 d,  0 h,  0 min,  0.051 sec
 *  cpu-time:     0 d,  0 h,  0 min,  0.072 sec
 * ratio c/w:     1.414 speedup
 analytical hessian:
 * wall-time:     0 d,  0 h,  0 min,  0.079 sec
 *  cpu-time:     0 d,  0 h,  0 min,  0.146 sec
 * ratio c/w:     1.846 speedup

