9
 energy: -15.173199277700 gnorm: 0.000242753218 xtb: 6.7.1 (edcfbbe)
C           -7.04685650698283       -4.53722556195855        1.57708056232711
C           -8.05283867327425       -3.38771648612067        1.58889540333166
O           -7.54440429690956       -5.73388208451222        1.01167820703685
H           -6.13838722111486       -4.23553719562689        1.03364503261320
H           -6.78227359239437       -4.84400885939042        2.59551512001706
O           -7.67428037029505       -5.62170865436341       -0.41543827035330
H           -8.36220075013201       -3.19606023772265        0.56352161665243
H           -8.92759680715902       -3.67003189378795        2.16853242228440
H           -7.59053496559232       -2.50072017778561        2.01039353343197
