9
 energy: -15.169705953932 gnorm: 0.043133640429 xtb: 6.7.1 (edcfbbe)
C           -7.04600200000000       -4.55272200000000        1.55869100000000
C           -8.04366800000000       -3.40985800000000        1.58447900000000
O           -7.65247100000000       -5.72799700000000        1.02923500000000
H           -6.14868500000000       -4.28703500000000        0.98743700000000
H           -6.72769700000000       -4.78262800000000        2.58065200000000
O           -7.58724800000000       -5.59982300000000       -0.36998200000000
H           -8.36782900000000       -3.15091400000000        0.57126800000000
H           -8.94102600000000       -3.69441100000000        2.14373200000000
H           -7.60459200000000       -2.52188100000000        2.04800800000000
9
 energy: -15.172767527024 gnorm: 0.012130378035 xtb: 6.7.1 (edcfbbe)
C           -7.05758002339772       -4.53971417989608        1.56932229202204
C           -8.04862860780083       -3.38471702248303        1.59581434645891
O           -7.59987232060286       -5.73318037302395        1.02052038662529
H           -6.16898688491305       -4.26945592161861        0.98484557210319
H           -6.74775379169882       -4.80673291584542        2.58903296124986
O           -7.60853772871669       -5.65173682897524       -0.40761399126748
H           -8.35000310676390       -3.15210090688928        0.57356881527849
H           -8.93611341066840       -3.68545240802206        2.15230666999673
H           -7.60174212543773       -2.50417844324633        2.05572294753296
9
 energy: -15.173092390735 gnorm: 0.003800820657 xtb: 6.7.1 (edcfbbe)
C           -7.05421372812870       -4.53198466380633        1.56845305558132
C           -8.05436665309540       -3.37965838785124        1.59651902651363
O           -7.57838701313393       -5.73143701683029        1.02406385954724
H           -6.16113323150217       -4.25268211274092        0.99106188979148
H           -6.76002424746086       -4.82544356855558        2.58503413337732
O           -7.62555495571610       -5.66896985967555       -0.41388983515484
H           -8.34798807502903       -3.15101610772257        0.57394927067026
H           -8.93940886785274       -3.67805458113369        2.15292924495170
H           -7.59814122808105       -2.50802270168383        2.05539935472189
9
 energy: -15.173134906349 gnorm: 0.003059188503 xtb: 6.7.1 (edcfbbe)
C           -7.05357284420263       -4.53282847500286        1.56862440705388
C           -8.05456895428260       -3.37977092393710        1.59489242036636
O           -7.57043227683367       -5.73340800754034        1.02295863853959
H           -6.15764094999899       -4.24490407995336        0.99937740305833
H           -6.76653100863843       -4.83100425017490        2.58443456284946
O           -7.63387431795337       -5.66590744751511       -0.41411767378311
H           -8.35111722762289       -3.15554474176402        0.57277365661379
H           -8.93680944312511       -3.67606238061821        2.15565477688312
H           -7.59467097734230       -2.50783869349410        2.04892180841858
9
 energy: -15.173174815872 gnorm: 0.002060518221 xtb: 6.7.1 (edcfbbe)
C           -7.05092692476291       -4.53521396602112        1.57088226002868
C           -8.05454435986057       -3.38249437331174        1.59197846362739
O           -7.55792036300570       -5.73449142316084        1.01877541354550
H           -6.14921665011773       -4.23737981855543        1.01502034290305
H           -6.77555824620888       -4.83759435485035        2.58708576150180
O           -7.65039249659694       -5.65152040267905       -0.41481545871869
H           -8.35737914531827       -3.16964677619544        0.56937387692000
H           -8.93287355392764       -3.67261034755730        2.16172533760050
H           -7.59040626020134       -2.50631753766873        2.03349400259177
9
 energy: -15.173192012836 gnorm: 0.001564564487 xtb: 6.7.1 (edcfbbe)
C           -7.04868941201107       -4.53703998144464        1.57378773372720
C           -8.05383063310842       -3.38525156857469        1.59004325638491
O           -7.54915289052669       -5.73472337918591        1.01479661801503
H           -6.14284768598413       -4.23502614427184        1.02637439206277
H           -6.78059790056690       -4.84145888001787        2.59120646439563
O           -7.66391943449786       -5.63610473336507       -0.41546410960966
H           -8.36109337057210       -3.18349445544203        0.56615021962145
H           -8.92975488216378       -3.67064528919303        2.16614314442315
H           -7.58933179056904       -2.50352456850492        2.02048228097951
9
 energy: -15.173198741539 gnorm: 0.000638784225 xtb: 6.7.1 (edcfbbe)
C           -7.04711690254203       -4.53760519507104        1.57639513448674
C           -8.05293436263620       -3.38749623258274        1.58905271267151
O           -7.54473799949458       -5.73407531939073        1.01189087961604
H           -6.13897761936410       -4.23587191695984        1.03263980147999
H           -6.78206425816606       -4.84319169494910        2.59496225466064
O           -7.67283645209239       -5.62379840347288       -0.41547315848216
H           -8.36215669207322       -3.19407423529772        0.56391052155555
H           -8.92795372395763       -3.67002253624374        2.16822058275791
H           -7.59043998967378       -2.50113346603221        2.01192127125378
9
 energy: -15.173199277678 gnorm: 0.000242655155 xtb: 6.7.1 (edcfbbe)
C           -7.04683825503549       -4.53726521162574        1.57704804521154
C           -8.05282648136401       -3.38776142373033        1.58886138091741
O           -7.54437780564693       -5.73392335249902        1.01164186461385
H           -6.13836865187424       -4.23557114009623        1.03361621320612
H           -6.78225728914593       -4.84404890120527        2.59548299103250
O           -7.67424948479229       -5.62174811159252       -0.41547487034212
H           -8.36218598249569       -3.19610500553452        0.56348684886555
H           -8.92758516034634       -3.67008242326830        2.16849485364765
H           -7.59052888929908       -2.50076343044806        2.01036267284750
