 Entering Gaussian System
 *********************************************
 Gaussian 98:
 frequency output generated by the xtb code
 *********************************************
                         Standard orientation:
 --------------------------------------------------------------------
  Center     Atomic     Atomic              Coordinates (Angstroms)
  Number     Number      Type              X           Y           Z
 --------------------------------------------------------------------
    1          6             0       -4.174125   -1.986322    1.993591
    2          6             0       -3.840301   -2.437051    0.729573
    3          1             0       -6.978782   -3.772227    2.515969
    4          6             0       -5.307212   -2.470276    2.635103
    5          1             0       -3.572482   -1.253869    2.514539
    6          6             0       -4.638301   -3.376488    0.096848
    7          1             0       -2.957331   -2.054416    0.239732
    8          6             0       -5.770007   -3.863861    0.730406
    9          1             0       -4.378322   -3.728666   -0.889911
   10          6             0       -6.102376   -3.412028    1.994413
   11          1             0       -6.394948   -4.596053    0.241184
   12          6             0       -5.673403   -1.974258    4.024765
   13          8             0       -4.918426   -1.122945    4.551400
   14          8             0       -6.708632   -2.446029    4.551837
 --------------------------------------------------------------------
     1 basis functions        1 primitive gaussians
     1 alpha electrons        1 beta electrons
 
 Harmonic frequencies (cm**-1), IR intensities (km*mol⁻¹),
 Raman scattering activities (A**4/amu), Raman depolarization ratios,
 reduced masses (AMU), force constants (mDyne/A) and normal coordinates:
                      1                      2                      3
                        a                      a                      a 
 Frequencies --    28.3717               141.8996               191.8528
 Red. masses --    14.0455                11.2785                12.9098
 Frc consts  --     0.0000                 0.0000                 0.0000
 IR Inten    --     0.0000                 6.4954                 3.4553
 Raman Activ --     0.0000                 0.0000                 0.0000
 Depolar     --     0.0000                 0.0000                 0.0000
 Atom AN      X      Y      Z        X      Y      Z        X      Y      Z
   1   6    -0.13   0.18  -0.10     0.21  -0.28   0.16    -0.22  -0.07   0.18
   2   6    -0.14   0.19  -0.10    -0.04   0.06  -0.03     0.01   0.12   0.19
   3   1     0.07  -0.09   0.05     0.08  -0.11   0.06    -0.05  -0.10  -0.10
   4   6     0.00   0.00   0.00     0.26  -0.34   0.19    -0.27  -0.20   0.00
   5   1    -0.07   0.09  -0.05     0.08  -0.11   0.06    -0.11  -0.02   0.11
   6   6    -0.00  -0.00  -0.00    -0.23   0.31  -0.17     0.16   0.12  -0.00
   7   1    -0.07   0.10  -0.05    -0.04   0.05  -0.03     0.02   0.07   0.11
   8   6     0.14  -0.19   0.10    -0.04   0.06  -0.03     0.12  -0.02  -0.19
   9   1    -0.00  -0.00  -0.00    -0.14   0.19  -0.11     0.09   0.07  -0.00
  10   6     0.13  -0.18   0.10     0.21  -0.28   0.16    -0.13  -0.20  -0.18
  11   1     0.07  -0.10   0.05    -0.04   0.05  -0.03     0.07  -0.01  -0.11
  12   6     0.00  -0.00  -0.00     0.02  -0.03   0.01    -0.03  -0.02   0.00
  13   8     0.32  -0.43   0.24    -0.16   0.21  -0.12     0.27  -0.03  -0.41
  14   8    -0.32   0.43  -0.24    -0.16   0.21  -0.12     0.05   0.26   0.41
                      4                      5                      6
                        a                      a                      a 
 Frequencies --   362.3427               367.4283               399.5287
 Red. masses --     8.8623                13.4153                10.0491
 Frc consts  --     0.0000                 0.0000                 0.0000
 IR Inten    --     0.0042                15.6255                 2.9532
 Raman Activ --     0.0000                 0.0000                 0.0000
 Depolar     --     0.0000                 0.0000                 0.0000
 Atom AN      X      Y      Z        X      Y      Z        X      Y      Z
   1   6     0.23  -0.32   0.17     0.04   0.13   0.19     0.09  -0.12   0.07
   2   6    -0.23   0.30  -0.17     0.01   0.14   0.23     0.14  -0.19   0.10
   3   1    -0.14   0.20  -0.11    -0.03   0.04   0.10     0.09  -0.12   0.07
   4   6    -0.00   0.00  -0.00     0.01  -0.02  -0.05    -0.31   0.42  -0.23
   5   1     0.15  -0.20   0.11    -0.03   0.03   0.10     0.09  -0.12   0.07
   6   6    -0.00  -0.00  -0.01    -0.09   0.13   0.36    -0.23   0.31  -0.17
   7   1    -0.14   0.19  -0.11    -0.01   0.02   0.03     0.11  -0.14   0.08
   8   6     0.23  -0.31   0.17    -0.13   0.02   0.23     0.14  -0.18   0.10
   9   1    -0.00   0.00  -0.00    -0.03   0.04   0.10    -0.13   0.18  -0.10
  10   6    -0.23   0.31  -0.18    -0.14   0.01   0.19     0.10  -0.13   0.07
  11   1     0.15  -0.20   0.11    -0.01   0.01   0.04     0.10  -0.14   0.08
  12   6    -0.00   0.00   0.00     0.07  -0.09  -0.26    -0.15   0.21  -0.12
  13   8    -0.01   0.01   0.00     0.18  -0.11  -0.43     0.07  -0.09   0.05
  14   8     0.00  -0.00   0.01     0.05  -0.20  -0.43     0.07  -0.09   0.05
                      7                      8                      9
                        a                      a                      a 
 Frequencies --   508.8724               587.0875               638.9899
 Red. masses --    13.6428                11.1901                12.8248
 Frc consts  --     0.0000                 0.0000                 0.0000
 IR Inten    --     3.1334                 0.0633                54.8256
 Raman Activ --     0.0000                 0.0000                 0.0000
 Depolar     --     0.0000                 0.0000                 0.0000
 Atom AN      X      Y      Z        X      Y      Z        X      Y      Z
   1   6     0.24   0.12  -0.10     0.16   0.29   0.30     0.23   0.12  -0.07
   2   6     0.08  -0.01  -0.13    -0.35  -0.09   0.32     0.23   0.15  -0.06
   3   1     0.07   0.09   0.07     0.10   0.05  -0.04    -0.03   0.00   0.06
   4   6     0.18   0.14  -0.00     0.13   0.10  -0.00     0.09  -0.12  -0.35
   5   1     0.10   0.04  -0.07     0.08   0.08   0.04     0.00   0.03   0.06
   6   6    -0.04  -0.03  -0.00    -0.15  -0.11   0.00    -0.08   0.10   0.32
   7   1     0.01  -0.03  -0.08    -0.11  -0.06   0.04     0.04  -0.02  -0.10
   8   6     0.01   0.08   0.13    -0.19  -0.31  -0.32    -0.21  -0.17  -0.06
   9   1    -0.04  -0.03  -0.00     0.09   0.06   0.00    -0.02   0.03   0.09
  10   6     0.19   0.19   0.10     0.32   0.07  -0.30    -0.18  -0.19  -0.07
  11   1    -0.03   0.02   0.08    -0.09  -0.09  -0.04     0.01  -0.05  -0.10
  12   6    -0.29  -0.22   0.00     0.01   0.01  -0.00     0.06  -0.08  -0.24
  13   8    -0.06  -0.29  -0.44     0.02   0.01  -0.01    -0.31  -0.11   0.23
  14   8    -0.29   0.03   0.44     0.02   0.02   0.01     0.19   0.27   0.23
                     10                     11                     12
                        a                      a                      a 
 Frequencies --   642.0870               698.5936               786.9856
 Red. masses --    11.0195                 6.0039                 8.4488
 Frc consts  --     0.0000                 0.0000                 0.0000
 IR Inten    --     9.8394                77.7510                 2.2323
 Raman Activ --     0.0000                 0.0000                 0.0000
 Depolar     --     0.0000                 0.0000                 0.0000
 Atom AN      X      Y      Z        X      Y      Z        X      Y      Z
   1   6    -0.19   0.27  -0.15    -0.00   0.00  -0.00     0.07  -0.09   0.05
   2   6     0.21  -0.26   0.15     0.11  -0.15   0.08     0.03  -0.05   0.03
   3   1    -0.06   0.08  -0.04    -0.18   0.25  -0.14    -0.07   0.10  -0.06
   4   6     0.14  -0.20   0.09     0.12  -0.17   0.09    -0.25   0.34  -0.18
   5   1    -0.06   0.08  -0.04    -0.19   0.25  -0.14    -0.08   0.10  -0.06
   6   6    -0.21   0.29  -0.14     0.01  -0.01   0.01     0.11  -0.14   0.07
   7   1     0.09  -0.12   0.06    -0.17   0.23  -0.13    -0.15   0.21  -0.11
   8   6     0.19  -0.27   0.15     0.11  -0.15   0.08     0.04  -0.05   0.03
   9   1    -0.08   0.10  -0.05    -0.20   0.27  -0.15    -0.21   0.28  -0.16
  10   6    -0.20   0.26  -0.15    -0.00   0.00  -0.00     0.07  -0.09   0.05
  11   1     0.09  -0.12   0.06    -0.17   0.23  -0.13    -0.15   0.21  -0.11
  12   6     0.20  -0.27   0.14    -0.28   0.37  -0.21     0.31  -0.42   0.23
  13   8    -0.07   0.08  -0.04     0.08  -0.11   0.06    -0.09   0.11  -0.06
  14   8    -0.05   0.09  -0.04     0.08  -0.11   0.06    -0.08   0.12  -0.06
                     13                     14                     15
                        a                      a                      a 
 Frequencies --   791.7312               879.4721               905.1455
 Red. masses --    12.9682                 3.3509                 4.0718
 Frc consts  --     0.0000                 0.0000                 0.0000
 IR Inten    --    84.7532                 0.0003                 0.4391
 Raman Activ --     0.0000                 0.0000                 0.0000
 Depolar     --     0.0000                 0.0000                 0.0000
 Atom AN      X      Y      Z        X      Y      Z        X      Y      Z
   1   6    -0.13  -0.03   0.11    -0.09   0.12  -0.07     0.12  -0.17   0.09
   2   6    -0.27  -0.11   0.15    -0.15   0.21  -0.11     0.03  -0.04   0.02
   3   1     0.02   0.01   0.01    -0.18   0.25  -0.14    -0.21   0.28  -0.15
   4   6    -0.01   0.01   0.05    -0.00   0.00  -0.00    -0.07   0.09  -0.05
   5   1    -0.02  -0.01   0.01     0.19  -0.25   0.14    -0.21   0.29  -0.16
   6   6     0.06  -0.08  -0.24    -0.00   0.00  -0.00    -0.21   0.28  -0.16
   7   1    -0.05   0.02   0.12     0.28  -0.38   0.21    -0.04   0.05  -0.03
   8   6     0.19   0.22   0.15     0.15  -0.21   0.12     0.03  -0.04   0.02
   9   1     0.02  -0.03  -0.06     0.00  -0.00   0.00     0.35  -0.47   0.26
  10   6     0.07   0.12   0.11     0.09  -0.12   0.07     0.12  -0.16   0.09
  11   1    -0.00   0.06   0.12    -0.29   0.39  -0.21    -0.04   0.05  -0.03
  12   6     0.12  -0.16  -0.46    -0.00   0.00   0.00     0.05  -0.06   0.03
  13   8    -0.34  -0.24   0.03    -0.00   0.00  -0.00    -0.01   0.01  -0.01
  14   8     0.33   0.26   0.03     0.00  -0.00   0.00    -0.01   0.01  -0.01
                     16                     17                     18
                        a                      a                      a 
 Frequencies --   924.5743               931.4136               981.3256
 Red. masses --     2.6041                 4.1051                11.2074
 Frc consts  --     0.0000                 0.0000                 0.0000
 IR Inten    --     0.0764                 0.0001                 1.5970
 Raman Activ --     0.0000                 0.0000                 0.0000
 Depolar     --     0.0000                 0.0000                 0.0000
 Atom AN      X      Y      Z        X      Y      Z        X      Y      Z
   1   6    -0.07   0.10  -0.06     0.17  -0.23   0.12    -0.37  -0.37  -0.17
   2   6     0.11  -0.15   0.08    -0.12   0.16  -0.09     0.17   0.09  -0.06
   3   1     0.21  -0.28   0.16     0.28  -0.38   0.21     0.13   0.08  -0.03
   4   6    -0.02   0.02  -0.01     0.00  -0.00   0.00    -0.05   0.07   0.20
   5   1     0.21  -0.28   0.15    -0.28   0.37  -0.21    -0.11  -0.10  -0.03
   6   6    -0.07   0.10  -0.06     0.00  -0.00   0.00    -0.10   0.13   0.36
   7   1    -0.26   0.35  -0.19     0.17  -0.23   0.13     0.06   0.07   0.05
   8   6     0.11  -0.15   0.08     0.11  -0.16   0.09    -0.14  -0.14  -0.06
   9   1     0.18  -0.24   0.14    -0.00   0.00  -0.00    -0.03   0.04   0.10
  10   6    -0.08   0.10  -0.06    -0.17   0.23  -0.13     0.46   0.24  -0.17
  11   1    -0.26   0.35  -0.19    -0.17   0.23  -0.13    -0.09  -0.03   0.06
  12   6    -0.01   0.02  -0.01    -0.00   0.00  -0.00     0.02  -0.03  -0.07
  13   8     0.00  -0.00   0.00     0.00  -0.00   0.00    -0.08  -0.08  -0.03
  14   8     0.00  -0.00   0.00    -0.00   0.00  -0.00     0.10   0.05  -0.03
                     19                     20                     21
                        a                      a                      a 
 Frequencies --  1075.6354              1107.1073              1155.1843
 Red. masses --     6.6732                 3.6871                 8.0119
 Frc consts  --     0.0000                 0.0000                 0.0000
 IR Inten    --     0.0262                 0.0665                10.8277
 Raman Activ --     0.0000                 0.0000                 0.0000
 Depolar     --     0.0000                 0.0000                 0.0000
 Atom AN      X      Y      Z        X      Y      Z        X      Y      Z
   1   6    -0.03   0.05   0.14    -0.06  -0.15  -0.19    -0.11  -0.13  -0.08
   2   6     0.31   0.19  -0.06    -0.14  -0.04   0.11    -0.21  -0.10   0.10
   3   1     0.05   0.19   0.28     0.04   0.25   0.39     0.14   0.27   0.30
   4   6    -0.00   0.01   0.01     0.10   0.07   0.00     0.14  -0.19  -0.54
   5   1    -0.20   0.01   0.28     0.25  -0.03  -0.39    -0.30  -0.05   0.30
   6   6     0.11  -0.14  -0.40     0.15   0.11  -0.00    -0.02   0.02   0.06
   7   1     0.15   0.22   0.21     0.01   0.14   0.25    -0.07  -0.05   0.00
   8   6    -0.27  -0.24  -0.06    -0.09  -0.12  -0.11     0.16   0.17   0.10
   9   1     0.03  -0.04  -0.12     0.34   0.25  -0.00    -0.01   0.01   0.02
  10   6    -0.04   0.05   0.14    -0.16  -0.01   0.19     0.15   0.07  -0.08
  11   1    -0.26  -0.07   0.21     0.14  -0.03  -0.24     0.07   0.05   0.00
  12   6     0.00  -0.00  -0.01     0.00   0.00  -0.00    -0.02   0.02   0.06
  13   8    -0.00  -0.00  -0.00    -0.01  -0.02  -0.02     0.10   0.12   0.08
  14   8     0.00  -0.00  -0.00    -0.02  -0.00   0.02    -0.14  -0.06   0.08
                     22                     23                     24
                        a                      a                      a 
 Frequencies --  1173.4706              1189.9144              1272.3993
 Red. masses --     1.3946                 3.8030                 3.5387
 Frc consts  --     0.0000                 0.0000                 0.0000
 IR Inten    --     0.2295                 1.6221                 0.3559
 Raman Activ --     0.0000                 0.0000                 0.0000
 Depolar     --     0.0000                 0.0000                 0.0000
 Atom AN      X      Y      Z        X      Y      Z        X      Y      Z
   1   6     0.02  -0.04  -0.09    -0.05   0.04   0.14     0.11  -0.02  -0.19
   2   6    -0.02  -0.03  -0.02     0.05  -0.04  -0.15    -0.06  -0.07  -0.05
   3   1    -0.04  -0.09  -0.10     0.05   0.18   0.26    -0.11  -0.27  -0.34
   4   6    -0.03  -0.02   0.00    -0.08   0.11   0.31     0.20   0.15  -0.00
   5   1    -0.10  -0.02   0.10    -0.19   0.00   0.26    -0.29  -0.02   0.34
   6   6     0.08   0.06  -0.00     0.01  -0.02  -0.05    -0.16  -0.12   0.00
   7   1    -0.09  -0.25  -0.34    -0.08  -0.29  -0.43     0.06   0.22   0.32
   8   6    -0.03  -0.01   0.02     0.03  -0.06  -0.15    -0.09  -0.04   0.05
   9   1     0.59   0.44  -0.00     0.00  -0.01  -0.02     0.21   0.16  -0.00
  10   6    -0.03   0.03   0.09    -0.02   0.06   0.14     0.01   0.11   0.19
  11   1    -0.27  -0.01   0.34     0.30  -0.01  -0.43     0.23  -0.01  -0.32
  12   6    -0.00  -0.00   0.00    -0.00   0.00   0.01    -0.01  -0.01   0.00
  13   8    -0.00  -0.00  -0.00    -0.07  -0.08  -0.06    -0.01  -0.01  -0.02
  14   8    -0.00  -0.00   0.00     0.10   0.04  -0.06    -0.02  -0.00   0.02
                     25                     26                     27
                        a                      a                      a 
 Frequencies --  1324.8035              1326.0374              1433.0623
 Red. masses --    11.9467                13.8148                 9.0486
 Frc consts  --     0.0000                 0.0000                 0.0000
 IR Inten    --     0.0323               744.8903                 5.2830
 Raman Activ --     0.0000                 0.0000                 0.0000
 Depolar     --     0.0000                 0.0000                 0.0000
 Atom AN      X      Y      Z        X      Y      Z        X      Y      Z
   1   6     0.22  -0.01  -0.31    -0.03  -0.01   0.02     0.05   0.17   0.23
   2   6     0.09   0.25   0.34     0.03   0.01  -0.02     0.16  -0.05  -0.29
   3   1     0.00   0.02   0.04    -0.00  -0.01  -0.01     0.09   0.11   0.08
   4   6    -0.33  -0.24  -0.00    -0.04   0.05   0.15    -0.34  -0.25   0.00
   5   1     0.02  -0.01  -0.04     0.01  -0.00  -0.01     0.14   0.06  -0.08
   6   6    -0.32  -0.23   0.00     0.00  -0.00  -0.01    -0.31  -0.23   0.00
   7   1    -0.00  -0.02  -0.02    -0.00  -0.03  -0.05     0.09   0.13   0.11
   8   6     0.27   0.01  -0.34    -0.02  -0.03  -0.02     0.00   0.16   0.29
   9   1    -0.03  -0.02  -0.00     0.00  -0.00  -0.00     0.29   0.22  -0.00
  10   6     0.06   0.22   0.31     0.01   0.02   0.03     0.17   0.00  -0.23
  11   1    -0.02   0.00   0.02     0.03  -0.01  -0.05     0.16   0.05  -0.11
  12   6     0.01   0.01   0.00     0.17  -0.23  -0.64    -0.01  -0.01   0.00
  13   8     0.00   0.01   0.02     0.27   0.33   0.23     0.02   0.03   0.03
  14   8     0.01  -0.00  -0.02    -0.40  -0.17   0.23     0.03   0.01  -0.03
                     28                     29                     30
                        a                      a                      a 
 Frequencies --  1460.6701              1590.7261              1596.0815
 Red. masses --     8.8375                11.7029                11.4697
 Frc consts  --     0.0000                 0.0000                 0.0000
 IR Inten    --    14.9589                24.8270                 3.4556
 Raman Activ --     0.0000                 0.0000                 0.0000
 Depolar     --     0.0000                 0.0000                 0.0000
 Atom AN      X      Y      Z        X      Y      Z        X      Y      Z
   1   6    -0.26  -0.10   0.17     0.27   0.12  -0.15    -0.21   0.07   0.41
   2   6     0.16   0.24   0.23    -0.20  -0.21  -0.10     0.00  -0.22  -0.40
   3   1    -0.02  -0.14  -0.22     0.02  -0.02  -0.06    -0.05  -0.08  -0.07
   4   6     0.09  -0.12  -0.34    -0.41  -0.30   0.00     0.06  -0.09  -0.24
   5   1     0.14  -0.02  -0.22    -0.01   0.02   0.06     0.09   0.03  -0.07
   6   6     0.07  -0.09  -0.25     0.42   0.31  -0.00    -0.05   0.07   0.19
   7   1    -0.02  -0.14  -0.23    -0.03   0.01   0.06     0.04   0.06   0.06
   8   6    -0.28  -0.08   0.23    -0.26  -0.13   0.10     0.20  -0.07  -0.40
   9   1     0.02  -0.03  -0.08    -0.10  -0.07   0.00    -0.01   0.02   0.05
  10   6     0.17   0.22   0.17     0.19   0.22   0.15    -0.00   0.22   0.41
  11   1     0.14  -0.02  -0.23     0.00  -0.03  -0.06    -0.07  -0.02   0.06
  12   6    -0.01   0.02   0.04    -0.12  -0.09   0.00    -0.00   0.00   0.00
  13   8     0.01   0.01   0.01     0.05   0.06   0.05     0.01   0.01   0.01
  14   8    -0.02  -0.00   0.01     0.08   0.03  -0.05    -0.01  -0.01   0.01
                     31                     32                     33
                        a                      a                      a 
 Frequencies --  1627.1947              3061.9140              3063.3190
 Red. masses --    13.1192                 1.7822                 1.7690
 Frc consts  --     0.0000                 0.0000                 0.0000
 IR Inten    --   807.4808                49.2899                54.2295
 Raman Activ --     0.0000                 0.0000                 0.0000
 Depolar     --     0.0000                 0.0000                 0.0000
 Atom AN      X      Y      Z        X      Y      Z        X      Y      Z
   1   6    -0.05  -0.03   0.01    -0.10  -0.12  -0.09     0.09   0.11   0.08
   2   6     0.03   0.04   0.03     0.05   0.02  -0.03    -0.06  -0.03   0.03
   3   1    -0.01   0.00   0.02     0.50   0.21  -0.30     0.51   0.21  -0.30
   4   6     0.11   0.08  -0.00    -0.00  -0.00  -0.00    -0.00   0.00   0.01
   5   1     0.00  -0.01  -0.02     0.36   0.44   0.31    -0.33  -0.40  -0.28
   6   6    -0.07  -0.05   0.00     0.00   0.00   0.00     0.00  -0.01  -0.02
   7   1     0.00  -0.01  -0.02    -0.21  -0.09   0.12     0.24   0.10  -0.13
   8   6     0.05   0.02  -0.03     0.04   0.04   0.03     0.05   0.05   0.03
   9   1     0.01   0.01  -0.00    -0.00  -0.00  -0.00    -0.02   0.03   0.08
  10   6    -0.05  -0.04  -0.01    -0.14  -0.06   0.09    -0.14  -0.06   0.08
  11   1    -0.01   0.00   0.02    -0.14  -0.16  -0.11    -0.18  -0.21  -0.14
  12   6    -0.66  -0.49   0.00    -0.00  -0.00  -0.00    -0.00   0.00   0.00
  13   8     0.23   0.26   0.15     0.00   0.00  -0.00    -0.00  -0.00  -0.00
  14   8     0.31   0.15  -0.15     0.00   0.00   0.00     0.00   0.00  -0.00
                     34                     35                     36
                        a                      a                      a 
 Frequencies --  3073.0916              3076.7473              3090.9705
 Red. masses --     1.7902                 1.8647                 1.9174
 Frc consts  --     0.0000                 0.0000                 0.0000
 IR Inten    --     9.6159               226.1005                86.2163
 Raman Activ --     0.0000                 0.0000                 0.0000
 Depolar     --     0.0000                 0.0000                 0.0000
 Atom AN      X      Y      Z        X      Y      Z        X      Y      Z
   1   6    -0.04  -0.05  -0.04    -0.04  -0.05  -0.04    -0.03  -0.03  -0.02
   2   6    -0.10  -0.04   0.05    -0.15  -0.06   0.08    -0.10  -0.05   0.06
   3   1    -0.21  -0.09   0.12     0.20   0.08  -0.12    -0.13  -0.05   0.07
   4   6     0.00  -0.00  -0.00     0.00   0.00   0.00     0.00  -0.00  -0.00
   5   1     0.15   0.18   0.12     0.14   0.17   0.12     0.09   0.10   0.07
   6   6     0.04  -0.06  -0.16     0.00   0.00   0.00    -0.05   0.07   0.19
   7   1     0.37   0.16  -0.20     0.52   0.22  -0.29     0.34   0.15  -0.19
   8   6     0.07   0.08   0.05    -0.11  -0.12  -0.08     0.08   0.09   0.06
   9   1    -0.15   0.21   0.58     0.00  -0.00  -0.00     0.17  -0.23  -0.66
  10   6     0.06   0.03  -0.04    -0.06  -0.02   0.04     0.04   0.01  -0.02
  11   1    -0.26  -0.30  -0.20     0.37   0.43   0.29    -0.24  -0.29  -0.19
  12   6     0.00  -0.00  -0.00    -0.00  -0.00   0.00     0.00  -0.00  -0.00
  13   8     0.00   0.00   0.00     0.00   0.00  -0.00     0.00   0.00   0.00
  14   8    -0.00  -0.00   0.00     0.00   0.00   0.00    -0.00  -0.00   0.00
