      -----------------------------------------------------------      
     |                   =====================                   |     
     |                           x T B                           |     
     |                   =====================                   |     
     |                         S. Grimme                         |     
     |          Mulliken Center for Theoretical Chemistry        |     
     |                    University of Bonn                     |     
      -----------------------------------------------------------      

   * xtb version 6.7.1 (edcfbbe) compiled by 'albert@albert-system' on 2024-07-22

   xtb is free software: you can redistribute it and/or modify it under
   the terms of the GNU Lesser General Public License as published by
   the Free Software Foundation, either version 3 of the License, or
   (at your option) any later version.
   
   xtb is distributed in the hope that it will be useful,
   but WITHOUT ANY WARRANTY; without even the implied warranty of
   MERCHANTABILITY or FITNESS FOR A PARTICULAR PURPOSE.  See the
   GNU Lesser General Public License for more details.
   
   Cite this work as:
   * C. Bannwarth, E. Caldeweyher, S. Ehlert, A. Hansen, P. Pracht,
     J. Seibert, S. Spicher, S. Grimme, WIREs Comput. Mol. Sci., 2020, 11,
     e01493. DOI: 10.1002/wcms.1493
   
   for GFN2-xTB:
   * C. Bannwarth, S. Ehlert and S. Grimme., J. Chem. Theory Comput., 2019,
     15, 1652-1671. DOI: 10.1021/acs.jctc.8b01176
   for GFN1-xTB:
   * S. Grimme, C. Bannwarth, P. Shushkov, J. Chem. Theory Comput., 2017,
     13, 1989-2009. DOI: 10.1021/acs.jctc.7b00118
   for GFN0-xTB:
   * P. Pracht, E. Caldeweyher, S. Ehlert, S. Grimme, ChemRxiv, 2019, preprint.
     DOI: 10.26434/chemrxiv.8326202.v1
   for GFN-FF:
   * S. Spicher and S. Grimme, Angew. Chem. Int. Ed., 2020, 59, 15665-15673.
     DOI: 10.1002/anie.202004239
   
   for ALPB and GBSA implicit solvation:
   * S. Ehlert, M. Stahn, S. Spicher, S. Grimme, J. Chem. Theory Comput.,
     2021, 17, 4250-4261. DOI: 10.1021/acs.jctc.1c00471
   
   for ddCOSMO and CPCM-X implicit solvation:
   * M. Stahn, S. Ehlert, S. Grimme, J. Phys. Chem. A,
     2023, XX, XXXX-XXXX. DOI: 10.1021/acs.jpca.3c04382
   
   for DFT-D4:
   * E. Caldeweyher, C. Bannwarth and S. Grimme, J. Chem. Phys., 2017,
     147, 034112. DOI: 10.1063/1.4993215
   * E. Caldeweyher, S. Ehlert, A. Hansen, H. Neugebauer, S. Spicher,
     C. Bannwarth and S. Grimme, J. Chem. Phys., 2019, 150, 154122.
     DOI: 10.1063/1.5090222
   * E. Caldeweyher, J.-M. Mewes, S. Ehlert and S. Grimme, Phys. Chem. Chem. Phys.
     2020, 22, 8499-8512. DOI: 10.1039/D0CP00502A
   
   for sTDA-xTB:
   * S. Grimme and C. Bannwarth, J. Chem. Phys., 2016, 145, 054103.
     DOI: 10.1063/1.4959605
   
   in the mass-spec context:
   * V. Asgeirsson, C. Bauer and S. Grimme, Chem. Sci., 2017, 8, 4879.
     DOI: 10.1039/c7sc00601b
   * J. Koopman and S. Grimme, ACS Omega 2019, 4, 12, 15120-15133.
     DOI: 10.1021/acsomega.9b02011
   
   for metadynamics refer to:
   * S. Grimme, J. Chem. Theory Comput., 2019, 155, 2847-2862
     DOI: 10.1021/acs.jctc.9b00143
   
   for SPH calculations refer to:
   * S. Spicher and S. Grimme, J. Chem. Theory Comput., 2021, 17, 1701-1714
     DOI: 10.1021/acs.jctc.0c01306
   
   for ONIOM refer to:
   * C. Plett, A. Katbashev, S. Ehlert, S. Grimme, M. Bursch,
     Phys. Chem. Chem. Phys., 2023, 25, 17860-17868. DOI: 10.1039/D3CP02178E
   
   for DIPRO refer to:
   * J. Kohn, N. Gildemeister, S. Grimme, D. Fazzi, A. Hansen,
     J. Chem. Phys., 2023, just accepted.
   
   for PTB refer to:
   * S. Grimme, M. Mueller, A. Hansen, J. Chem. Phys., 2023, 158, 124111.
     DOI: 10.1063/5.0137838
   
   with help from (in alphabetical order)
   P. Atkinson, C. Bannwarth, F. Bohle, G. Brandenburg, E. Caldeweyher
   M. Checinski, S. Dohm, S. Ehlert, S. Ehrlich, I. Gerasimov, C. Hölzer
   A. Katbashev, J. Kohn, J. Koopman, C. Lavigne, S. Lehtola, F. März, M. Müller,
   F. Musil, H. Neugebauer, J. Pisarek, C. Plett, P. Pracht, F. Pultar,
   J. Seibert, P. Shushkov, S. Spicher, M. Stahn, M. Steiner, T. Strunk,
   J. Stückrath, T. Rose, and J. Unsleber
   
 * started run on 2025/10/18 at 03:34:29.903     
   ID    Z sym.   atoms
    1    6 C      1, 2, 4, 6, 8, 10, 12
    2    1 H      3, 5, 7, 9, 11
    3    8 O      13, 14

           -------------------------------------------------
          |                Calculation Setup                |
           -------------------------------------------------

          program call               : xtb xyz.xyz --alpb water --charge -1 --ohess
          hostname                   : m003
          coordinate file            : xyz.xyz
          omp threads                :                     2


           -------------------------------------------------
          |                 G F N 2 - x T B                 |
           -------------------------------------------------

        Reference                      10.1021/acs.jctc.8b01176
      * Hamiltonian:
        H0-scaling (s, p, d)           1.850000    2.230000    2.230000
        zeta-weighting                 0.500000
      * Dispersion:
        s8                             2.700000
        a1                             0.520000
        a2                             5.000000
        s9                             5.000000
      * Repulsion:
        kExp                           1.500000    1.000000
        rExp                           1.000000
      * Coulomb:
        alpha                          2.000000
        third order                    shell-resolved
        anisotropic                    true
        a3                             3.000000
        a5                             4.000000
        cn-shift                       1.200000
        cn-exp                         4.000000
        max-rad                        5.000000

      * Solvation model:               ALPB
        Solvent                        water
        Parameter file                 internal GFN2-xTB/ALPB
        Dielectric constant                8.0200E+01
        Reference state                gsolv [1 M gas/solution]
        Free energy shift                  1.0808E-03 Eh       6.7819E-01 kcal/mol
        Temperature                        2.9815E+02 K
        Density                            1.0000E+00 kg/L
        Solvent mass                       1.8000E+01 g/mol
        Interaction kernel             P16
        Born radius scaling (c1)           1.4744E+00
        Born radii integrator          GBOBC
        Born offset                        0.0000E+00 a0       0.0000E+00 AA
        H-bond correction              true
        Ion screening                  false
        Surface tension                    1.0000E-05 Eh       1.5569E+01 dyn/cm
        Grid points                               230 per atom

          ...................................................
          :                      SETUP                      :
          :.................................................:
          :  # basis functions                  41          :
          :  # atomic orbitals                  41          :
          :  # shells                           23          :
          :  # electrons                        46          :
          :  max. iterations                   250          :
          :  Hamiltonian                  GFN2-xTB          :
          :  restarted?                      false          :
          :  GBSA solvation                   true          :
          :  PC potential                    false          :
          :  electronic temp.          300.0000000     K    :
          :  accuracy                    1.0000000          :
          :  -> integral cutoff          0.2500000E+02      :
          :  -> integral neglect         0.1000000E-07      :
          :  -> SCF convergence          0.1000000E-05 Eh   :
          :  -> wf. convergence          0.1000000E-03 e    :
          :  Broyden damping             0.4000000          :
          :  net charge                         -1          :
          :  unpaired electrons                  0          :
          ...................................................

 iter      E             dE          RMSdq      gap      omega  full diag
   1    -26.2486373 -0.262486E+02  0.539E+00    3.42       0.0  T
   2    -26.3126651 -0.640279E-01  0.272E+00    3.45       1.0  T
   3    -26.3141616 -0.149652E-02  0.131E+00    3.24       1.0  T
   4    -26.3207052 -0.654359E-02  0.421E-01    3.04       1.0  T
   5    -26.3214773 -0.772034E-03  0.111E-01    3.12       1.0  T
   6    -26.3215529 -0.756563E-04  0.510E-02    3.13       1.0  T
   7    -26.3215580 -0.510648E-05  0.256E-02    3.14       1.0  T
   8    -26.3215599 -0.189755E-05  0.565E-03    3.14       4.7  T
   9    -26.3215601 -0.145858E-06  0.321E-03    3.14       8.3  T
  10    -26.3215601 -0.658388E-07  0.351E-04    3.14      76.2  T
  11    -26.3215601 -0.684928E-10  0.131E-04    3.14     203.9  T

   *** convergence criteria satisfied after 11 iterations ***

         #    Occupation            Energy/Eh            Energy/eV
      -------------------------------------------------------------
         1        2.0000           -0.6578276             -17.9004
       ...           ...                  ...                  ...
        17        2.0000           -0.4306975             -11.7199
        18        2.0000           -0.4161538             -11.3241
        19        2.0000           -0.3982560             -10.8371
        20        2.0000           -0.3953015             -10.7567
        21        2.0000           -0.3888610             -10.5814
        22        2.0000           -0.3730280             -10.1506
        23        2.0000           -0.3556959              -9.6790 (HOMO)
        24                         -0.2403849              -6.5412 (LUMO)
        25                         -0.2217437              -6.0340
        26                         -0.1569117              -4.2698
        27                         -0.0773722              -2.1054
        28                          0.1050165               2.8576
       ...                                ...                  ...
        41                          0.6502721              17.6948
      -------------------------------------------------------------
                  HL-Gap            0.1153111 Eh            3.1378 eV
             Fermi-level           -0.2980404 Eh           -8.1101 eV

 SCC (total)                   0 d,  0 h,  0 min,  0.065 sec
 SCC setup                      ...        0 min,  0.000 sec (  0.681%)
 Dispersion                     ...        0 min,  0.000 sec (  0.222%)
 classical contributions        ...        0 min,  0.000 sec (  0.052%)
 integral evaluation            ...        0 min,  0.001 sec (  2.013%)
 iterations                     ...        0 min,  0.060 sec ( 92.518%)
 molecular gradient             ...        0 min,  0.003 sec (  4.244%)
 printout                       ...        0 min,  0.000 sec (  0.213%)

         :::::::::::::::::::::::::::::::::::::::::::::::::::::
         ::                     SUMMARY                     ::
         :::::::::::::::::::::::::::::::::::::::::::::::::::::
         :: total energy             -25.985747413491 Eh    ::
         :: total w/o Gsasa/hb       -25.986288712425 Eh    ::
         :: gradient norm              0.044035370614 Eh/a0 ::
         :: HOMO-LUMO gap              3.137773983959 eV    ::
         ::.................................................::
         :: SCC energy               -26.321543299736 Eh    ::
         :: -> isotropic ES            0.238053197839 Eh    ::
         :: -> anisotropic ES          0.000058587352 Eh    ::
         :: -> anisotropic XC          0.008269770087 Eh    ::
         :: -> dispersion             -0.012051266263 Eh    ::
         :: -> Gsolv                  -0.116002333033 Eh    ::
         ::    -> Gelec               -0.116543631967 Eh    ::
         ::    -> Gsasa                0.002910508973 Eh    ::
         ::    -> Ghb                 -0.003449969738 Eh    ::
         ::    -> Gshift               0.001080759698 Eh    ::
         :: repulsion energy           0.335795886244 Eh    ::
         :: add. restraining           0.000000000000 Eh    ::
         :: total charge              -1.000000000000 e     ::
         :::::::::::::::::::::::::::::::::::::::::::::::::::::

      ----------------------------------------------------------- 
     |                   =====================                   |
     |                        A N C O P T                        |
     |                   =====================                   |
     |               Approximate Normal Coordinate               |
     |                Rational Function Optimizer                |
      ----------------------------------------------------------- 
      ----------------------------------------------------------- 
     |                   =====================                   |
     |                        A N C O P T                        |
     |                   =====================                   |
     |               Approximate Normal Coordinate               |
     |                Rational Function Optimizer                |
      ----------------------------------------------------------- 

          ...................................................
          :                      SETUP                      :
          :.................................................:
          :   optimization level            normal          :
          :   max. optcycles                   200          :
          :   ANC micro-cycles                  20          :
          :   degrees of freedom                36          :
          :.................................................:
          :   RF solver                   davidson          :
          :   write xtbopt.log                true          :
          :   linear?                        false          :
          :   energy convergence         0.5000000E-05 Eh   :
          :   grad. convergence          0.1000000E-02 Eh/α :
          :   maxmium RF displ.          1.0000000          :
          :   Hlow (freq-cutoff)         0.1000000E-01      :
          :   Hmax (freq-cutoff)         5.0000000          :
          :   S6 in model hess.         20.0000000          :
          ...................................................

generating ANC from exact Hessian ...
Using Lindh-Hessian (1995)
 Shifting diagonal of input Hessian by   5.061917514263889E-003
 Lowest  eigenvalues of input Hessian
    0.000000    0.000000    0.000000    0.000000    0.000000    0.000000
    0.010000    0.014328    0.019373    0.021427    0.023823    0.028383
    0.046144    0.069442    0.069776    0.075235    0.096571    0.098158
 Highest eigenvalues
    1.510350    1.697026    1.816420    1.915157    1.953512    2.225540
 

........................................................................
.............................. CYCLE    1 ..............................
........................................................................

 iter      E             dE          RMSdq      gap      omega  full diag
   1    -26.3215601 -0.263216E+02  0.330E-05    3.14       0.0  T
   2    -26.3215601 -0.127898E-11  0.225E-05    3.14    1189.5  T
   3    -26.3215601 -0.294875E-12  0.111E-05    3.14    2407.8  T
     SCC iter.                  ...        0 min,  0.001 sec
     gradient                   ...        0 min,  0.002 sec
 * total energy  :   -25.9857474 Eh     change       -0.1078462E-09 Eh
   gradient norm :     0.0440342 Eh/α   predicted     0.0000000E+00 (-100.00%)
   displ. norm   :     0.1200268 α      lambda       -0.3417018E-02
   maximum displ.:     0.0733990 α      in ANC's #8, #19, #20, ...

........................................................................
.............................. CYCLE    2 ..............................
........................................................................

 iter      E             dE          RMSdq      gap      omega  full diag
   1    -26.3463373 -0.263463E+02  0.145E-01    3.19       0.0  T
   2    -26.3463827 -0.453760E-04  0.882E-02    3.19       1.0  T
   3    -26.3463864 -0.369005E-05  0.425E-02    3.19       1.0  T
   4    -26.3463895 -0.317257E-05  0.542E-03    3.20       4.9  T
   5    -26.3463896 -0.478634E-07  0.354E-03    3.20       7.5  T
   6    -26.3463896 -0.289681E-07  0.754E-04    3.20      35.4  T
   7    -26.3463896 -0.592941E-09  0.383E-04    3.20      69.7  T
     SCC iter.                  ...        0 min,  0.003 sec
     gradient                   ...        0 min,  0.002 sec
 * total energy  :   -25.9878087 Eh     change       -0.2061299E-02 Eh
   gradient norm :     0.0108999 Eh/α   predicted    -0.1733122E-02 ( -15.92%)
   displ. norm   :     0.0375373 α      lambda       -0.2277891E-03
   maximum displ.:     0.0238415 α      in ANC's #8, #11, #22, ...

........................................................................
.............................. CYCLE    3 ..............................
........................................................................

 iter      E             dE          RMSdq      gap      omega  full diag
   1    -26.3516007 -0.263516E+02  0.451E-02    3.21       0.0  T
   2    -26.3516039 -0.316171E-05  0.267E-02    3.21       1.0  T
   3    -26.3516040 -0.114053E-06  0.121E-02    3.21       2.2  T
   4    -26.3516044 -0.374141E-06  0.166E-03    3.22      16.1  T
   5    -26.3516044 -0.548327E-08  0.104E-03    3.22      25.8  T
   6    -26.3516044 -0.285184E-08  0.495E-04    3.22      54.0  T
   7    -26.3516044 -0.268756E-09  0.172E-04    3.22     155.1  T
     SCC iter.                  ...        0 min,  0.003 sec
     gradient                   ...        0 min,  0.002 sec
 * total energy  :   -25.9879342 Eh     change       -0.1254461E-03 Eh
   gradient norm :     0.0026607 Eh/α   predicted    -0.1140558E-03 (  -9.08%)
   displ. norm   :     0.0151028 α      lambda       -0.2212054E-04
   maximum displ.:     0.0103789 α      in ANC's #11, #8, #7, ...

........................................................................
.............................. CYCLE    4 ..............................
........................................................................

 iter      E             dE          RMSdq      gap      omega  full diag
   1    -26.3515049 -0.263515E+02  0.182E-02    3.22       0.0  T
   2    -26.3515050 -0.840398E-07  0.108E-02    3.22       2.5  T
   3    -26.3515049  0.533659E-07  0.257E-03    3.22      10.4  T
   4    -26.3515050 -0.732623E-07  0.385E-04    3.22      69.3  T
   5    -26.3515050 -0.615870E-09  0.156E-04    3.22     171.0  T
     SCC iter.                  ...        0 min,  0.002 sec
     gradient                   ...        0 min,  0.002 sec
 * total energy  :   -25.9879453 Eh     change       -0.1110320E-04 Eh
   gradient norm :     0.0016951 Eh/α   predicted    -0.1106356E-04 (  -0.36%)
   displ. norm   :     0.0342427 α      lambda       -0.2556656E-04
   maximum displ.:     0.0227542 α      in ANC's #11, #7, #8, ...

........................................................................
.............................. CYCLE    5 ..............................
........................................................................

 iter      E             dE          RMSdq      gap      omega  full diag
   1    -26.3505050 -0.263505E+02  0.433E-02    3.22       0.0  T
   2    -26.3505055 -0.470571E-06  0.259E-02    3.22       1.0  T
   3    -26.3505052  0.294364E-06  0.594E-03    3.22       4.5  T
   4    -26.3505056 -0.396723E-06  0.845E-04    3.22      31.6  T
   5    -26.3505056 -0.396212E-08  0.373E-04    3.22      71.6  T
     SCC iter.                  ...        0 min,  0.002 sec
     gradient                   ...        0 min,  0.002 sec
 * total energy  :   -25.9879187 Eh     change        0.2655346E-04 Eh
   gradient norm :     0.0038867 Eh/α   predicted    -0.1278928E-04 (-148.16%)
   displ. norm   :     0.0161467 α      lambda       -0.4384846E-04
   maximum displ.:     0.0102170 α      in ANC's #11, #7, #8, ...

........................................................................
.............................. CYCLE    6 ..............................
........................................................................

 iter      E             dE          RMSdq      gap      omega  full diag
   1    -26.3507238 -0.263507E+02  0.210E-02    3.22       0.0  T
   2    -26.3507239 -0.832065E-07  0.125E-02    3.22       2.1  T
   3    -26.3507239  0.596517E-07  0.261E-03    3.22      10.2  T
   4    -26.3507239 -0.796288E-07  0.382E-04    3.22      69.9  T
   5    -26.3507239 -0.613163E-09  0.167E-04    3.22     160.2  T
     SCC iter.                  ...        0 min,  0.002 sec
     gradient                   ...        0 min,  0.002 sec
 * total energy  :   -25.9879479 Eh     change       -0.2917642E-04 Eh
   gradient norm :     0.0012896 Eh/α   predicted    -0.2192916E-04 ( -24.84%)
   displ. norm   :     0.0119511 α      lambda       -0.7256889E-05
   maximum displ.:     0.0075414 α      in ANC's #11, #7, #19, ...

........................................................................
.............................. CYCLE    7 ..............................
........................................................................

 iter      E             dE          RMSdq      gap      omega  full diag
   1    -26.3510406 -0.263510E+02  0.156E-02    3.22       0.0  T
   2    -26.3510406 -0.549432E-07  0.933E-03    3.22       2.9  T
   3    -26.3510406  0.369152E-07  0.208E-03    3.22      12.9  T
   4    -26.3510406 -0.493458E-07  0.291E-04    3.22      91.7  T
   5    -26.3510406 -0.433193E-09  0.133E-04    3.22     200.6  T
     SCC iter.                  ...        0 min,  0.002 sec
     gradient                   ...        0 min,  0.002 sec
 * total energy  :   -25.9879506 Eh     change       -0.2721258E-05 Eh
   gradient norm :     0.0006507 Eh/α   predicted    -0.3627996E-05 (  33.32%)
   displ. norm   :     0.0040097 α      lambda       -0.1214520E-05
   maximum displ.:     0.0025889 α      in ANC's #11, #7, #8, ...

   *** GEOMETRY OPTIMIZATION CONVERGED AFTER 7 ITERATIONS ***

------------------------------------------------------------------------
 total energy gain   :        -0.0022032 Eh       -1.3825 kcal/mol
 total RMSD          :         0.0428139 a0        0.0227 Å
 total power (kW/mol):        -0.8263544 (step) -137.9723 (real)
------------------------------------------------------------------------

 ANCopt (total)                0 d,  0 h,  0 min,  0.042 sec
 optimizer setup                ...        0 min,  0.000 sec (  0.451%)
 model hessian                  ...        0 min,  0.001 sec (  3.464%)
 ANC generation                 ...        0 min,  0.000 sec (  0.541%)
 coordinate transformation      ...        0 min,  0.000 sec (  0.139%)
 single point calculation       ...        0 min,  0.039 sec ( 91.917%)
 optimization log               ...        0 min,  0.000 sec (  0.987%)
 hessian update                 ...        0 min,  0.000 sec (  0.157%)
 rational function              ...        0 min,  0.001 sec (  1.558%)

================
 final structure:
================
14
 xtb: 6.7.1 (edcfbbe)
C           -4.17412133517046       -1.98634737165492        1.99357233577057
C           -3.84029018417193       -2.43707166932949        0.72955486408115
H           -6.97877040126783       -3.77226802211263        2.51593779572414
C           -5.30720782760326       -2.47030815850258        2.63507984862542
H           -3.57248383227351       -1.25389206242230        2.51452408246464
C           -4.63828312638544       -3.37651214304971        0.09682601740105
H           -2.95732116861932       -2.05443130445986        0.23971786300110
C           -5.76998842020365       -3.86389186720234        0.73037861025484
H           -4.37829864362016       -3.72868747503215       -0.88993305718175
C           -6.10236417332148       -3.41206305784251        1.99438591625817
H           -6.39492393924882       -4.59608617857661        0.24115365896430
C           -5.67340642029585       -1.97429462752814        4.02474108371659
O           -4.91843506985715       -1.12297882612371        4.55138016992061
O           -6.70863445796114       -2.44607223616306        4.55180881099918
 
 Bond Distances (Angstroems)
 ---------------------------
C1-C2=1.3829         C1-C4=1.3891         C1-H5=1.0816         C2-C1=1.3829         C2-C6=1.3855         C2-H7=1.0798         
H3-C10=1.0816        C4-C1=1.3891         C4-C10=1.3891        C4-C12=1.5203        H5-C1=1.0816         C6-C2=1.3855         
C6-C8=1.3855         C6-H9=1.0795         H7-C2=1.0798         C8-C6=1.3855         C8-C10=1.3829        C8-H11=1.0798        
H9-C6=1.0795         C10-H3=1.0816        C10-C4=1.3891        C10-C8=1.3829        H11-C8=1.0798        C12-C4=1.5203        
C12-O13=1.2538       C12-O14=1.2538       O13-C12=1.2538       O14-C12=1.2538       
 C  H  Rav=1.0805 sigma=0.0009  Rmin=1.0795  Rmax=1.0816     5
 C  C  Rav=1.4050 sigma=0.0471  Rmin=1.3829  Rmax=1.5203     7
 O  C  Rav=1.2538 sigma=0.0000  Rmin=1.2538  Rmax=1.2538     2
 
 selected bond angles (degree)
 --------------------
C4-C1-C2=120.36                H5-C1-C2=121.78                H5-C1-C4=117.85                C6-C2-C1=119.96                
H7-C2-C1=119.77                H7-C2-C6=120.27                C10-C4-C1=119.35               C12-C4-C1=120.33               
C12-C4-C10=120.32              C8-C6-C2=120.01                H9-C6-C2=120.00                H9-C6-C8=120.00                
C10-C8-C6=119.96               H11-C8-C6=120.27               H11-C8-C10=119.77              C4-C10-H3=117.85               
C8-C10-H3=121.78               C8-C10-C4=120.36               
 
 selected dihedral angles (degree)
 ---------------------------------
C6-C2-C1-C4=  0.00            C6-C2-C1-H5=180.00            H7-C2-C1-C4=180.00            H7-C2-C1-H5=  0.00            
C10-C4-C1-C2=  0.00           C10-C4-C1-H5=180.00           C12-C4-C1-C2=180.00           C12-C4-C1-H5=  0.00           
C8-C6-C2-C1=  0.00            C8-C6-C2-H7=180.00            H9-C6-C2-C1=179.99            H9-C6-C2-H7=  0.00            
C10-C8-C6-C2=  0.00           C10-C8-C6-H9=180.01           H11-C8-C6-C2=180.00           H11-C8-C6-H9=  0.00           
H3-C10-C4-C1=180.01           H3-C10-C4-C12=  0.00          C8-C10-C4-C1=  0.00           C8-C10-C4-C12=180.00          
H3-C10-C8-C6=179.99           H3-C10-C8-H11=  0.00          C4-C10-C8-C6=  0.00           C4-C10-C8-H11=180.00          
           -------------------------------------------------
          |                Final Singlepoint                |
           -------------------------------------------------

          ...................................................
          :                      SETUP                      :
          :.................................................:
          :  # basis functions                  41          :
          :  # atomic orbitals                  41          :
          :  # shells                           23          :
          :  # electrons                        46          :
          :  max. iterations                   250          :
          :  Hamiltonian                  GFN2-xTB          :
          :  restarted?                      false          :
          :  GBSA solvation                   true          :
          :  PC potential                    false          :
          :  electronic temp.          300.0000000     K    :
          :  accuracy                    1.0000000          :
          :  -> integral cutoff          0.2500000E+02      :
          :  -> integral neglect         0.1000000E-07      :
          :  -> SCF convergence          0.1000000E-05 Eh   :
          :  -> wf. convergence          0.1000000E-03 e    :
          :  Broyden damping             0.4000000          :
          :  net charge                         -1          :
          :  unpaired electrons                  0          :
          ...................................................

 iter      E             dE          RMSdq      gap      omega  full diag
   1    -26.3510406 -0.263510E+02  0.717E-05    3.22       0.0  T
   2    -26.3510406 -0.415668E-11  0.439E-05    3.22     608.1  T
   3    -26.3510406  0.735412E-12  0.205E-05    3.22    1301.6  T

   *** convergence criteria satisfied after 3 iterations ***

         #    Occupation            Energy/Eh            Energy/eV
      -------------------------------------------------------------
         1        2.0000           -0.6610684             -17.9886
       ...           ...                  ...                  ...
        17        2.0000           -0.4307233             -11.7206
        18        2.0000           -0.4149349             -11.2910
        19        2.0000           -0.3998781             -10.8812
        20        2.0000           -0.3960381             -10.7767
        21        2.0000           -0.3896238             -10.6022
        22        2.0000           -0.3717288             -10.1153
        23        2.0000           -0.3535694              -9.6211 (HOMO)
        24                         -0.2353288              -6.4036 (LUMO)
        25                         -0.2178587              -5.9282
        26                         -0.1496115              -4.0711
        27                         -0.0682573              -1.8574
        28                          0.1159077               3.1540
       ...                                ...                  ...
        41                          0.6972408              18.9729
      -------------------------------------------------------------
                  HL-Gap            0.1182406 Eh            3.2175 eV
             Fermi-level           -0.2944491 Eh           -8.0124 eV

 SCC (total)                   0 d,  0 h,  0 min,  0.005 sec
 SCC setup                      ...        0 min,  0.000 sec (  4.812%)
 Dispersion                     ...        0 min,  0.000 sec (  1.322%)
 classical contributions        ...        0 min,  0.000 sec (  0.270%)
 integral evaluation            ...        0 min,  0.001 sec ( 19.706%)
 iterations                     ...        0 min,  0.001 sec ( 24.723%)
 molecular gradient             ...        0 min,  0.002 sec ( 46.923%)
 printout                       ...        0 min,  0.000 sec (  1.658%)

         :::::::::::::::::::::::::::::::::::::::::::::::::::::
         ::                     SUMMARY                     ::
         :::::::::::::::::::::::::::::::::::::::::::::::::::::
         :: total energy             -25.987950605963 Eh    ::
         :: total w/o Gsasa/hb       -25.988523231101 Eh    ::
         :: gradient norm              0.000650493512 Eh/a0 ::
         :: HOMO-LUMO gap              3.217490448818 eV    ::
         ::.................................................::
         :: SCC energy               -26.351024157401 Eh    ::
         :: -> isotropic ES            0.236877379550 Eh    ::
         :: -> anisotropic ES         -0.000950752699 Eh    ::
         :: -> anisotropic XC          0.007134162717 Eh    ::
         :: -> dispersion             -0.012147436925 Eh    ::
         :: -> Gsolv                  -0.115222541367 Eh    ::
         ::    -> Gelec               -0.115795166505 Eh    ::
         ::    -> Gsasa                0.002872797702 Eh    ::
         ::    -> Ghb                 -0.003380932262 Eh    ::
         ::    -> Gshift               0.001080759698 Eh    ::
         :: repulsion energy           0.363073551438 Eh    ::
         :: add. restraining           0.000000000000 Eh    ::
         :: total charge              -1.000000000000 e     ::
         :::::::::::::::::::::::::::::::::::::::::::::::::::::

           ------------------------------------------------- 
          |                Numerical Hessian                |
           ------------------------------------------------- 
step length          :   0.00500
SCC accuracy         :   0.30000
Hessian scale factor :   1.00000
frozen atoms in %    :   0.00000    0
RMS gradient         :   0.00065
estimated CPU  time      0.02 min
estimated wall time      0.01 min

writing file <hessian>.

 projected vibrational frequencies (cm⁻¹)
eigval :       -0.00    -0.00    -0.00     0.00     0.00     0.00
eigval :       28.37   141.90   191.85   362.34   367.43   399.53
eigval :      508.87   587.09   638.99   642.09   698.59   786.99
eigval :      791.73   879.47   905.15   924.57   931.41   981.33
eigval :     1075.64  1107.11  1155.18  1173.47  1189.91  1272.40
eigval :     1324.80  1326.04  1433.06  1460.67  1590.73  1596.08
eigval :     1627.19  3061.91  3063.32  3073.09  3076.75  3090.97
           -------------------------------------------------
          |                Property Printout                |
           -------------------------------------------------

    * Orbital Energies and Occupations

         #    Occupation            Energy/Eh            Energy/eV
      -------------------------------------------------------------
         1        2.0000           -0.6610684             -17.9886
       ...           ...                  ...                  ...
        11        2.0000           -0.4968498             -13.5200
        12        2.0000           -0.4946919             -13.4613
        13        2.0000           -0.4829754             -13.1424
        14        2.0000           -0.4722734             -12.8512
        15        2.0000           -0.4690429             -12.7633
        16        2.0000           -0.4672806             -12.7154
        17        2.0000           -0.4307232             -11.7206
        18        2.0000           -0.4149348             -11.2910
        19        2.0000           -0.3998780             -10.8812
        20        2.0000           -0.3960381             -10.7767
        21        2.0000           -0.3896238             -10.6022
        22        2.0000           -0.3717287             -10.1153
        23        2.0000           -0.3535694              -9.6211 (HOMO)
        24                         -0.2353288              -6.4036 (LUMO)
        25                         -0.2178587              -5.9282
        26                         -0.1496116              -4.0711
        27                         -0.0682572              -1.8574
        28                          0.1159077               3.1540
        29                          0.1333146               3.6277
        30                          0.1679578               4.5704
        31                          0.1744363               4.7467
        32                          0.2022769               5.5042
        33                          0.2056423               5.5958
        34                          0.3923424              10.6762
       ...                                ...                  ...
        41                          0.6972409              18.9729
      -------------------------------------------------------------
                  HL-Gap            0.1182406 Eh            3.2175 eV
             Fermi-level           -0.2944491 Eh           -8.0124 eV

     #   Z          covCN         q      C6AA      α(0)
     1   6 C        2.923    -0.026    28.662     8.780
     2   6 C        2.919    -0.038    28.947     8.823
     3   1 H        0.925     0.023     2.691     2.565
     4   6 C        2.969    -0.047    29.151     8.856
     5   1 H        0.925     0.023     2.691     2.565
     6   6 C        2.921    -0.037    28.919     8.819
     7   1 H        0.926     0.045     2.380     2.413
     8   6 C        2.919    -0.038    28.947     8.823
     9   1 H        0.926     0.054     2.272     2.357
    10   6 C        2.923    -0.026    28.662     8.780
    11   1 H        0.926     0.045     2.380     2.413
    12   6 C        2.691     0.358    20.930     7.487
    13   8 O        0.856    -0.668    27.839     7.074
    14   8 O        0.856    -0.668    27.839     7.074

 Mol. C6AA /au·bohr⁶  :       3036.411901
 Mol. C8AA /au·bohr⁸  :      74067.422385
 Mol. α(0) /au        :         86.827783


Wiberg/Mayer (AO) data.
largest (>0.10) Wiberg bond orders for each atom

 ---------------------------------------------------------------------------
     #   Z sym  total        # sym  WBO       # sym  WBO       # sym  WBO
 ---------------------------------------------------------------------------
     1   6 C    3.991 --     2 C    1.448     4 C    1.406     5 H    0.968
                             8 C    0.109
     2   6 C    3.990 --     1 C    1.448     6 C    1.435     7 H    0.969
                            10 C    0.109
     3   1 H    0.999 --    10 C    0.968
     4   6 C    3.982 --     1 C    1.406    10 C    1.406    12 C    0.947
                             6 C    0.109
     5   1 H    0.999 --     1 C    0.968
     6   6 C    3.990 --     2 C    1.435     8 C    1.435     9 H    0.969
                             4 C    0.109
     7   1 H    0.997 --     2 C    0.969
     8   6 C    3.990 --    10 C    1.448     6 C    1.435    11 H    0.969
                             1 C    0.109
     9   1 H    0.997 --     6 C    0.969
    10   6 C    3.991 --     8 C    1.448     4 C    1.406     3 H    0.968
                             2 C    0.109
    11   1 H    0.997 --     8 C    0.969
    12   6 C    3.928 --    13 O    1.472    14 O    1.472     4 C    0.947
    13   8 O    1.773 --    12 C    1.472    14 O    0.214
    14   8 O    1.773 --    12 C    1.472    13 O    0.214
 ---------------------------------------------------------------------------

Topologies differ in total number of bonds
Writing topology from bond orders to xtbtopo.mol

molecular dipole:
                 x           y           z       tot (Debye)
 q only:       11.129       3.179      -9.139
   full:       11.116       3.196      -9.091      37.393
molecular quadrupole (traceless):
                xx          xy          yy          xz          yz          zz
 q only:      -81.348     -56.846      91.580     150.742      46.042     -10.232
  q+dip:      -80.692     -55.516      90.718     149.533      46.368     -10.027
   full:      -80.805     -57.382      91.749     150.627      44.888     -10.944

           -------------------------------------------------
          |                Geometry Summary                 |
           -------------------------------------------------

      molecular mass/u    :      121.1136649
   center of mass at/Å    :       -5.2591139      -2.5354860       2.4513500
  moments of inertia/u·Å² :        0.1270204E+03   0.4013118E+03   0.5283322E+03
rotational constants/cm⁻¹ :        0.1327159E+00   0.4200632E-01   0.3190726E-01

 * 11 selected distances

     #   Z          #   Z                                           value/Å
     1   6 C        2   6 C                                       1.3828724
     1   6 C        4   6 C                                       1.3891131
     1   6 C        5   1 H                                       1.0815958
     2   6 C        6   6 C                                       1.3855278
     2   6 C        7   1 H                                       1.0798094
     6   6 C        8   6 C                                       1.3855270
     6   6 C        9   1 H                                       1.0794967 (min)
     3   1 H       10   6 C                                       1.0815970
     4   6 C       10   6 C                                       1.3891238 (max)
     8   6 C       10   6 C                                       1.3828730
     8   6 C       11   1 H                                       1.0798121

 * 2 distinct bonds (by element types)

   Z      Z             #   av. dist./Å        max./Å        min./Å
   1 H    6 C           5     1.0804622     1.0815970     1.0794967
   6 C    6 C           6     1.3858395     1.3891238     1.3828724

           -------------------------------------------------
          |               Frequency Printout                |
           -------------------------------------------------
 projected vibrational frequencies (cm⁻¹)
eigval :       -0.00    -0.00    -0.00     0.00     0.00     0.00
eigval :       28.37   141.90   191.85   362.34   367.43   399.53
eigval :      508.87   587.09   638.99   642.09   698.59   786.99
eigval :      791.73   879.47   905.15   924.57   931.41   981.33
eigval :     1075.64  1107.11  1155.18  1173.47  1189.91  1272.40
eigval :     1324.80  1326.04  1433.06  1460.67  1590.73  1596.08
eigval :     1627.19  3061.91  3063.32  3073.09  3076.75  3090.97
 reduced masses (amu)
   1: 13.27   2: 12.95   3: 12.02   4: 12.91   5: 11.58   6: 12.45   7: 14.05   8: 11.28
   9: 12.91  10:  8.86  11: 13.42  12: 10.05  13: 13.64  14: 11.19  15: 12.82  16: 11.02
  17:  6.00  18:  8.45  19: 12.97  20:  3.35  21:  4.07  22:  2.60  23:  4.11  24: 11.21
  25:  6.67  26:  3.69  27:  8.01  28:  1.39  29:  3.80  30:  3.54  31: 11.95  32: 13.81
  33:  9.05  34:  8.84  35: 11.70  36: 11.47  37: 13.12  38:  1.78  39:  1.77  40:  1.79
  41:  1.86  42:  1.92
 IR intensities (km·mol⁻¹)
   1: 13.19   2: 10.09   3:  3.60   4: 14.00   5:  1.33   6: 10.06   7:  0.00   8:  6.50
   9:  3.46  10:  0.00  11: 15.63  12:  2.95  13:  3.13  14:  0.06  15: 54.83  16:  9.84
  17: 77.75  18:  2.23  19: 84.75  20:  0.00  21:  0.44  22:  0.08  23:  0.00  24:  1.60
  25:  0.03  26:  0.07  27: 10.83  28:  0.23  29:  1.62  30:  0.36  31:  0.03  32:744.89
  33:  5.28  34: 14.96  35: 24.83  36:  3.46  37:807.48  38: 49.29  39: 54.23  40:  9.62
  41:226.10  42: 86.22
 Raman intensities (Ä⁴*amu⁻¹)
   1:  0.00   2:  0.00   3:  0.00   4:  0.00   5:  0.00   6:  0.00   7:  0.00   8:  0.00
   9:  0.00  10:  0.00  11:  0.00  12:  0.00  13:  0.00  14:  0.00  15:  0.00  16:  0.00
  17:  0.00  18:  0.00  19:  0.00  20:  0.00  21:  0.00  22:  0.00  23:  0.00  24:  0.00
  25:  0.00  26:  0.00  27:  0.00  28:  0.00  29:  0.00  30:  0.00  31:  0.00  32:  0.00
  33:  0.00  34:  0.00  35:  0.00  36:  0.00  37:  0.00  38:  0.00  39:  0.00  40:  0.00
  41:  0.00  42:  0.00
 output can be read by thermo (or use thermo option).
 writing <g98.out> molden fake output.
 recommended (thermochemical) frequency scaling factor: 1.0
           -------------------------------------------------
          |             Thermodynamic Functions             |
           -------------------------------------------------

Molecule has the following symmetry elements: (C2) 2*(sigma) 
It seems to be the C2v point group
c2v symmetry found (for desy threshold:  0.10E+00) used in thermo

          ...................................................
          :                      SETUP                      :
          :.................................................:
          :  # frequencies                          36      :
          :  # imaginary freq.                       0      :
          :  linear?                             false      :
          :  only rotor calc.                    false      :
          :  symmetry                              c2v      :
          :  rotational number                       2      :
          :  scaling factor                  1.0000000      :
          :  rotor cutoff                   50.0000000 cm⁻¹ :
          :  imag. cutoff                  -20.0000000 cm⁻¹ :
          :.................................................:

    mode    ω/cm⁻¹     T·S(HO)/kcal·mol⁻¹    T·S(FR)/kcal·mol⁻¹   T·S(vib)
   ------------------------------------------------------------------------
       1     28.37    -1.77105 (  9.39%)    -1.22391 ( 90.61%)    -1.27531
       2    141.90    -0.82829 ( 98.48%)    -0.74744 (  1.52%)    -0.82706
       3    191.85    -0.65887 ( 99.54%)    -0.65812 (  0.46%)    -0.65886
   ------------------------------------------------------------------------

   temp. (K)  partition function   enthalpy   heat capacity  entropy
                                   cal/mol     cal/K/mol   cal/K/mol   J/K/mol
 298.15  VIB   67.2                 2799.812     20.107     16.087
         ROT  0.198E+06              888.752      2.981     27.220
         INT  0.133E+08             3688.564     23.088     43.307
         TR   0.129E+28             1481.254      4.968     40.271
         TOT                        5169.8179    28.0558    83.5777   349.6891

       T/K    H(0)-H(T)+PV         H(T)/Eh          T*S/Eh         G(T)/Eh
   ------------------------------------------------------------------------
    298.15    0.823863E-02    0.107262E+00    0.397105E-01    0.675511E-01
   ------------------------------------------------------------------------

         :::::::::::::::::::::::::::::::::::::::::::::::::::::
         ::                  THERMODYNAMIC                  ::
         :::::::::::::::::::::::::::::::::::::::::::::::::::::
         :: total free energy         -25.920399535391 Eh   ::
         ::.................................................::
         :: total energy              -25.987950605859 Eh   ::
         :: zero point energy           0.099022905694 Eh   ::
         :: G(RRHO) w/o ZPVE           -0.031471835226 Eh   ::
         :: G(RRHO) contrib.            0.067551070468 Eh   ::
         :::::::::::::::::::::::::::::::::::::::::::::::::::::

optimized geometry written to: xtbopt.xyz


           -------------------------------------------------
          | TOTAL ENERGY              -25.987950605859 Eh   |
          | TOTAL ENTHALPY            -25.880689070985 Eh   |
          | TOTAL FREE ENERGY         -25.920399535391 Eh   |
          | GRADIENT NORM               0.000650492772 Eh/α |
          | HOMO-LUMO GAP               3.217490055612 eV   |
           -------------------------------------------------

------------------------------------------------------------------------
 * finished run on 2025/10/18 at 03:34:30.659     
------------------------------------------------------------------------
 total:
 * wall-time:     0 d,  0 h,  0 min,  0.755 sec
 *  cpu-time:     0 d,  0 h,  0 min,  1.164 sec
 * ratio c/w:     1.541 speedup
 SCF:
 * wall-time:     0 d,  0 h,  0 min,  0.065 sec
 *  cpu-time:     0 d,  0 h,  0 min,  0.079 sec
 * ratio c/w:     1.217 speedup
 ANC optimizer:
 * wall-time:     0 d,  0 h,  0 min,  0.097 sec
 *  cpu-time:     0 d,  0 h,  0 min,  0.145 sec
 * ratio c/w:     1.490 speedup
 analytical hessian:
 * wall-time:     0 d,  0 h,  0 min,  0.375 sec
 *  cpu-time:     0 d,  0 h,  0 min,  0.722 sec
 * ratio c/w:     1.924 speedup

