14
 energy: -25.987950605963 gnorm: 0.000650493512 xtb: 6.7.1 (edcfbbe)
C           -4.17412477666778       -1.98632203657278        1.99359037301769
C           -3.84030039792490       -2.43705028827988        0.72957252270965
H           -6.97878137035319       -3.77222709020496        2.51596874005895
C           -5.30721156379843       -2.47027577095597        2.63510268575658
H           -3.57248162019077       -1.25386896829512        2.51453874122105
C           -4.63830046766183       -3.37648768801311        0.09684810118816
H           -2.95733108875002       -2.05441540154892        0.23973177165662
C           -5.77000610184739       -3.86386038081696        0.73040549507193
H           -4.37832127333325       -3.72866610346720       -0.88991126624226
C           -6.10237507696187       -3.41202762506282        1.99441317268585
H           -6.39494716235789       -4.59605227387503        0.24118400314174
C           -5.67340270852051       -1.97425789718674        4.02476433340447
O           -4.91842506230082       -1.12294512966704        4.55139929843094
O           -6.70863137656596       -2.44602916547605        4.55183649771786
