14
 energy: -25.985747413599 gnorm: 0.044034209249 xtb: 6.7.1 (edcfbbe)
C           -4.17047200000000       -1.98088300000000        1.99793000000000
C           -3.83283100000000       -2.43643200000000        0.72090100000000
H           -6.99746400000000       -3.79524500000000        2.49834200000000
C           -5.31343100000000       -2.46140500000000        2.65841600000000
H           -3.54434500000000       -1.24245700000000        2.49655100000000
C           -4.63461600000000       -3.38155400000000        0.08323600000000
H           -2.94453500000000       -2.04976600000000        0.23149800000000
C           -5.77282500000000       -3.87059900000000        0.72192800000000
H           -4.37325400000000       -3.73598100000000       -0.90853600000000
C           -6.10827500000000       -3.41350100000000        1.99882900000000
H           -6.40347300000000       -4.60666700000000        0.23362900000000
C           -5.67954400000000       -1.96638000000000        4.04505500000000
O           -4.90971200000000       -1.10393100000000        4.57580600000000
O           -6.72975200000000       -2.45010400000000        4.57554300000000
14
 energy: -25.987808712345 gnorm: 0.010899868763 xtb: 6.7.1 (edcfbbe)
C           -4.17562826900456       -1.98639325339907        1.99494082433906
C           -3.84051446004068       -2.43770886456123        0.72876266773243
H           -6.98311495563809       -3.78114713440523        2.50452474894787
C           -5.30954154777258       -2.46687730111178        2.64352216202822
H           -3.56226004263191       -1.25227121300776        2.50288254916753
C           -4.63742564922805       -3.37770397157007        0.09398435594563
H           -2.95604596854957       -2.05238350882549        0.24203883741556
C           -5.76933218561268       -3.86378493781743        0.72967373524102
H           -4.37706515915027       -3.73054305196077       -0.89374509610200
C           -6.10168190340420       -3.41040851681112        1.99580560583237
H           -6.39745530086344       -4.59659271866197        0.24379211640525
C           -5.67487575377345       -1.97250272238691        4.02833128818689
O           -4.91696094526213       -1.11934548554554        4.55726340576223
O           -6.71262685906840       -2.44724231993565        4.55735079909794
14
 energy: -25.987934158491 gnorm: 0.002660701402 xtb: 6.7.1 (edcfbbe)
C           -4.17552949445783       -1.98702800998187        1.99376308552896
C           -3.84118891337420       -2.43762047035983        0.72993392631090
H           -6.97927363083362       -3.77469742856121        2.51114804437441
C           -5.30798259456447       -2.46915328617375        2.63703978991730
H           -3.56979850820957       -1.25411926756025        2.50963119456258
C           -4.63798247761628       -3.37692897625198        0.09615791311547
H           -2.95778551901399       -2.05341028081658        0.24255314982350
C           -5.76923317962413       -3.86315081034305        0.73076221824811
H           -4.37788797882668       -3.72928606073362       -0.89039403292162
C           -6.10125927041096       -3.41079643534253        1.99456826740630
H           -6.39585248534481       -4.59531025624855        0.24408757234927
C           -5.67426260528980       -1.97321074419610        4.02398330795219
O           -4.91870884058893       -1.12371871221128        4.55276587619656
O           -6.70778350184473       -2.44647426121941        4.55312768713606
14
 energy: -25.987945261690 gnorm: 0.001695098236 xtb: 6.7.1 (edcfbbe)
C           -4.17457467491378       -1.98671450147468        1.99354656045491
C           -3.84068739716596       -2.43726018803758        0.72962032128178
H           -6.97861759349197       -3.77288657756620        2.51469555750660
C           -5.30715929618488       -2.47035362160457        2.63540710923713
H           -3.57185186323888       -1.25425067536379        2.51326326382745
C           -4.63819758555919       -3.37662867485377        0.09638507821790
H           -2.95755840120891       -2.05384065035182        0.24098306779598
C           -5.76971150766775       -3.86355159140538        0.73043044418348
H           -4.37825446794252       -3.72873992338500       -0.89016585544018
C           -6.10188528461277       -3.41170107147419        1.99434245409503
H           -6.39545893107717       -4.59566347574552        0.24242054360372
C           -5.67260935441430       -1.97539248003609        4.02495671031620
O           -4.91944267080011       -1.12266560624905        4.55137031700619
O           -6.70851997172180       -2.44525596245236        4.55187242791380
14
 energy: -25.987918708233 gnorm: 0.003886780183 xtb: 6.7.1 (edcfbbe)
C           -4.17267140839453       -1.98531034068533        1.99294238603839
C           -3.83905990386796       -2.43683061980922        0.72904036131033
H           -6.97858142761095       -3.76808173535149        2.52155763543016
C           -5.30707849818351       -2.47064455409887        2.63124384166698
H           -3.57675787663405       -1.25292477495938        2.52029918824357
C           -4.63813427815337       -3.37669556081749        0.09728412590520
H           -2.95633126533745       -2.05556694377830        0.23732448022151
C           -5.77057496384367       -3.86502361808712        0.72981445347147
H           -4.37801200618950       -3.72897528230336       -0.88914057572639
C           -6.10388800952487       -3.41327083658291        1.99371724377971
H           -6.39405286358398       -4.59736983386190        0.23857431632940
C           -5.67697178501766       -1.96938042466517        4.02175284003504
O           -4.91608029086260       -1.12590928452790        4.55198007327142
O           -6.70633442279592       -2.44892119047157        4.55273763002322
14
 energy: -25.987947884651 gnorm: 0.001289680338 xtb: 6.7.1 (edcfbbe)
C           -4.17345906938005       -1.98586894645089        1.99331298237551
C           -3.83973199475195       -2.43697420264867        0.72929432995111
H           -6.97874216988120       -3.77052069689311        2.51833710167220
C           -5.30716598460557       -2.47043427009302        2.63347642862360
H           -3.57425659036585       -1.25343829059435        2.51698649357218
C           -4.63820814314323       -3.37660599051657        0.09698083061333
H           -2.95684018086456       -2.05489977384430        0.23866032128416
C           -5.77025575073659       -3.86439113243720        0.73008773590942
H           -4.37815317801153       -3.72884086714259       -0.88964450362045
C           -6.10307542813722       -3.41259167134866        1.99409909251233
H           -6.39458692840822       -4.59668140021675        0.24001487063652
C           -5.67492639453629       -1.97220002925748        4.02353175348129
O           -4.91740693988464       -1.12413500539733        4.55169930241184
O           -6.70772024729310       -2.44732272315908        4.55229126057696
14
 energy: -25.987950605909 gnorm: 0.000650668863 xtb: 6.7.1 (edcfbbe)
C           -4.17412133517046       -1.98634737165492        1.99357233577057
C           -3.84029018417193       -2.43707166932949        0.72955486408115
H           -6.97877040126783       -3.77226802211263        2.51593779572414
C           -5.30720782760326       -2.47030815850258        2.63507984862542
H           -3.57248383227351       -1.25389206242230        2.51452408246464
C           -4.63828312638544       -3.37651214304971        0.09682601740105
H           -2.95732116861932       -2.05443130445986        0.23971786300110
C           -5.76998842020365       -3.86389186720234        0.73037861025484
H           -4.37829864362016       -3.72868747503215       -0.88993305718175
C           -6.10236417332148       -3.41206305784251        1.99438591625817
H           -6.39492393924882       -4.59608617857661        0.24115365896430
C           -5.67340642029585       -1.97429462752814        4.02474108371659
O           -4.91843506985715       -1.12297882612371        4.55138016992061
O           -6.70863445796114       -2.44607223616306        4.55180881099918
