 Entering Gaussian System
 *********************************************
 Gaussian 98:
 frequency output generated by the xtb code
 *********************************************
                         Standard orientation:
 --------------------------------------------------------------------
  Center     Atomic     Atomic              Coordinates (Angstroms)
  Number     Number      Type              X           Y           Z
 --------------------------------------------------------------------
    1          6             0       -3.795635   -3.928172   -2.825910
    2          6             0       -4.254791   -2.439113   -2.892282
    3          8             0       -3.249476   -1.563288   -2.775936
    4          1             0       -4.634064   -4.601469   -2.993340
    5          6             0       -5.387105   -2.255350   -1.828411
    6          1             0       -4.777321   -2.330020   -3.914552
    7          1             0       -3.033297   -4.096982   -3.583225
    8          6             0       -6.011664   -0.872611   -1.915807
    9          1             0       -3.357842   -4.117938   -1.848062
   10          1             0       -6.144801   -3.030741   -1.972321
   11          1             0       -4.927134   -2.388504   -0.845431
   12          1             0       -6.553208   -0.764806   -2.853816
   13          1             0       -6.689265   -0.690008   -1.084174
   14          1             0       -5.208538   -0.137254   -1.901402
 --------------------------------------------------------------------
     1 basis functions        1 primitive gaussians
     1 alpha electrons        1 beta electrons
 
 Harmonic frequencies (cm**-1), IR intensities (km*mol⁻¹),
 Raman scattering activities (A**4/amu), Raman depolarization ratios,
 reduced masses (AMU), force constants (mDyne/A) and normal coordinates:
                      1                      2                      3
                        a                      a                      a 
 Frequencies --    99.4714               190.7637               198.3172
 Red. masses --     7.9477                 3.8149                 1.6965
 Frc consts  --     0.0000                 0.0000                 0.0000
 IR Inten    --     8.0175                 9.1643                 1.4312
 Raman Activ --     0.0000                 0.0000                 0.0000
 Depolar     --     0.0000                 0.0000                 0.0000
 Atom AN      X      Y      Z        X      Y      Z        X      Y      Z
   1   6    -0.22  -0.00  -0.22     0.08   0.01  -0.12    -0.03  -0.01   0.09
   2   6     0.07   0.10   0.09    -0.06  -0.05   0.04     0.01  -0.00  -0.05
   3   8     0.30  -0.13   0.10    -0.20   0.07   0.25    -0.01   0.03  -0.16
   4   1    -0.10   0.06  -0.13     0.04  -0.02  -0.03     0.09   0.01  -0.51
   5   6     0.26   0.17   0.28    -0.07  -0.08   0.04     0.03  -0.00  -0.02
   6   1    -0.01   0.10   0.05    -0.01   0.01   0.01     0.01  -0.02  -0.02
   7   1    -0.06   0.01  -0.06     0.01   0.04  -0.06     0.39   0.12   0.40
   8   6    -0.34  -0.13  -0.21     0.19   0.03  -0.17     0.00  -0.01   0.11
   9   1    -0.09  -0.10  -0.07     0.05  -0.01  -0.05    -0.51  -0.15   0.23
  10   1     0.15  -0.05   0.24    -0.04  -0.01   0.04     0.02  -0.01  -0.00
  11   1     0.17   0.23   0.06    -0.00  -0.00   0.01     0.03  -0.01  -0.01
  12   1    -0.16  -0.23  -0.05    -0.32  -0.15   0.15    -0.08  -0.00   0.08
  13   1    -0.09  -0.03  -0.05     0.42   0.28   0.19     0.07   0.00   0.09
  14   1    -0.20   0.07  -0.18     0.15  -0.09  -0.54     0.00  -0.00  -0.03
                      4                      5                      6
                        a                      a                      a 
 Frequencies --   247.4763               369.1869               469.4883
 Red. masses --     7.3343                 9.5992                 9.7076
 Frc consts  --     0.0000                 0.0000                 0.0000
 IR Inten    --     9.9720                13.2412                10.0592
 Raman Activ --     0.0000                 0.0000                 0.0000
 Depolar     --     0.0000                 0.0000                 0.0000
 Atom AN      X      Y      Z        X      Y      Z        X      Y      Z
   1   6    -0.09   0.02   0.22    -0.42  -0.02   0.17     0.08  -0.30  -0.03
   2   6     0.15   0.09  -0.17     0.15   0.14  -0.07     0.03  -0.20  -0.28
   3   8     0.34  -0.10  -0.07    -0.09   0.46   0.03    -0.37   0.12   0.34
   4   1    -0.07   0.03   0.20    -0.26   0.16   0.10     0.01  -0.07   0.02
   5   6    -0.04   0.05  -0.33     0.19  -0.22  -0.05     0.28   0.23  -0.21
   6   1     0.11   0.02  -0.08     0.05   0.04  -0.02     0.09  -0.10  -0.12
   7   1    -0.08  -0.13   0.04    -0.16  -0.24   0.06     0.02  -0.15   0.01
   8   6    -0.30  -0.02   0.27     0.22  -0.29  -0.10    -0.05   0.15   0.08
   9   1     0.03   0.10   0.06    -0.17  -0.03   0.07     0.00  -0.05   0.01
  10   1     0.01   0.01  -0.18     0.07  -0.08  -0.03     0.06   0.04   0.19
  11   1    -0.03  -0.07  -0.10     0.07  -0.08  -0.02     0.27   0.20  -0.13
  12   1    -0.37  -0.00   0.24     0.10  -0.10  -0.05    -0.05   0.09   0.05
  13   1     0.15  -0.06   0.28     0.04  -0.05  -0.05    -0.02  -0.13   0.06
  14   1    -0.12   0.03  -0.12     0.08  -0.10  -0.03    -0.09   0.13   0.10
                      7                      8                      9
                        a                      a                      a 
 Frequencies --   502.1244               788.8754               828.3068
 Red. masses --     8.8772                 7.0446                 3.8320
 Frc consts  --     0.0000                 0.0000                 0.0000
 IR Inten    --     7.6600                 7.8249                 9.0224
 Raman Activ --     0.0000                 0.0000                 0.0000
 Depolar     --     0.0000                 0.0000                 0.0000
 Atom AN      X      Y      Z        X      Y      Z        X      Y      Z
   1   6    -0.08   0.42   0.10    -0.12   0.18   0.09     0.06  -0.19  -0.12
   2   6    -0.32   0.11  -0.35    -0.12  -0.06   0.33     0.00   0.08  -0.27
   3   8     0.01  -0.35   0.20    -0.20  -0.14   0.01    -0.04   0.02   0.07
   4   1     0.10  -0.05   0.11     0.02   0.01  -0.06     0.05  -0.12   0.09
   5   6     0.11  -0.09  -0.03     0.41   0.14  -0.24     0.10   0.05   0.29
   6   1    -0.06   0.12  -0.09    -0.08  -0.08   0.06    -0.07   0.13  -0.00
   7   1     0.07   0.10   0.12    -0.07   0.27  -0.06     0.11  -0.24   0.11
   8   6     0.14  -0.16  -0.03     0.16  -0.06  -0.07     0.03   0.10   0.08
   9   1    -0.04   0.39   0.09     0.06  -0.08  -0.04    -0.08   0.21   0.06
  10   1     0.04  -0.06   0.16     0.04   0.15  -0.32    -0.12   0.21  -0.25
  11   1     0.21   0.05  -0.08    -0.07  -0.18  -0.01    -0.14  -0.36   0.10
  12   1     0.08  -0.04  -0.03    -0.06  -0.16   0.03     0.05  -0.36  -0.05
  13   1     0.02  -0.03  -0.03     0.03  -0.28   0.03    -0.13   0.09  -0.11
  14   1     0.06  -0.06   0.02    -0.18   0.22  -0.04    -0.18   0.23  -0.14
                     10                     11                     12
                        a                      a                      a 
 Frequencies --   910.8845               965.6605              1012.8547
 Red. masses --     7.7725                 3.0175                 7.5201
 Frc consts  --     0.0000                 0.0000                 0.0000
 IR Inten    --    31.3744                14.5445               156.1334
 Raman Activ --     0.0000                 0.0000                 0.0000
 Depolar     --     0.0000                 0.0000                 0.0000
 Atom AN      X      Y      Z        X      Y      Z        X      Y      Z
   1   6    -0.12  -0.47   0.04     0.05   0.02  -0.26    -0.20   0.07  -0.04
   2   6    -0.34   0.35   0.10     0.07  -0.07   0.19    -0.03  -0.43  -0.04
   3   8     0.19   0.20  -0.01    -0.09  -0.04  -0.02     0.30   0.33  -0.01
   4   1     0.25  -0.48   0.03    -0.03   0.01   0.13     0.09  -0.16   0.01
   5   6     0.06   0.04  -0.10     0.09  -0.01   0.03    -0.20  -0.08   0.04
   6   1    -0.05   0.17   0.07    -0.21   0.16   0.15     0.12  -0.02   0.02
   7   1     0.05   0.15   0.02     0.12  -0.34   0.12     0.00   0.17   0.01
   8   6     0.03  -0.09  -0.05     0.02  -0.00  -0.21     0.18  -0.01  -0.07
   9   1     0.09   0.04  -0.01    -0.16   0.35   0.08     0.01   0.15  -0.01
  10   1     0.11  -0.07  -0.07     0.08  -0.04  -0.06    -0.32   0.18   0.27
  11   1     0.01   0.05  -0.02    -0.26   0.19   0.17    -0.01   0.03  -0.00
  12   1    -0.00   0.07   0.01    -0.15   0.31   0.08    -0.08  -0.07   0.05
  13   1     0.05  -0.04   0.02     0.15  -0.29   0.13     0.03  -0.29   0.04
  14   1     0.06  -0.08   0.02     0.01  -0.01   0.12    -0.16   0.21   0.02
                     13                     14                     15
                        a                      a                      a 
 Frequencies --  1033.8627              1097.7293              1126.8801
 Red. masses --     6.6624                 9.0721                 7.2349
 Frc consts  --     0.0000                 0.0000                 0.0000
 IR Inten    --    37.4305                49.5203                31.5960
 Raman Activ --     0.0000                 0.0000                 0.0000
 Depolar     --     0.0000                 0.0000                 0.0000
 Atom AN      X      Y      Z        X      Y      Z        X      Y      Z
   1   6    -0.32   0.11  -0.07     0.09   0.01  -0.00     0.05   0.01  -0.24
   2   6     0.25  -0.39   0.01    -0.27   0.01   0.17    -0.08  -0.12   0.46
   3   8    -0.04   0.11   0.02     0.13   0.06  -0.02     0.04   0.04  -0.07
   4   1     0.14  -0.26   0.03    -0.06   0.10   0.02    -0.03   0.02   0.10
   5   6     0.23  -0.09   0.02     0.16  -0.56  -0.09    -0.11   0.21  -0.36
   6   1     0.04  -0.06   0.01    -0.06   0.05   0.08     0.02   0.02   0.06
   7   1     0.01   0.24   0.02     0.00  -0.12   0.01     0.09  -0.22   0.08
   8   6    -0.25   0.17   0.08    -0.10   0.48  -0.07     0.02  -0.13   0.24
   9   1     0.00   0.27  -0.01    -0.03  -0.04   0.02    -0.12   0.23   0.05
  10   1     0.23  -0.16  -0.19     0.02  -0.15   0.09    -0.05   0.04   0.09
  11   1    -0.04  -0.07   0.05     0.25  -0.20  -0.13     0.22   0.04  -0.21
  12   1     0.06   0.10  -0.04    -0.07   0.09  -0.00     0.16  -0.28  -0.06
  13   1    -0.06   0.32  -0.04    -0.06   0.04  -0.02    -0.10   0.19  -0.08
  14   1     0.10  -0.13  -0.02    -0.12   0.22  -0.02     0.05  -0.08  -0.11
                     16                     17                     18
                        a                      a                      a 
 Frequencies --  1158.3245              1257.6181              1284.6744
 Red. masses --     9.8145                 3.3515                 3.8133
 Frc consts  --     0.0000                 0.0000                 0.0000
 IR Inten    --   260.0869                17.7729                57.0420
 Raman Activ --     0.0000                 0.0000                 0.0000
 Depolar     --     0.0000                 0.0000                 0.0000
 Atom AN      X      Y      Z        X      Y      Z        X      Y      Z
   1   6    -0.16  -0.06  -0.04     0.02   0.02   0.04    -0.02   0.08  -0.15
   2   6     0.52   0.36   0.18    -0.08  -0.08  -0.13    -0.16   0.03   0.09
   3   8    -0.31  -0.23  -0.10     0.06   0.05   0.04     0.05   0.02  -0.00
   4   1     0.11  -0.20   0.02    -0.01   0.02  -0.03     0.03  -0.06   0.05
   5   6    -0.20  -0.20  -0.04    -0.17  -0.07  -0.14    -0.22   0.17   0.29
   6   1     0.14   0.09  -0.10    -0.11  -0.04   0.04     0.36  -0.41  -0.22
   7   1     0.03   0.11   0.03    -0.03  -0.01  -0.03     0.04  -0.16   0.04
   8   6     0.13   0.12   0.00     0.24   0.12   0.21     0.08   0.05  -0.13
   9   1     0.04   0.14  -0.01     0.00  -0.05  -0.00    -0.05   0.05  -0.01
  10   1    -0.04  -0.08   0.17     0.36  -0.39  -0.08     0.31  -0.24  -0.24
  11   1     0.12   0.06  -0.07    -0.30   0.42   0.15     0.21  -0.20  -0.09
  12   1    -0.03  -0.09   0.02     0.04  -0.31   0.02    -0.06  -0.00   0.02
  13   1    -0.03  -0.09  -0.02    -0.11  -0.03  -0.07     0.07  -0.21   0.05
  14   1    -0.12   0.19  -0.01    -0.12   0.22  -0.10     0.00   0.03   0.06
                     19                     20                     21
                        a                      a                      a 
 Frequencies --  1329.8075              1351.1906              1366.0188
 Red. masses --     3.7421                 2.8707                 2.6273
 Frc consts  --     0.0000                 0.0000                 0.0000
 IR Inten    --    50.5369                30.8837                72.6312
 Raman Activ --     0.0000                 0.0000                 0.0000
 Depolar     --     0.0000                 0.0000                 0.0000
 Atom AN      X      Y      Z        X      Y      Z        X      Y      Z
   1   6     0.04  -0.03   0.12     0.13  -0.34   0.03     0.01  -0.24  -0.04
   2   6     0.16  -0.25  -0.08    -0.13  -0.06   0.05     0.13   0.15  -0.07
   3   8    -0.03   0.03  -0.01    -0.05  -0.01  -0.07     0.10   0.04   0.10
   4   1    -0.02   0.06  -0.05    -0.28   0.36  -0.05    -0.16   0.18  -0.03
   5   6    -0.28   0.21   0.09     0.04  -0.01   0.05    -0.09   0.01  -0.02
   6   1    -0.29   0.52   0.22     0.42   0.26  -0.15    -0.52  -0.55   0.14
   7   1    -0.03   0.08  -0.03    -0.03   0.38  -0.12     0.01   0.27  -0.06
   8   6     0.05   0.03  -0.07     0.00   0.02  -0.00     0.01   0.00  -0.02
   9   1     0.04  -0.06   0.00    -0.07   0.39   0.11    -0.04   0.32   0.07
  10   1     0.20  -0.17  -0.15     0.05  -0.04  -0.03    -0.01  -0.01   0.02
  11   1     0.35  -0.21  -0.21    -0.08   0.03   0.06     0.11  -0.08  -0.08
  12   1    -0.04  -0.04   0.01     0.01  -0.01  -0.00    -0.02  -0.00   0.01
  13   1     0.02  -0.15   0.02     0.01  -0.02   0.01     0.00  -0.03   0.00
  14   1     0.03  -0.02   0.03     0.01  -0.00   0.00     0.00   0.00   0.01
                     22                     23                     24
                        a                      a                      a 
 Frequencies --  1387.9694              1476.3350              1484.1364
 Red. masses --     3.1921                 1.9634                 1.6241
 Frc consts  --     0.0000                 0.0000                 0.0000
 IR Inten    --     3.8624                 6.2485                 4.4108
 Raman Activ --     0.0000                 0.0000                 0.0000
 Depolar     --     0.0000                 0.0000                 0.0000
 Atom AN      X      Y      Z        X      Y      Z        X      Y      Z
   1   6    -0.01   0.01   0.01    -0.02  -0.00   0.04     0.07   0.01  -0.21
   2   6     0.02   0.04  -0.02    -0.00   0.00   0.00     0.02  -0.00  -0.04
   3   8    -0.00  -0.01  -0.00    -0.01  -0.00  -0.00    -0.01  -0.00   0.00
   4   1     0.01  -0.02   0.00     0.02   0.01  -0.14    -0.11  -0.03   0.69
   5   6     0.07  -0.02  -0.04     0.02   0.23  -0.16     0.00   0.05  -0.03
   6   1    -0.01  -0.02  -0.01     0.01   0.01   0.00    -0.01   0.02   0.01
   7   1     0.00  -0.00   0.00    -0.02  -0.08   0.00     0.17   0.36   0.08
   8   6    -0.18   0.40   0.01    -0.00  -0.06  -0.03     0.02  -0.00  -0.01
   9   1     0.01  -0.02  -0.01     0.09   0.06  -0.02    -0.34  -0.36   0.07
  10   1    -0.04   0.01   0.12     0.18  -0.28   0.55     0.05  -0.07   0.12
  11   1    -0.11  -0.04   0.05    -0.33  -0.54   0.08    -0.08  -0.11   0.02
  12   1     0.11  -0.45  -0.12     0.08   0.05  -0.04    -0.03   0.00   0.02
  13   1     0.03  -0.47   0.15     0.11   0.07   0.06    -0.01   0.01  -0.02
  14   1     0.38  -0.39  -0.02    -0.09   0.10   0.03    -0.01   0.01   0.02
                     25                     26                     27
                        a                      a                      a 
 Frequencies --  1486.4023              1509.4724              1511.3000
 Red. masses --     1.5749                 1.6257                 1.5872
 Frc consts  --     0.0000                 0.0000                 0.0000
 IR Inten    --     0.2184                 1.6071                 0.5983
 Raman Activ --     0.0000                 0.0000                 0.0000
 Depolar     --     0.0000                 0.0000                 0.0000
 Atom AN      X      Y      Z        X      Y      Z        X      Y      Z
   1   6    -0.01  -0.00   0.01    -0.21  -0.06  -0.07     0.04   0.01   0.01
   2   6    -0.01   0.00   0.01    -0.03  -0.01  -0.01     0.02   0.01  -0.01
   3   8    -0.00  -0.00  -0.00     0.00   0.00   0.00     0.00  -0.00   0.00
   4   1     0.01   0.00  -0.04    -0.20   0.22   0.06     0.04  -0.05   0.01
   5   6     0.05   0.06  -0.01    -0.01  -0.01   0.01    -0.03   0.00   0.04
   6   1     0.02  -0.01  -0.01     0.00   0.01   0.00    -0.00  -0.01  -0.01
   7   1    -0.00  -0.03   0.00     0.47   0.05   0.47    -0.09   0.01  -0.09
   8   6     0.19   0.03   0.08    -0.01  -0.01   0.04    -0.08  -0.04   0.20
   9   1     0.03   0.02  -0.01     0.54  -0.05  -0.26    -0.12  -0.00   0.05
  10   1     0.02  -0.02   0.10     0.01  -0.00  -0.03     0.01  -0.01  -0.01
  11   1    -0.05  -0.13   0.02     0.01   0.03   0.00     0.02  -0.02  -0.01
  12   1    -0.44   0.17   0.28     0.09   0.07  -0.04     0.40   0.39  -0.18
  13   1    -0.54  -0.15  -0.41    -0.00  -0.06   0.01    -0.03  -0.31   0.06
  14   1     0.20  -0.20  -0.23    -0.01   0.02  -0.14    -0.06   0.07  -0.67
                     28                     29                     30
                        a                      a                      a 
 Frequencies --  2140.7448              2918.9803              2947.0806
 Red. masses --     1.6164                 1.8527                 1.5754
 Frc consts  --     0.0000                 0.0000                 0.0000
 IR Inten    --   943.2611               168.1626               103.7511
 Raman Activ --     0.0000                 0.0000                 0.0000
 Depolar     --     0.0000                 0.0000                 0.0000
 Atom AN      X      Y      Z        X      Y      Z        X      Y      Z
   1   6     0.01  -0.02   0.02    -0.01  -0.01   0.00     0.01   0.01  -0.01
   2   6     0.02  -0.09   0.17     0.01   0.01   0.01     0.00  -0.00   0.01
   3   8     0.08   0.07   0.02     0.00  -0.00  -0.00    -0.00  -0.00  -0.00
   4   1     0.01   0.00   0.00     0.03   0.02   0.01    -0.03  -0.02  -0.01
   5   6     0.00  -0.01   0.03     0.20   0.16   0.10     0.06  -0.07   0.20
   6   1    -0.41   0.13  -0.87    -0.00   0.00  -0.00    -0.00  -0.00   0.01
   7   1    -0.00   0.00   0.01     0.00  -0.00  -0.00    -0.01   0.00   0.01
   8   6    -0.00  -0.00  -0.01    -0.01   0.00  -0.00     0.01  -0.00  -0.02
   9   1     0.01  -0.03  -0.00    -0.00   0.00  -0.00     0.01  -0.00   0.03
  10   1     0.01   0.01   0.00    -0.64  -0.66  -0.13     0.19   0.18   0.08
  11   1    -0.02  -0.00   0.01    -0.09   0.06  -0.23    -0.41   0.09  -0.83
  12   1    -0.00   0.00   0.01     0.02  -0.01   0.03     0.02  -0.01   0.03
  13   1     0.00   0.00  -0.00     0.01  -0.00  -0.01    -0.05   0.01   0.06
  14   1    -0.00  -0.00   0.00     0.02   0.03  -0.00     0.01   0.00  -0.00
                     31                     32                     33
                        a                      a                      a 
 Frequencies --  2984.7447              3000.0407              3005.7312
 Red. masses --     1.7326                 1.8305                 1.9212
 Frc consts  --     0.0000                 0.0000                 0.0000
 IR Inten    --   140.0835               111.2681               138.2636
 Raman Activ --     0.0000                 0.0000                 0.0000
 Depolar     --     0.0000                 0.0000                 0.0000
 Atom AN      X      Y      Z        X      Y      Z        X      Y      Z
   1   6     0.21   0.15   0.03    -0.01  -0.00  -0.02     0.01   0.01  -0.29
   2   6     0.01   0.00   0.00     0.00   0.00  -0.00    -0.00   0.00  -0.01
   3   8    -0.00   0.00  -0.00    -0.00  -0.00  -0.00     0.00  -0.00   0.00
   4   1    -0.75  -0.58  -0.15     0.02   0.02   0.00     0.03   0.02  -0.04
   5   6     0.00   0.01  -0.00    -0.00  -0.01   0.02     0.00   0.00  -0.01
   6   1    -0.00   0.00  -0.01     0.00  -0.00   0.00    -0.00   0.01   0.00
   7   1    -0.01   0.03   0.06    -0.01   0.00   0.00    -0.39   0.07   0.34
   8   6    -0.01   0.00   0.00    -0.14   0.02   0.23     0.02   0.00  -0.01
   9   1     0.03   0.02  -0.00     0.02  -0.01   0.05     0.34  -0.13   0.71
  10   1    -0.04  -0.03  -0.01     0.02   0.02   0.01    -0.01  -0.01  -0.00
  11   1     0.01  -0.00   0.02    -0.03   0.01  -0.06     0.01  -0.00   0.03
  12   1     0.00  -0.00   0.01    -0.12   0.02  -0.13    -0.01   0.00  -0.02
  13   1     0.02  -0.01  -0.03     0.58  -0.14  -0.72    -0.03   0.01   0.04
  14   1     0.00   0.00   0.00     0.03   0.05   0.04    -0.01  -0.01  -0.00
                     34                     35                     36
                        a                      a                      a 
 Frequencies --  3008.5123              3017.7665              3018.7136
 Red. masses --     1.9005                 1.4265                 1.4025
 Frc consts  --     0.0000                 0.0000                 0.0000
 IR Inten    --   105.7660                81.2554                39.3088
 Raman Activ --     0.0000                 0.0000                 0.0000
 Depolar     --     0.0000                 0.0000                 0.0000
 Atom AN      X      Y      Z        X      Y      Z        X      Y      Z
   1   6     0.01   0.00   0.01    -0.14   0.04   0.02    -0.13   0.04   0.02
   2   6     0.00   0.00   0.00    -0.00   0.00  -0.00    -0.00   0.00   0.00
   3   8    -0.00  -0.00  -0.00     0.00   0.00   0.00     0.00   0.00   0.00
   4   1    -0.01  -0.01  -0.00    -0.05  -0.02  -0.00    -0.06  -0.02  -0.00
   5   6     0.02   0.01   0.01     0.00   0.01  -0.00     0.00  -0.00  -0.00
   6   1     0.00  -0.00  -0.00    -0.00   0.00  -0.00    -0.00   0.00  -0.01
   7   1     0.00  -0.00  -0.00     0.39  -0.07  -0.42     0.39  -0.07  -0.41
   8   6     0.22   0.07   0.16     0.05   0.11  -0.06    -0.04  -0.11   0.05
   9   1    -0.02   0.01  -0.03     0.13  -0.06   0.36     0.13  -0.05   0.35
  10   1    -0.03  -0.03  -0.01    -0.00  -0.00  -0.00    -0.00  -0.00   0.00
  11   1    -0.01   0.00  -0.03     0.00   0.00   0.01     0.00  -0.00   0.01
  12   1    -0.37   0.08  -0.69     0.19  -0.02   0.31    -0.20   0.02  -0.33
  13   1    -0.04   0.03   0.12     0.07  -0.00  -0.08    -0.09   0.01   0.11
  14   1    -0.38  -0.36   0.02    -0.43  -0.38  -0.02     0.43   0.37   0.02
