      -----------------------------------------------------------      
     |                   =====================                   |     
     |                           x T B                           |     
     |                   =====================                   |     
     |                         S. Grimme                         |     
     |          Mulliken Center for Theoretical Chemistry        |     
     |                    University of Bonn                     |     
      -----------------------------------------------------------      

   * xtb version 6.7.1 (edcfbbe) compiled by 'albert@albert-system' on 2024-07-22

   xtb is free software: you can redistribute it and/or modify it under
   the terms of the GNU Lesser General Public License as published by
   the Free Software Foundation, either version 3 of the License, or
   (at your option) any later version.
   
   xtb is distributed in the hope that it will be useful,
   but WITHOUT ANY WARRANTY; without even the implied warranty of
   MERCHANTABILITY or FITNESS FOR A PARTICULAR PURPOSE.  See the
   GNU Lesser General Public License for more details.
   
   Cite this work as:
   * C. Bannwarth, E. Caldeweyher, S. Ehlert, A. Hansen, P. Pracht,
     J. Seibert, S. Spicher, S. Grimme, WIREs Comput. Mol. Sci., 2020, 11,
     e01493. DOI: 10.1002/wcms.1493
   
   for GFN2-xTB:
   * C. Bannwarth, S. Ehlert and S. Grimme., J. Chem. Theory Comput., 2019,
     15, 1652-1671. DOI: 10.1021/acs.jctc.8b01176
   for GFN1-xTB:
   * S. Grimme, C. Bannwarth, P. Shushkov, J. Chem. Theory Comput., 2017,
     13, 1989-2009. DOI: 10.1021/acs.jctc.7b00118
   for GFN0-xTB:
   * P. Pracht, E. Caldeweyher, S. Ehlert, S. Grimme, ChemRxiv, 2019, preprint.
     DOI: 10.26434/chemrxiv.8326202.v1
   for GFN-FF:
   * S. Spicher and S. Grimme, Angew. Chem. Int. Ed., 2020, 59, 15665-15673.
     DOI: 10.1002/anie.202004239
   
   for ALPB and GBSA implicit solvation:
   * S. Ehlert, M. Stahn, S. Spicher, S. Grimme, J. Chem. Theory Comput.,
     2021, 17, 4250-4261. DOI: 10.1021/acs.jctc.1c00471
   
   for ddCOSMO and CPCM-X implicit solvation:
   * M. Stahn, S. Ehlert, S. Grimme, J. Phys. Chem. A,
     2023, XX, XXXX-XXXX. DOI: 10.1021/acs.jpca.3c04382
   
   for DFT-D4:
   * E. Caldeweyher, C. Bannwarth and S. Grimme, J. Chem. Phys., 2017,
     147, 034112. DOI: 10.1063/1.4993215
   * E. Caldeweyher, S. Ehlert, A. Hansen, H. Neugebauer, S. Spicher,
     C. Bannwarth and S. Grimme, J. Chem. Phys., 2019, 150, 154122.
     DOI: 10.1063/1.5090222
   * E. Caldeweyher, J.-M. Mewes, S. Ehlert and S. Grimme, Phys. Chem. Chem. Phys.
     2020, 22, 8499-8512. DOI: 10.1039/D0CP00502A
   
   for sTDA-xTB:
   * S. Grimme and C. Bannwarth, J. Chem. Phys., 2016, 145, 054103.
     DOI: 10.1063/1.4959605
   
   in the mass-spec context:
   * V. Asgeirsson, C. Bauer and S. Grimme, Chem. Sci., 2017, 8, 4879.
     DOI: 10.1039/c7sc00601b
   * J. Koopman and S. Grimme, ACS Omega 2019, 4, 12, 15120-15133.
     DOI: 10.1021/acsomega.9b02011
   
   for metadynamics refer to:
   * S. Grimme, J. Chem. Theory Comput., 2019, 155, 2847-2862
     DOI: 10.1021/acs.jctc.9b00143
   
   for SPH calculations refer to:
   * S. Spicher and S. Grimme, J. Chem. Theory Comput., 2021, 17, 1701-1714
     DOI: 10.1021/acs.jctc.0c01306
   
   for ONIOM refer to:
   * C. Plett, A. Katbashev, S. Ehlert, S. Grimme, M. Bursch,
     Phys. Chem. Chem. Phys., 2023, 25, 17860-17868. DOI: 10.1039/D3CP02178E
   
   for DIPRO refer to:
   * J. Kohn, N. Gildemeister, S. Grimme, D. Fazzi, A. Hansen,
     J. Chem. Phys., 2023, just accepted.
   
   for PTB refer to:
   * S. Grimme, M. Mueller, A. Hansen, J. Chem. Phys., 2023, 158, 124111.
     DOI: 10.1063/5.0137838
   
   with help from (in alphabetical order)
   P. Atkinson, C. Bannwarth, F. Bohle, G. Brandenburg, E. Caldeweyher
   M. Checinski, S. Dohm, S. Ehlert, S. Ehrlich, I. Gerasimov, C. Hölzer
   A. Katbashev, J. Kohn, J. Koopman, C. Lavigne, S. Lehtola, F. März, M. Müller,
   F. Musil, H. Neugebauer, J. Pisarek, C. Plett, P. Pracht, F. Pultar,
   J. Seibert, P. Shushkov, S. Spicher, M. Stahn, M. Steiner, T. Strunk,
   J. Stückrath, T. Rose, and J. Unsleber
   
 * started run on 2025/10/18 at 01:00:12.010     
   ID    Z sym.   atoms
    1    6 C      1, 2, 5, 8
    2    8 O      3
    3    1 H      4, 6, 7, 9-14

           -------------------------------------------------
          |                Calculation Setup                |
           -------------------------------------------------

          program call               : xtb xyz.xyz --alpb water --charge -1 --ohess
          hostname                   : m003
          coordinate file            : xyz.xyz
          omp threads                :                     2


           -------------------------------------------------
          |                 G F N 2 - x T B                 |
           -------------------------------------------------

        Reference                      10.1021/acs.jctc.8b01176
      * Hamiltonian:
        H0-scaling (s, p, d)           1.850000    2.230000    2.230000
        zeta-weighting                 0.500000
      * Dispersion:
        s8                             2.700000
        a1                             0.520000
        a2                             5.000000
        s9                             5.000000
      * Repulsion:
        kExp                           1.500000    1.000000
        rExp                           1.000000
      * Coulomb:
        alpha                          2.000000
        third order                    shell-resolved
        anisotropic                    true
        a3                             3.000000
        a5                             4.000000
        cn-shift                       1.200000
        cn-exp                         4.000000
        max-rad                        5.000000

      * Solvation model:               ALPB
        Solvent                        water
        Parameter file                 internal GFN2-xTB/ALPB
        Dielectric constant                8.0200E+01
        Reference state                gsolv [1 M gas/solution]
        Free energy shift                  1.0808E-03 Eh       6.7819E-01 kcal/mol
        Temperature                        2.9815E+02 K
        Density                            1.0000E+00 kg/L
        Solvent mass                       1.8000E+01 g/mol
        Interaction kernel             P16
        Born radius scaling (c1)           1.4744E+00
        Born radii integrator          GBOBC
        Born offset                        0.0000E+00 a0       0.0000E+00 AA
        H-bond correction              true
        Ion screening                  false
        Surface tension                    1.0000E-05 Eh       1.5569E+01 dyn/cm
        Grid points                               230 per atom

          ...................................................
          :                      SETUP                      :
          :.................................................:
          :  # basis functions                  29          :
          :  # atomic orbitals                  29          :
          :  # shells                           19          :
          :  # electrons                        32          :
          :  max. iterations                   250          :
          :  Hamiltonian                  GFN2-xTB          :
          :  restarted?                      false          :
          :  GBSA solvation                   true          :
          :  PC potential                    false          :
          :  electronic temp.          300.0000000     K    :
          :  accuracy                    1.0000000          :
          :  -> integral cutoff          0.2500000E+02      :
          :  -> integral neglect         0.1000000E-07      :
          :  -> SCF convergence          0.1000000E-05 Eh   :
          :  -> wf. convergence          0.1000000E-03 e    :
          :  Broyden damping             0.4000000          :
          :  net charge                         -1          :
          :  unpaired electrons                  0          :
          ...................................................

 iter      E             dE          RMSdq      gap      omega  full diag
   1    -17.5649140 -0.175649E+02  0.410E+00   12.66       0.0  T
   2    -17.6563982 -0.914843E-01  0.179E+00   11.10       1.0  T
   3    -17.6600023 -0.360406E-02  0.871E-01   10.39       1.0  T
   4    -17.6605277 -0.525369E-03  0.249E-01   10.16       1.0  T
   5    -17.6605554 -0.276883E-04  0.836E-02   10.21       1.0  T
   6    -17.6605798 -0.244692E-04  0.214E-02   10.25       1.3  T
   7    -17.6605803 -0.496953E-06  0.684E-03   10.25       3.9  T
   8    -17.6605805 -0.198944E-06  0.257E-03   10.24      10.4  T
   9    -17.6605805 -0.208462E-08  0.773E-04   10.25      34.6  T
  10    -17.6605805 -0.419432E-08  0.151E-04   10.24     177.1  T

   *** convergence criteria satisfied after 10 iterations ***

         #    Occupation            Energy/Eh            Energy/eV
      -------------------------------------------------------------
         1        2.0000           -0.5966330             -16.2352
       ...           ...                  ...                  ...
        10        2.0000           -0.4443125             -12.0904
        11        2.0000           -0.4300001             -11.7009
        12        2.0000           -0.4235865             -11.5264
        13        2.0000           -0.4147620             -11.2862
        14        2.0000           -0.4007354             -10.9046
        15        2.0000           -0.2913066              -7.9269
        16        2.0000           -0.2907989              -7.9130 (HOMO)
        17                          0.0856967               2.3319 (LUMO)
        18                          0.1128199               3.0700
        19                          0.1274552               3.4682
        20                          0.1429995               3.8912
        21                          0.1517051               4.1281
       ...                                ...                  ...
        29                          0.3380206               9.1980
      -------------------------------------------------------------
                  HL-Gap            0.3764957 Eh           10.2450 eV
             Fermi-level           -0.1025511 Eh           -2.7906 eV

 SCC (total)                   0 d,  0 h,  0 min,  0.033 sec
 SCC setup                      ...        0 min,  0.001 sec (  1.774%)
 Dispersion                     ...        0 min,  0.000 sec (  0.416%)
 classical contributions        ...        0 min,  0.000 sec (  0.118%)
 integral evaluation            ...        0 min,  0.001 sec (  2.765%)
 iterations                     ...        0 min,  0.029 sec ( 88.873%)
 molecular gradient             ...        0 min,  0.002 sec (  5.554%)
 printout                       ...        0 min,  0.000 sec (  0.376%)

         :::::::::::::::::::::::::::::::::::::::::::::::::::::
         ::                     SUMMARY                     ::
         :::::::::::::::::::::::::::::::::::::::::::::::::::::
         :: total energy             -17.480136731280 Eh    ::
         :: total w/o Gsasa/hb       -17.479655455574 Eh    ::
         :: gradient norm              0.038034957354 Eh/a0 ::
         :: HOMO-LUMO gap             10.244968568633 eV    ::
         ::.................................................::
         :: SCC energy               -17.660574107093 Eh    ::
         :: -> isotropic ES            0.234187207569 Eh    ::
         :: -> anisotropic ES          0.012652941340 Eh    ::
         :: -> anisotropic XC          0.003836194716 Eh    ::
         :: -> dispersion             -0.008123218249 Eh    ::
         :: -> Gsolv                  -0.117273965049 Eh    ::
         ::    -> Gelec               -0.116792689343 Eh    ::
         ::    -> Gsasa                0.001350873114 Eh    ::
         ::    -> Ghb                 -0.002912908519 Eh    ::
         ::    -> Gshift               0.001080759698 Eh    ::
         :: repulsion energy           0.180437375813 Eh    ::
         :: add. restraining           0.000000000000 Eh    ::
         :: total charge              -1.000000000000 e     ::
         :::::::::::::::::::::::::::::::::::::::::::::::::::::

      ----------------------------------------------------------- 
     |                   =====================                   |
     |                        A N C O P T                        |
     |                   =====================                   |
     |               Approximate Normal Coordinate               |
     |                Rational Function Optimizer                |
      ----------------------------------------------------------- 
      ----------------------------------------------------------- 
     |                   =====================                   |
     |                        A N C O P T                        |
     |                   =====================                   |
     |               Approximate Normal Coordinate               |
     |                Rational Function Optimizer                |
      ----------------------------------------------------------- 

          ...................................................
          :                      SETUP                      :
          :.................................................:
          :   optimization level            normal          :
          :   max. optcycles                   200          :
          :   ANC micro-cycles                  20          :
          :   degrees of freedom                36          :
          :.................................................:
          :   RF solver                   davidson          :
          :   write xtbopt.log                true          :
          :   linear?                        false          :
          :   energy convergence         0.5000000E-05 Eh   :
          :   grad. convergence          0.1000000E-02 Eh/α :
          :   maxmium RF displ.          1.0000000          :
          :   Hlow (freq-cutoff)         0.1000000E-01      :
          :   Hmax (freq-cutoff)         5.0000000          :
          :   S6 in model hess.         20.0000000          :
          ...................................................

generating ANC from exact Hessian ...
Using Lindh-Hessian (1995)
 Shifting diagonal of input Hessian by   6.087409692206263E-003
 Lowest  eigenvalues of input Hessian
    0.000000    0.000000    0.000000    0.000000    0.000000    0.000000
    0.010000    0.012774    0.013539    0.017243    0.020828    0.041593
    0.042329    0.049316    0.054125    0.054706    0.057249    0.063948
 Highest eigenvalues
    1.064628    1.087169    1.108717    1.126261    1.223491    1.510525
 

........................................................................
.............................. CYCLE    1 ..............................
........................................................................

 iter      E             dE          RMSdq      gap      omega  full diag
   1    -17.6605805 -0.176606E+02  0.132E-04   10.24       0.0  T
   2    -17.6605805 -0.109562E-09  0.567E-05   10.24     471.7  T
   3    -17.6605805 -0.622435E-11  0.314E-05   10.24     850.4  T
     SCC iter.                  ...        0 min,  0.001 sec
     gradient                   ...        0 min,  0.002 sec
 * total energy  :   -17.4801367 Eh     change       -0.2748024E-10 Eh
   gradient norm :     0.0380353 Eh/α   predicted     0.0000000E+00 (-100.00%)
   displ. norm   :     0.1539555 α      lambda       -0.3015537E-02
   maximum displ.:     0.0895377 α      in ANC's #5, #9, #24, ...

........................................................................
.............................. CYCLE    2 ..............................
........................................................................

 iter      E             dE          RMSdq      gap      omega  full diag
   1    -17.6730259 -0.176730E+02  0.216E-01   10.53       0.0  T
   2    -17.6730565 -0.305953E-04  0.122E-01   10.55       1.0  T
   3    -17.6730554  0.117129E-05  0.365E-02   10.56       1.0  T
   4    -17.6730600 -0.465870E-05  0.506E-03   10.56       5.3  T
   5    -17.6730600 -0.159441E-07  0.312E-03   10.56       8.6  T
   6    -17.6730600 -0.649899E-08  0.567E-04   10.56      47.1  T
   7    -17.6730600 -0.367905E-09  0.277E-04   10.56      96.6  T
     SCC iter.                  ...        0 min,  0.002 sec
     gradient                   ...        0 min,  0.001 sec
 * total energy  :   -17.4819282 Eh     change       -0.1791518E-02 Eh
   gradient norm :     0.0159036 Eh/α   predicted    -0.1543505E-02 ( -13.84%)
   displ. norm   :     0.0688273 α      lambda       -0.4555562E-03
   maximum displ.:     0.0442238 α      in ANC's #5, #1, #3, ...

........................................................................
.............................. CYCLE    3 ..............................
........................................................................

 iter      E             dE          RMSdq      gap      omega  full diag
   1    -17.6780119 -0.176780E+02  0.784E-02   10.56       0.0  T
   2    -17.6780250 -0.131809E-04  0.399E-02   10.58       1.0  T
   3    -17.6780255 -0.466310E-06  0.192E-02   10.59       1.4  T
   4    -17.6780259 -0.417214E-06  0.311E-03   10.59       8.6  T
   5    -17.6780259 -0.228363E-07  0.135E-03   10.59      19.8  T
   6    -17.6780259 -0.164504E-08  0.326E-04   10.59      81.9  T
   7    -17.6780259 -0.390656E-10  0.148E-04   10.59     181.0  T
     SCC iter.                  ...        0 min,  0.002 sec
     gradient                   ...        0 min,  0.001 sec
 * total energy  :   -17.4821678 Eh     change       -0.2395365E-03 Eh
   gradient norm :     0.0055456 Eh/α   predicted    -0.2288560E-03 (  -4.46%)
   displ. norm   :     0.0399804 α      lambda       -0.6781268E-04
   maximum displ.:     0.0214690 α      in ANC's #3, #1, #5, ...

........................................................................
.............................. CYCLE    4 ..............................
........................................................................

 iter      E             dE          RMSdq      gap      omega  full diag
   1    -17.6779618 -0.176780E+02  0.267E-02   10.58       0.0  T
   2    -17.6779636 -0.182403E-05  0.140E-02   10.59       1.9  T
   3    -17.6779638 -0.134554E-06  0.687E-03   10.59       3.9  T
   4    -17.6779638 -0.619958E-07  0.151E-03   10.59      17.6  T
   5    -17.6779638 -0.312673E-08  0.557E-04   10.59      48.0  T
   6    -17.6779638 -0.376136E-09  0.185E-04   10.59     144.2  T
     SCC iter.                  ...        0 min,  0.001 sec
     gradient                   ...        0 min,  0.001 sec
 * total energy  :   -17.4822140 Eh     change       -0.4620684E-04 Eh
   gradient norm :     0.0028687 Eh/α   predicted    -0.3396250E-04 ( -26.50%)
   displ. norm   :     0.0520697 α      lambda       -0.3712763E-04
   maximum displ.:     0.0346954 α      in ANC's #3, #1, #4, ...

........................................................................
.............................. CYCLE    5 ..............................
........................................................................

 iter      E             dE          RMSdq      gap      omega  full diag
   1    -17.6772430 -0.176772E+02  0.258E-02   10.54       0.0  T
   2    -17.6772445 -0.150353E-05  0.137E-02   10.55       1.9  T
   3    -17.6772446 -0.127652E-06  0.647E-03   10.56       4.1  T
   4    -17.6772447 -0.622460E-07  0.157E-03   10.56      17.1  T
   5    -17.6772447 -0.295168E-08  0.415E-04   10.56      64.4  T
   6    -17.6772447 -0.175778E-09  0.117E-04   10.56     228.2  T
     SCC iter.                  ...        0 min,  0.001 sec
     gradient                   ...        0 min,  0.001 sec
 * total energy  :   -17.4822371 Eh     change       -0.2308860E-04 Eh
   gradient norm :     0.0012559 Eh/α   predicted    -0.1861381E-04 ( -19.38%)
   displ. norm   :     0.0544313 α      lambda       -0.1021676E-04
   maximum displ.:     0.0380616 α      in ANC's #3, #1, #2, ...

........................................................................
.............................. CYCLE    6 ..............................
........................................................................

 iter      E             dE          RMSdq      gap      omega  full diag
   1    -17.6767802 -0.176768E+02  0.199E-02   10.55       0.0  T
   2    -17.6767807 -0.469389E-06  0.112E-02   10.55       2.4  T
   3    -17.6767807 -0.251112E-07  0.423E-03   10.56       6.3  T
   4    -17.6767808 -0.420384E-07  0.980E-04   10.56      27.3  T
   5    -17.6767808 -0.139583E-08  0.159E-04   10.56     167.9  T
     SCC iter.                  ...        0 min,  0.001 sec
     gradient                   ...        0 min,  0.001 sec
 * total energy  :   -17.4822458 Eh     change       -0.8746374E-05 Eh
   gradient norm :     0.0015840 Eh/α   predicted    -0.5113273E-05 ( -41.54%)
   displ. norm   :     0.0323239 α      lambda       -0.5190117E-05
   maximum displ.:     0.0233502 α      in ANC's #3, #1, #2, ...

........................................................................
.............................. CYCLE    7 ..............................
........................................................................

 iter      E             dE          RMSdq      gap      omega  full diag
   1    -17.6769568 -0.176770E+02  0.104E-02   10.56       0.0  T
   2    -17.6769568 -0.644174E-07  0.616E-03   10.56       4.3  T
   3    -17.6769568  0.510081E-09  0.142E-03   10.56      18.8  T
   4    -17.6769569 -0.497367E-08  0.276E-04   10.56      97.0  T
   5    -17.6769569 -0.232163E-09  0.115E-04   10.56     232.9  T
     SCC iter.                  ...        0 min,  0.001 sec
     gradient                   ...        0 min,  0.001 sec
 * total energy  :   -17.4822514 Eh     change       -0.5568647E-05 Eh
   gradient norm :     0.0011679 Eh/α   predicted    -0.2597356E-05 ( -53.36%)
   displ. norm   :     0.0398620 α      lambda       -0.4353254E-05
   maximum displ.:     0.0279326 α      in ANC's #3, #2, #1, ...

........................................................................
.............................. CYCLE    8 ..............................
........................................................................

 iter      E             dE          RMSdq      gap      omega  full diag
   1    -17.6771232 -0.176771E+02  0.135E-02   10.58       0.0  T
   2    -17.6771234 -0.169135E-06  0.779E-03   10.58       3.4  T
   3    -17.6771234 -0.909125E-09  0.270E-03   10.58       9.9  T
   4    -17.6771234 -0.194001E-07  0.451E-04   10.58      59.2  T
   5    -17.6771234 -0.377774E-09  0.125E-04   10.58     213.1  T
     SCC iter.                  ...        0 min,  0.001 sec
     gradient                   ...        0 min,  0.001 sec
 * total energy  :   -17.4822554 Eh     change       -0.3957232E-05 Eh
   gradient norm :     0.0006497 Eh/α   predicted    -0.2176541E-05 ( -45.00%)
   displ. norm   :     0.0265741 α      lambda       -0.1670990E-05
   maximum displ.:     0.0199130 α      in ANC's #3, #1, #2, ...

   *** GEOMETRY OPTIMIZATION CONVERGED AFTER 8 ITERATIONS ***

------------------------------------------------------------------------
 total energy gain   :        -0.0021186 Eh       -1.3295 kcal/mol
 total RMSD          :         0.0886667 a0        0.0469 Å
 total power (kW/mol):        -0.6953051 (step) -160.3564 (real)
------------------------------------------------------------------------

 ANCopt (total)                0 d,  0 h,  0 min,  0.035 sec
 optimizer setup                ...        0 min,  0.000 sec (  1.127%)
 model hessian                  ...        0 min,  0.005 sec ( 13.383%)
 ANC generation                 ...        0 min,  0.000 sec (  1.023%)
 coordinate transformation      ...        0 min,  0.000 sec (  0.173%)
 single point calculation       ...        0 min,  0.027 sec ( 78.052%)
 optimization log               ...        0 min,  0.000 sec (  1.266%)
 hessian update                 ...        0 min,  0.000 sec (  0.223%)
 rational function              ...        0 min,  0.001 sec (  3.716%)

================
 final structure:
================
14
 xtb: 6.7.1 (edcfbbe)
C           -3.79560419899514       -3.92818666098867       -2.82592988452557
C           -4.25476764248312       -2.43913043888551       -2.89230121547472
O           -3.24945782529650       -1.56330045019645       -2.77595028672404
H           -4.63402888280941       -4.60148792890893       -2.99336434111182
C           -5.38708641618118       -2.25537511021113       -1.82843350501595
H           -4.77729465673936       -2.33003832925015       -3.91457280323904
H           -3.03326268403086       -4.09699134593346       -3.58324237418457
C           -6.01165193395716       -0.87263948186787       -1.91582955656144
H           -3.35781359489665       -4.11795150956628       -1.84808050209726
H           -6.14477815682342       -3.03076900847009       -1.97234713938404
H           -4.92711767990164       -2.38852765530095       -0.84545215762446
H           -6.55319327085517       -0.76483510580995       -2.85383955440572
H           -6.68925670592579       -0.69004115576499       -1.08419869068118
H           -5.20853035110459       -0.13727781884557       -1.90141998897018
 
 Bond Distances (Angstroems)
 ---------------------------
C1-C2=1.5597         C1-H4=1.0883         C1-H7=1.0877         C1-H9=1.0881         C2-C1=1.5597         C2-O3=1.3384         
C2-C5=1.5645         C2-H6=1.1532         O3-C2=1.3384         H4-C1=1.0883         C5-C2=1.5645         C5-C8=1.5198         
C5-H10=1.0936        C5-H11=1.0934        H6-C2=1.1532         H7-C1=1.0877         C8-C5=1.5198         C8-H12=1.0885        
C8-H13=1.0882        C8-H14=1.0890        H9-C1=1.0881         H10-C5=1.0936        H11-C5=1.0934        H12-C8=1.0885        
H13-C8=1.0882        H14-C8=1.0890        
 C  H  Rav=1.0967 sigma=0.0201  Rmin=1.0877  Rmax=1.1532     9
 C  C  Rav=1.5480 sigma=0.0201  Rmin=1.5198  Rmax=1.5645     3
 O  C  Rav=1.3384 sigma=0.0000  Rmin=1.3384  Rmax=1.3384     1
 
 selected bond angles (degree)
 --------------------
H4-C1-C2=110.94                H7-C1-C2=108.96                H7-C1-H4=109.68                H9-C1-C2=108.86                
H9-C1-H4=109.90                H9-C1-H7=108.46                O3-C2-C1=113.57                C5-C2-C1=107.23                
C5-C2-O3=114.06                H6-C2-C1=105.15                H6-C2-O3=110.82                H6-C2-C5=105.29                
C8-C5-C2=111.42                H10-C5-C2=109.19               H10-C5-C8=110.66               H11-C5-C2=107.01               
H11-C5-C8=109.60               H11-C5-H10=108.87              H12-C8-C5=110.13               H13-C8-C5=111.39               
H13-C8-H12=109.40              H14-C8-C5=108.09               H14-C8-H12=108.15              H14-C8-H13=109.62              
 
 selected dihedral angles (degree)
 ---------------------------------
O3-C2-C1-H4=183.92            O3-C2-C1-H7=304.77            O3-C2-C1-H9= 62.87            C5-C2-C1-H4= 56.98            
C5-C2-C1-H7=177.82            C5-C2-C1-H9=295.93            H6-C2-C1-H4=305.25            H6-C2-C1-H7= 66.10            
H6-C2-C1-H9=184.21            C8-C5-C2-C1=186.23            C8-C5-C2-O3= 59.57            C8-C5-C2-H6=297.85            
H10-C5-C2-C1=308.76           H10-C5-C2-O3=182.10           H10-C5-C2-H6= 60.39           H11-C5-C2-C1= 66.44           
H11-C5-C2-O3=299.78           H11-C5-C2-H6=178.07           H12-C8-C5-C2= 67.11           H12-C8-C5-H10=305.43          
H12-C8-C5-H11=185.36          H13-C8-C5-C2=188.68           H13-C8-C5-H10= 66.99          H13-C8-C5-H11=306.92          
H14-C8-C5-C2=309.16           H14-C8-C5-H10=187.48          H14-C8-C5-H11= 67.41          
           -------------------------------------------------
          |                Final Singlepoint                |
           -------------------------------------------------

          ...................................................
          :                      SETUP                      :
          :.................................................:
          :  # basis functions                  29          :
          :  # atomic orbitals                  29          :
          :  # shells                           19          :
          :  # electrons                        32          :
          :  max. iterations                   250          :
          :  Hamiltonian                  GFN2-xTB          :
          :  restarted?                      false          :
          :  GBSA solvation                   true          :
          :  PC potential                    false          :
          :  electronic temp.          300.0000000     K    :
          :  accuracy                    1.0000000          :
          :  -> integral cutoff          0.2500000E+02      :
          :  -> integral neglect         0.1000000E-07      :
          :  -> SCF convergence          0.1000000E-05 Eh   :
          :  -> wf. convergence          0.1000000E-03 e    :
          :  Broyden damping             0.4000000          :
          :  net charge                         -1          :
          :  unpaired electrons                  0          :
          ...................................................

 iter      E             dE          RMSdq      gap      omega  full diag
   1    -17.6771234 -0.176771E+02  0.397E-05   10.58       0.0  T
   2    -17.6771234 -0.419220E-12  0.252E-05   10.58    1058.8  T
   3    -17.6771234 -0.344613E-12  0.299E-06   10.58    8936.3  T

   *** convergence criteria satisfied after 3 iterations ***

         #    Occupation            Energy/Eh            Energy/eV
      -------------------------------------------------------------
         1        2.0000           -0.5978682             -16.2688
       ...           ...                  ...                  ...
        10        2.0000           -0.4444493             -12.0941
        11        2.0000           -0.4304526             -11.7132
        12        2.0000           -0.4232845             -11.5182
        13        2.0000           -0.4158054             -11.3146
        14        2.0000           -0.4023295             -10.9479
        15        2.0000           -0.2929972              -7.9729
        16        2.0000           -0.2925271              -7.9601 (HOMO)
        17                          0.0961586               2.6166 (LUMO)
        18                          0.1124526               3.0600
        19                          0.1317195               3.5843
        20                          0.1534867               4.1766
        21                          0.1679763               4.5709
       ...                                ...                  ...
        29                          0.3742636              10.1842
      -------------------------------------------------------------
                  HL-Gap            0.3886857 Eh           10.5767 eV
             Fermi-level           -0.0981842 Eh           -2.6717 eV

 SCC (total)                   0 d,  0 h,  0 min,  0.003 sec
 SCC setup                      ...        0 min,  0.000 sec (  6.729%)
 Dispersion                     ...        0 min,  0.000 sec (  1.896%)
 classical contributions        ...        0 min,  0.000 sec (  0.427%)
 integral evaluation            ...        0 min,  0.000 sec ( 17.088%)
 iterations                     ...        0 min,  0.001 sec ( 24.970%)
 molecular gradient             ...        0 min,  0.001 sec ( 45.559%)
 printout                       ...        0 min,  0.000 sec (  2.263%)

         :::::::::::::::::::::::::::::::::::::::::::::::::::::
         ::                     SUMMARY                     ::
         :::::::::::::::::::::::::::::::::::::::::::::::::::::
         :: total energy             -17.482255353262 Eh    ::
         :: total w/o Gsasa/hb       -17.481678784725 Eh    ::
         :: gradient norm              0.000651074887 Eh/a0 ::
         :: HOMO-LUMO gap             10.576676073540 eV    ::
         ::.................................................::
         :: SCC energy               -17.677117086175 Eh    ::
         :: -> isotropic ES            0.232117814744 Eh    ::
         :: -> anisotropic ES          0.010451400887 Eh    ::
         :: -> anisotropic XC          0.003211443965 Eh    ::
         :: -> dispersion             -0.008205521532 Eh    ::
         :: -> Gsolv                  -0.116834693079 Eh    ::
         ::    -> Gelec               -0.116258124542 Eh    ::
         ::    -> Gsasa                0.001300637171 Eh    ::
         ::    -> Ghb                 -0.002957965407 Eh    ::
         ::    -> Gshift               0.001080759698 Eh    ::
         :: repulsion energy           0.194861732912 Eh    ::
         :: add. restraining           0.000000000000 Eh    ::
         :: total charge              -1.000000000000 e     ::
         :::::::::::::::::::::::::::::::::::::::::::::::::::::

           ------------------------------------------------- 
          |                Numerical Hessian                |
           ------------------------------------------------- 
step length          :   0.00500
SCC accuracy         :   0.30000
Hessian scale factor :   1.00000
frozen atoms in %    :   0.00000    0
RMS gradient         :   0.00065
estimated CPU  time      0.01 min
estimated wall time      0.01 min

writing file <hessian>.

 projected vibrational frequencies (cm⁻¹)
eigval :       -0.00    -0.00    -0.00    -0.00     0.00     0.00
eigval :       99.47   190.76   198.32   247.48   369.19   469.49
eigval :      502.12   788.88   828.31   910.88   965.66  1012.85
eigval :     1033.86  1097.73  1126.88  1158.32  1257.62  1284.67
eigval :     1329.81  1351.19  1366.02  1387.97  1476.33  1484.14
eigval :     1486.40  1509.47  1511.30  2140.74  2918.98  2947.08
eigval :     2984.74  3000.04  3005.73  3008.51  3017.77  3018.71
           -------------------------------------------------
          |                Property Printout                |
           -------------------------------------------------

    * Orbital Energies and Occupations

         #    Occupation            Energy/Eh            Energy/eV
      -------------------------------------------------------------
         1        2.0000           -0.5978681             -16.2688
       ...           ...                  ...                  ...
         4        2.0000           -0.5550598             -15.1039
         5        2.0000           -0.5252876             -14.2938
         6        2.0000           -0.4919069             -13.3855
         7        2.0000           -0.4784255             -13.0186
         8        2.0000           -0.4745769             -12.9139
         9        2.0000           -0.4656465             -12.6709
        10        2.0000           -0.4444493             -12.0941
        11        2.0000           -0.4304526             -11.7132
        12        2.0000           -0.4232845             -11.5182
        13        2.0000           -0.4158053             -11.3146
        14        2.0000           -0.4023295             -10.9479
        15        2.0000           -0.2929972              -7.9729
        16        2.0000           -0.2925271              -7.9601 (HOMO)
        17                          0.0961586               2.6166 (LUMO)
        18                          0.1124526               3.0600
        19                          0.1317195               3.5843
        20                          0.1534867               4.1766
        21                          0.1679763               4.5709
        22                          0.1837077               4.9989
        23                          0.1912279               5.2036
        24                          0.2046325               5.5683
        25                          0.2320339               6.3140
        26                          0.2506177               6.8197
        27                          0.2748313               7.4785
       ...                                ...                  ...
        29                          0.3742636              10.1842
      -------------------------------------------------------------
                  HL-Gap            0.3886857 Eh           10.5767 eV
             Fermi-level           -0.0981842 Eh           -2.6717 eV

     #   Z          covCN         q      C6AA      α(0)
     1   6 C        3.749    -0.104    22.557     6.774
     2   6 C        3.708     0.175    17.921     6.051
     3   8 O        0.855    -0.879    34.094     7.828
     4   1 H        0.925     0.005     2.971     2.696
     5   6 C        3.798    -0.067    21.783     6.646
     6   1 H        0.911    -0.141     7.265     4.216
     7   1 H        0.925     0.009     2.914     2.670
     8   6 C        3.751    -0.088    22.240     6.725
     9   1 H        0.925     0.009     2.902     2.664
    10   1 H        0.924    -0.004     3.128     2.766
    11   1 H        0.924     0.002     3.018     2.717
    12   1 H        0.925     0.021     2.712     2.575
    13   1 H        0.925     0.034     2.533     2.489
    14   1 H        0.925     0.028     2.621     2.532

 Mol. C6AA /au·bohr⁶  :       1623.937471
 Mol. C8AA /au·bohr⁸  :      32726.029278
 Mol. α(0) /au        :         59.347732


Wiberg/Mayer (AO) data.
largest (>0.10) Wiberg bond orders for each atom

 ---------------------------------------------------------------------------
     #   Z sym  total        # sym  WBO       # sym  WBO       # sym  WBO
 ---------------------------------------------------------------------------
     1   6 C    3.993 --     9 H    0.991     7 H    0.990     4 H    0.990
                             2 C    0.956
     2   6 C    3.977 --     3 O    1.151     1 C    0.956     5 C    0.945
                             6 H    0.913
     3   8 O    1.321 --     2 C    1.151
     4   1 H    1.000 --     1 C    0.990
     5   6 C    3.993 --     8 C    1.022    11 H    0.981    10 H    0.981
                             2 C    0.945
     6   1 H    0.980 --     2 C    0.913
     7   1 H    1.000 --     1 C    0.990
     8   6 C    3.999 --     5 C    1.022    12 H    0.989    13 H    0.987
                            14 H    0.987
     9   1 H    1.000 --     1 C    0.991
    10   1 H    1.000 --     5 C    0.981
    11   1 H    1.000 --     5 C    0.981
    12   1 H    1.000 --     8 C    0.989
    13   1 H    0.999 --     8 C    0.987
    14   1 H    0.999 --     8 C    0.987
 ---------------------------------------------------------------------------

Topologies differ in total number of bonds
Writing topology from bond orders to xtbtopo.mol

molecular dipole:
                 x           y           z       tot (Debye)
 q only:        6.599       3.362       5.413
   full:        6.423       3.141       5.361      22.715
molecular quadrupole (traceless):
                xx          xy          yy          xz          yz          zz
 q only:      -23.760     -34.637      24.981     -54.113     -27.427      -1.221
  q+dip:      -22.753     -31.194      24.382     -51.670     -25.510      -1.629
   full:      -22.723     -31.190      24.767     -51.763     -25.473      -2.044

           -------------------------------------------------
          |                Geometry Summary                 |
           -------------------------------------------------

      molecular mass/u    :       73.1138153
   center of mass at/Å    :       -4.5309387      -2.2073839      -2.4513410
  moments of inertia/u·Å² :        0.6034579E+02   0.1436316E+03   0.1850416E+03
rotational constants/cm⁻¹ :        0.2793506E+00   0.1173671E+00   0.9110184E-01

 * 10 selected distances

     #   Z          #   Z                                           value/Å
     1   6 C        4   1 H                                       1.0882670
     2   6 C        6   1 H                                       1.1532454
     1   6 C        7   1 H                                       1.0877417 (min)
     5   6 C        8   6 C                                       1.5197626 (max)
     1   6 C        9   1 H                                       1.0880537
     5   6 C       10   1 H                                       1.0936379
     5   6 C       11   1 H                                       1.0934136
     8   6 C       12   1 H                                       1.0884630
     8   6 C       13   1 H                                       1.0881638
     8   6 C       14   1 H                                       1.0890220

 * 2 distinct bonds (by element types)

   Z      Z             #   av. dist./Å        max./Å        min./Å
   1 H    6 C           9     1.0966676     1.1532454     1.0877417
   6 C    6 C           1     1.5197626     1.5197626     1.5197626

           -------------------------------------------------
          |               Frequency Printout                |
           -------------------------------------------------
 projected vibrational frequencies (cm⁻¹)
eigval :       -0.00    -0.00    -0.00    -0.00     0.00     0.00
eigval :       99.47   190.76   198.32   247.48   369.19   469.49
eigval :      502.12   788.88   828.31   910.88   965.66  1012.85
eigval :     1033.86  1097.73  1126.88  1158.32  1257.62  1284.67
eigval :     1329.81  1351.19  1366.02  1387.97  1476.33  1484.14
eigval :     1486.40  1509.47  1511.30  2140.74  2918.98  2947.08
eigval :     2984.74  3000.04  3005.73  3008.51  3017.77  3018.71
 reduced masses (amu)
   1:  9.95   2: 10.92   3: 11.21   4: 10.95   5: 11.45   6: 10.68   7:  7.95   8:  3.81
   9:  1.70  10:  7.33  11:  9.60  12:  9.71  13:  8.88  14:  7.04  15:  3.83  16:  7.77
  17:  3.02  18:  7.52  19:  6.66  20:  9.07  21:  7.23  22:  9.81  23:  3.35  24:  3.81
  25:  3.74  26:  2.87  27:  2.63  28:  3.19  29:  1.96  30:  1.62  31:  1.57  32:  1.63
  33:  1.59  34:  1.62  35:  1.85  36:  1.58  37:  1.73  38:  1.83  39:  1.92  40:  1.90
  41:  1.43  42:  1.40
 IR intensities (km·mol⁻¹)
   1:  6.46   2: 11.25   3: 11.13   4: 11.38   5: 18.57   6: 15.28   7:  8.02   8:  9.16
   9:  1.43  10:  9.97  11: 13.24  12: 10.06  13:  7.66  14:  7.82  15:  9.02  16: 31.37
  17: 14.54  18:156.13  19: 37.43  20: 49.52  21: 31.60  22:260.09  23: 17.77  24: 57.04
  25: 50.54  26: 30.88  27: 72.63  28:  3.86  29:  6.25  30:  4.41  31:  0.22  32:  1.61
  33:  0.60  34:943.26  35:168.16  36:103.75  37:140.08  38:111.27  39:138.26  40:105.77
  41: 81.26  42: 39.31
 Raman intensities (Ä⁴*amu⁻¹)
   1:  0.00   2:  0.00   3:  0.00   4:  0.00   5:  0.00   6:  0.00   7:  0.00   8:  0.00
   9:  0.00  10:  0.00  11:  0.00  12:  0.00  13:  0.00  14:  0.00  15:  0.00  16:  0.00
  17:  0.00  18:  0.00  19:  0.00  20:  0.00  21:  0.00  22:  0.00  23:  0.00  24:  0.00
  25:  0.00  26:  0.00  27:  0.00  28:  0.00  29:  0.00  30:  0.00  31:  0.00  32:  0.00
  33:  0.00  34:  0.00  35:  0.00  36:  0.00  37:  0.00  38:  0.00  39:  0.00  40:  0.00
  41:  0.00  42:  0.00
 output can be read by thermo (or use thermo option).
 writing <g98.out> molden fake output.
 recommended (thermochemical) frequency scaling factor: 1.0
           -------------------------------------------------
          |             Thermodynamic Functions             |
           -------------------------------------------------

Refinement of some symmetry elements was terminated before convergence was reached.
Some symmetry elements may remain unidentified.
Molecule has no symmetry elements
It seems to be the C1 point group
c1  symmetry found (for desy threshold:  0.10E+00) used in thermo

          ...................................................
          :                      SETUP                      :
          :.................................................:
          :  # frequencies                          36      :
          :  # imaginary freq.                       0      :
          :  linear?                             false      :
          :  only rotor calc.                    false      :
          :  symmetry                               c1      :
          :  rotational number                       1      :
          :  scaling factor                  1.0000000      :
          :  rotor cutoff                   50.0000000 cm⁻¹ :
          :  imag. cutoff                  -20.0000000 cm⁻¹ :
          :.................................................:

    mode    ω/cm⁻¹     T·S(HO)/kcal·mol⁻¹    T·S(FR)/kcal·mol⁻¹   T·S(vib)
   ------------------------------------------------------------------------
       1     99.47    -1.03298 ( 94.00%)    -0.85239 (  6.00%)    -1.02215
       2    190.76    -0.66201 ( 99.53%)    -0.65968 (  0.47%)    -0.66200
       3    198.32    -0.64062 ( 99.60%)    -0.64818 (  0.40%)    -0.64065
       4    247.48    -0.52131 ( 99.83%)    -0.58262 (  0.17%)    -0.52141
   ------------------------------------------------------------------------

   temp. (K)  partition function   enthalpy   heat capacity  entropy
                                   cal/mol     cal/K/mol   cal/K/mol   J/K/mol
 298.15  VIB   16.6                 2285.620     16.305     13.212
         ROT  0.967E+05              888.752      2.981     25.794
         INT  0.160E+07             3174.372     19.285     39.007
         TR   0.605E+27             1481.254      4.968     38.767
         TOT                        4655.6263    24.2536    77.7735   325.4042

       T/K    H(0)-H(T)+PV         H(T)/Eh          T*S/Eh         G(T)/Eh
   ------------------------------------------------------------------------
    298.15    0.741921E-02    0.126994E+00    0.369527E-01    0.900417E-01
   ------------------------------------------------------------------------

         :::::::::::::::::::::::::::::::::::::::::::::::::::::
         ::                  THERMODYNAMIC                  ::
         :::::::::::::::::::::::::::::::::::::::::::::::::::::
         :: total free energy         -17.392213624358 Eh   ::
         ::.................................................::
         :: total energy              -17.482255353033 Eh   ::
         :: zero point energy           0.119575201149 Eh   ::
         :: G(RRHO) w/o ZPVE           -0.029533472475 Eh   ::
         :: G(RRHO) contrib.            0.090041728675 Eh   ::
         :::::::::::::::::::::::::::::::::::::::::::::::::::::

optimized geometry written to: xtbopt.xyz


           -------------------------------------------------
          | TOTAL ENERGY              -17.482255353033 Eh   |
          | TOTAL ENTHALPY            -17.355260939068 Eh   |
          | TOTAL FREE ENERGY         -17.392213624358 Eh   |
          | GRADIENT NORM               0.000651085381 Eh/α |
          | HOMO-LUMO GAP              10.576675979239 eV   |
           -------------------------------------------------

------------------------------------------------------------------------
 * finished run on 2025/10/18 at 01:00:12.622     
------------------------------------------------------------------------
 total:
 * wall-time:     0 d,  0 h,  0 min,  0.611 sec
 *  cpu-time:     0 d,  0 h,  0 min,  0.830 sec
 * ratio c/w:     1.358 speedup
 SCF:
 * wall-time:     0 d,  0 h,  0 min,  0.033 sec
 *  cpu-time:     0 d,  0 h,  0 min,  0.045 sec
 * ratio c/w:     1.349 speedup
 ANC optimizer:
 * wall-time:     0 d,  0 h,  0 min,  0.104 sec
 *  cpu-time:     0 d,  0 h,  0 min,  0.143 sec
 * ratio c/w:     1.375 speedup
 analytical hessian:
 * wall-time:     0 d,  0 h,  0 min,  0.237 sec
 *  cpu-time:     0 d,  0 h,  0 min,  0.421 sec
 * ratio c/w:     1.774 speedup

