14
 energy: -17.480136731307 gnorm: 0.038035267147 xtb: 6.7.1 (edcfbbe)
C           -3.78783400000000       -3.92637900000000       -2.83233000000000
C           -4.25871500000000       -2.45169100000000       -2.90622900000000
O           -3.23023900000000       -1.56276800000000       -2.79140400000000
H           -4.61437100000000       -4.64834100000000       -2.96158600000000
C           -5.38099200000000       -2.24785700000000       -1.84676300000000
H           -4.80596400000000       -2.37025400000000       -3.90375500000000
H           -3.03385500000000       -4.12037700000000       -3.61180100000000
C           -6.01106200000000       -0.85961800000000       -1.90789500000000
H           -3.31439700000000       -4.11087000000000       -1.85182900000000
H           -6.16195700000000       -3.02140600000000       -1.97217500000000
H           -4.92559600000000       -2.40808400000000       -0.85045500000000
H           -6.52190000000000       -0.70185500000000       -2.87260800000000
H           -6.74913200000000       -0.69541300000000       -1.10787300000000
H           -5.22783000000000       -0.09163900000000       -1.81825900000000
14
 energy: -17.481928249026 gnorm: 0.015903636605 xtb: 6.7.1 (edcfbbe)
C           -3.79301501691919       -3.92474447536857       -2.82408108065049
C           -4.27006599850687       -2.45024724610191       -2.90635171007877
O           -3.25225201513698       -1.56855571403643       -2.80033855157469
H           -4.62372978987150       -4.62315255275353       -2.95945999662792
C           -5.38544224226669       -2.25127984169764       -1.83471897829992
H           -4.78551732350822       -2.34845203487633       -3.92192973919104
H           -3.04376705672573       -4.10549692076104       -3.59711860755422
C           -6.00657176243588       -0.86757936766801       -1.90964780459877
H           -3.32506089214099       -4.10205857603558       -1.85245005198033
H           -6.15718042966792       -3.02014936198577       -1.97371055227024
H           -4.92892306388046       -2.39482285213710       -0.84612064520192
H           -6.50631012470970       -0.72695325881152       -2.87122026157848
H           -6.73079654518111       -0.71324840874606       -1.10709333090497
H           -5.21521173904875       -0.11981138902051       -1.83072068948824
14
 energy: -17.482167785546 gnorm: 0.005545739089 xtb: 6.7.1 (edcfbbe)
C           -3.79498546984093       -3.92779203347733       -2.82310789159105
C           -4.26373892840942       -2.44619461594100       -2.89897036397150
O           -3.25606160676984       -1.56214227651927       -2.79795444387160
H           -4.63027233758699       -4.61216576612773       -2.96077786833864
C           -5.38858273576885       -2.25434492714214       -1.83304047707202
H           -4.78448063823644       -2.34062304767658       -3.91428394834157
H           -3.04816933410595       -4.10228462387210       -3.59383591536863
C           -6.00780935201547       -0.87015875722857       -1.91174138509582
H           -3.33316009705536       -4.09900766937909       -1.85379449153734
H           -6.15246638976164       -3.02460424717795       -1.97517416695686
H           -4.92611365254963       -2.39222054043649       -0.85241725645410
H           -6.50621608969520       -0.73857488333637       -2.86970813985764
H           -6.72212319917347       -0.71270120460512       -1.10655658919054
H           -5.20966416903080       -0.13373740708027       -1.84359906235268
14
 energy: -17.482213992386 gnorm: 0.002868762506 xtb: 6.7.1 (edcfbbe)
C           -3.79495276521031       -3.92752944304604       -2.82337006021347
C           -4.26183601132514       -2.44260112289324       -2.89922608092763
O           -3.25587363660392       -1.56160533912859       -2.79194807373707
H           -4.63326773353648       -4.60601708410026       -2.96514709956446
C           -5.38789894786368       -2.25602151058539       -1.83074835164794
H           -4.78446342425543       -2.33914836936316       -3.91706908970542
H           -3.04687207931307       -4.10223017323931       -3.59249903887007
C           -6.00858759891013       -0.87112576537155       -1.91239731952145
H           -3.33799469938243       -4.10042976165482       -1.85214332289302
H           -6.14906405235692       -3.02745670169721       -1.97467138500178
H           -4.92544762689654       -2.39291149464920       -0.85036597322961
H           -6.51261495670832       -0.74501557047164       -2.86804482272130
H           -6.71727130525805       -0.70782292449401       -1.10378330321600
H           -5.20769916237957       -0.13663673930559       -1.85354807875077
14
 energy: -17.482237080987 gnorm: 0.001255928393 xtb: 6.7.1 (edcfbbe)
C           -3.79368961375211       -3.92858612881195       -2.82498351581674
C           -4.25836792971567       -2.44016773025357       -2.89664817031992
O           -3.25457842785108       -1.56147812963831       -2.78554870037101
H           -4.63414912785588       -4.60307039902525       -2.97321730070770
C           -5.38802791687072       -2.25605938325292       -1.82908563460729
H           -4.78353969195173       -2.33753392450733       -3.91656852862023
H           -3.04274073625954       -4.10309522518772       -3.59193312948958
C           -6.01025691153036       -0.87099756987054       -1.91315026103712
H           -3.34179181891002       -4.10657337936166       -1.85166302844521
H           -6.14749317985359       -3.02886730302843       -1.97387036731823
H           -4.92662708629633       -2.39148060448484       -0.84762661000780
H           -6.52457215189129       -0.75146301114652       -2.86490323304477
H           -6.71080833634238       -0.70027667677732       -1.09833883358374
H           -5.20720107091930       -0.13690253465364       -1.86742468663066
14
 energy: -17.482245827361 gnorm: 0.001584027065 xtb: 6.7.1 (edcfbbe)
C           -3.79397101038836       -3.92887528601172       -2.82550891964984
C           -4.25556080540881       -2.43862003215076       -2.89417259328159
O           -3.25260996330193       -1.56170237455603       -2.78068658020672
H           -4.63417590353120       -4.60250010071907       -2.98156078064003
C           -5.38770685807056       -2.25584635535950       -1.82834412250545
H           -4.78138634891304       -2.33447645981978       -3.91582375558354
H           -3.03904410242324       -4.10126821049038       -3.58953351821358
C           -6.01088794106569       -0.87157941832509       -1.91451942038084
H           -3.34674709317804       -4.11334158326130       -1.85068146575354
H           -6.14649361506130       -3.02974318358220       -1.97327562024735
H           -4.92788204673700       -2.39032336543780       -0.84543064319646
H           -6.53763382142493       -0.75709178639009       -2.86060345628275
H           -6.70190959414334       -0.69489917910007       -1.09231229821111
H           -5.20783489635255       -0.13628466479619       -1.88250882584721
14
 energy: -17.482251396008 gnorm: 0.001167906295 xtb: 6.7.1 (edcfbbe)
C           -3.79427181382155       -3.92877604977985       -2.82597096791697
C           -4.25505304767649       -2.43921360787465       -2.89284435170928
O           -3.25113147077247       -1.56310191582579       -2.77865570799999
H           -4.63361795742032       -4.60246862072073       -2.98691167344620
C           -5.38757150993050       -2.25506641181836       -1.82843900926370
H           -4.77924213337971       -2.33319318772882       -3.91517294474554
H           -3.03611657325980       -4.09952658170562       -3.58724668786999
C           -6.01147099769824       -0.87180971608333       -1.91489181340245
H           -3.35097293030125       -4.11597759387797       -1.84996068433265
H           -6.14599494111896       -3.02953987838593       -1.97307657829329
H           -4.92824766015651       -2.38918415868375       -0.84519663520154
H           -6.54507157974947       -0.76012982770127       -2.85722681790756
H           -6.69645412969310       -0.69232861781585       -1.08835752895191
H           -5.20862725502160       -0.13623583199809       -1.89101059895893
14
 energy: -17.482255353240 gnorm: 0.000649756321 xtb: 6.7.1 (edcfbbe)
C           -3.79560419899514       -3.92818666098867       -2.82592988452557
C           -4.25476764248312       -2.43913043888551       -2.89230121547472
O           -3.24945782529650       -1.56330045019645       -2.77595028672404
H           -4.63402888280941       -4.60148792890893       -2.99336434111182
C           -5.38708641618118       -2.25537511021113       -1.82843350501595
H           -4.77729465673936       -2.33003832925015       -3.91457280323904
H           -3.03326268403086       -4.09699134593346       -3.58324237418457
C           -6.01165193395716       -0.87263948186787       -1.91582955656144
H           -3.35781359489665       -4.11795150956628       -1.84808050209726
H           -6.14477815682342       -3.03076900847009       -1.97234713938404
H           -4.92711767990164       -2.38852765530095       -0.84545215762446
H           -6.55319327085517       -0.76483510580995       -2.85383955440572
H           -6.68925670592579       -0.69004115576499       -1.08419869068118
H           -5.20853035110459       -0.13727781884557       -1.90141998897018
