
                                 *****************
                                 * O   R   C   A *
                                 *****************

                                            #,                                       
                                            ###                                      
                                            ####                                     
                                            #####                                    
                                            ######                                   
                                           ########,                                 
                                     ,,################,,,,,                         
                               ,,#################################,,                 
                          ,,##########################################,,             
                       ,#########################################, ''#####,          
                    ,#############################################,,   '####,        
                  ,##################################################,,,,####,       
                ,###########''''           ''''###############################       
              ,#####''   ,,,,##########,,,,          '''####'''          '####       
            ,##' ,,,,###########################,,,                        '##       
           ' ,,###''''                  '''############,,,                           
         ,,##''                                '''############,,,,        ,,,,,,###''
      ,#''                                            '''#######################'''  
     '                                                          ''''####''''         
             ,#######,   #######,   ,#######,      ##                                
            ,#'     '#,  ##    ##  ,#'     '#,    #''#        ######   ,####,        
            ##       ##  ##   ,#'  ##            #'  '#       #        #'  '#        
            ##       ##  #######   ##           ,######,      #####,   #    #        
            '#,     ,#'  ##    ##  '#,     ,#' ,#      #,         ##   #,  ,#        
             '#######'   ##     ##  '#######'  #'      '#     #####' # '####'        



                  #######################################################
                  #                        -***-                        #
                  #          Department of theory and spectroscopy      #
                  #    Directorship and core code : Frank Neese         #
                  #        Max Planck Institute fuer Kohlenforschung    #
                  #                Kaiser Wilhelm Platz 1               #
                  #                 D-45470 Muelheim/Ruhr               #
                  #                      Germany                        #
                  #                                                     #
                  #                  All rights reserved                #
                  #                        -***-                        #
                  #######################################################


                         Program Version 5.0.4 -  RELEASE  -


 With contributions from (in alphabetic order):
   Daniel Aravena         : Magnetic Suceptibility
   Michael Atanasov       : Ab Initio Ligand Field Theory (pilot matlab implementation)
   Alexander A. Auer      : GIAO ZORA, VPT2 properties, NMR spectrum
   Ute Becker             : Parallelization
   Giovanni Bistoni       : ED, misc. LED, open-shell LED, HFLD
   Martin Brehm           : Molecular dynamics
   Dmytro Bykov           : SCF Hessian
   Vijay G. Chilkuri      : MRCI spin determinant printing, contributions to CSF-ICE
   Dipayan Datta          : RHF DLPNO-CCSD density
   Achintya Kumar Dutta   : EOM-CC, STEOM-CC
   Dmitry Ganyushin       : Spin-Orbit,Spin-Spin,Magnetic field MRCI
   Miquel Garcia          : C-PCM and meta-GGA Hessian, CC/C-PCM, Gaussian charge scheme
   Yang Guo               : DLPNO-NEVPT2, F12-NEVPT2, CIM, IAO-localization
   Andreas Hansen         : Spin unrestricted coupled pair/coupled cluster methods
   Benjamin Helmich-Paris : MC-RPA, TRAH-SCF, COSX integrals
   Lee Huntington         : MR-EOM, pCC
   Robert Izsak           : Overlap fitted RIJCOSX, COSX-SCS-MP3, EOM
   Marcus Kettner         : VPT2
   Christian Kollmar      : KDIIS, OOCD, Brueckner-CCSD(T), CCSD density, CASPT2, CASPT2-K
   Simone Kossmann        : Meta GGA functionals, TD-DFT gradient, OOMP2, MP2 Hessian
   Martin Krupicka        : Initial AUTO-CI
   Lucas Lang             : DCDCAS
   Marvin Lechner         : AUTO-CI (C++ implementation), FIC-MRCC
   Dagmar Lenk            : GEPOL surface, SMD
   Dimitrios Liakos       : Extrapolation schemes; Compound Job, initial MDCI parallelization
   Dimitrios Manganas     : Further ROCIS development; embedding schemes
   Dimitrios Pantazis     : SARC Basis sets
   Anastasios Papadopoulos: AUTO-CI, single reference methods and gradients
   Taras Petrenko         : DFT Hessian,TD-DFT gradient, ASA, ECA, R-Raman, ABS, FL, XAS/XES, NRVS
   Peter Pinski           : DLPNO-MP2, DLPNO-MP2 Gradient
   Christoph Reimann      : Effective Core Potentials
   Marius Retegan         : Local ZFS, SOC
   Christoph Riplinger    : Optimizer, TS searches, QM/MM, DLPNO-CCSD(T), (RO)-DLPNO pert. Triples
   Tobias Risthaus        : Range-separated hybrids, TD-DFT gradient, RPA, STAB
   Michael Roemelt        : Original ROCIS implementation
   Masaaki Saitow         : Open-shell DLPNO-CCSD energy and density
   Barbara Sandhoefer     : DKH picture change effects
   Avijit Sen             : IP-ROCIS
   Kantharuban Sivalingam : CASSCF convergence, NEVPT2, FIC-MRCI
   Bernardo de Souza      : ESD, SOC TD-DFT
   Georgi Stoychev        : AutoAux, RI-MP2 NMR, DLPNO-MP2 response
   Willem Van den Heuvel  : Paramagnetic NMR
   Boris Wezisla          : Elementary symmetry handling
   Frank Wennmohs         : Technical directorship


 We gratefully acknowledge several colleagues who have allowed us to
 interface, adapt or use parts of their codes:
   Stefan Grimme, W. Hujo, H. Kruse, P. Pracht,  : VdW corrections, initial TS optimization,
                  C. Bannwarth, S. Ehlert          DFT functionals, gCP, sTDA/sTD-DF
   Ed Valeev, F. Pavosevic, A. Kumar             : LibInt (2-el integral package), F12 methods
   Garnet Chan, S. Sharma, J. Yang, R. Olivares  : DMRG
   Ulf Ekstrom                                   : XCFun DFT Library
   Mihaly Kallay                                 : mrcc  (arbitrary order and MRCC methods)
   Jiri Pittner, Ondrej Demel                    : Mk-CCSD
   Frank Weinhold                                : gennbo (NPA and NBO analysis)
   Christopher J. Cramer and Donald G. Truhlar   : smd solvation model
   Lars Goerigk                                  : TD-DFT with DH, B97 family of functionals
   V. Asgeirsson, H. Jonsson                     : NEB implementation
   FAccTs GmbH                                   : IRC, NEB, NEB-TS, DLPNO-Multilevel, CI-OPT
                                                   MM, QMMM, 2- and 3-layer-ONIOM, Crystal-QMMM,
                                                   LR-CPCM, SF, NACMEs, symmetry and pop. for TD-DFT,
                                                   nearIR, NL-DFT gradient (VV10), updates on ESD,
                                                   ML-optimized integration grids
   S Lehtola, MJT Oliveira, MAL Marques          : LibXC Library
   Liviu Ungur et al                             : ANISO software


 Your calculation uses the libint2 library for the computation of 2-el integrals
 For citations please refer to: http://libint.valeyev.net

 Your ORCA version has been built with support for libXC version: 5.1.0
 For citations please refer to: https://tddft.org/programs/libxc/

 This ORCA versions uses:
   CBLAS   interface :  Fast vector & matrix operations
   LAPACKE interface :  Fast linear algebra routines
   SCALAPACK package :  Parallel linear algebra routines
   Shared memory     :  Shared parallel matrices
   BLAS/LAPACK       :  OpenBLAS 0.3.15  USE64BITINT DYNAMIC_ARCH NO_AFFINITY Haswell SINGLE_THREADED
        Core in use  :  Haswell
   Copyright (c) 2011-2014, The OpenBLAS Project


================================================================================

----- Orbital basis set information -----
Your calculation utilizes the basis: def2-TZVP
   F. Weigend and R. Ahlrichs, Phys. Chem. Chem. Phys. 7, 3297 (2005).

----- AuxJ basis set information -----
Your calculation utilizes the auxiliary basis: def2/J
   F. Weigend, Phys. Chem. Chem. Phys. 8, 1057 (2006).

================================================================================
                                        WARNINGS
                       Please study these warnings very carefully!
================================================================================


WARNING: Geometry Optimization
  ===> : Switching off AutoStart
         For restart on a previous wavefunction, please use MOREAD

INFO   : the flag for use of the SHARK integral package has been found!

================================================================================
                                       INPUT FILE
================================================================================
NAME = inp.inp
|  1> !OPT PBE def2-TZVP CPCM(water)
|  2> 
|  3> *xyz -1 1
|  4> C     -3.825632   -4.084550    1.870483
|  5> C     -2.915819   -3.078776    2.591667
|  6> H     -3.527946   -4.232496    0.823855
|  7> H     -3.816839   -5.069668    2.355567
|  8> H     -4.865096   -3.734460    1.865671
|  9> C     -3.371687   -2.911310    4.048910
| 10> H     -4.402046   -2.537760    4.093316
| 11> C     -2.957959   -1.723247    1.870424
| 12> H     -3.346323   -3.860512    4.600427
| 13> H     -2.743421   -2.197034    4.597547
| 14> O     -1.676905   -3.533929    2.578486
| 15> H     -3.975971   -1.314761    1.869759
| 16> H     -2.309815   -0.979447    2.352650
| 17> H     -2.639796   -1.804221    0.822572
| 18> *
| 19> 
| 20>                          ****END OF INPUT****
================================================================================

                       *****************************
                       * Geometry Optimization Run *
                       *****************************

Geometry optimization settings:
Update method            Update   .... BFGS
Choice of coordinates    CoordSys .... Z-matrix Internals
Initial Hessian          InHess   .... Almoef's Model

Convergence Tolerances:
Energy Change            TolE     ....  5.0000e-06 Eh
Max. Gradient            TolMAXG  ....  3.0000e-04 Eh/bohr
RMS Gradient             TolRMSG  ....  1.0000e-04 Eh/bohr
Max. Displacement        TolMAXD  ....  4.0000e-03 bohr
RMS Displacement         TolRMSD  ....  2.0000e-03 bohr
Strict Convergence                ....  False
------------------------------------------------------------------------------
                        ORCA OPTIMIZATION COORDINATE SETUP
------------------------------------------------------------------------------

The optimization will be done in new redundant internal coordinates
Making redundant internal coordinates   ...  (new redundants) done
Evaluating the initial hessian          ...  (Almloef) done
Evaluating the coordinates              ...  done
Calculating the B-matrix                .... done
Calculating the G-matrix                .... done
Diagonalizing the G-matrix              .... done
The first mode is                       ....   28
The number of degrees of freedom        ....   36

    -----------------------------------------------------------------
                    Redundant Internal Coordinates


    -----------------------------------------------------------------
         Definition                    Initial Value    Approx d2E/dq
    -----------------------------------------------------------------
      1. B(C   1,C   0)                  1.5360         0.365364   
      2. B(H   2,C   0)                  1.0982         0.349477   
      3. B(H   3,C   0)                  1.0981         0.349532   
      4. B(H   4,C   0)                  1.0968         0.351156   
      5. B(C   5,C   1)                  1.5360         0.365377   
      6. B(H   6,C   5)                  1.0969         0.351109   
      7. B(C   7,C   1)                  1.5360         0.365374   
      8. B(H   8,C   5)                  1.0981         0.349557   
      9. B(H   9,C   5)                  1.0981         0.349492   
     10. B(O  10,C   1)                  1.3199         0.723851   
     11. B(H  11,C   7)                  1.0969         0.351075   
     12. B(H  12,C   7)                  1.0981         0.349515   
     13. B(H  13,C   7)                  1.0981         0.349569   
     14. A(C   1,C   0,H   2)          112.0323         0.321557   
     15. A(C   1,C   0,H   4)          110.7560         0.321809   
     16. A(H   2,C   0,H   3)          107.3368         0.288129   
     17. A(H   3,C   0,H   4)          107.2093         0.288345   
     18. A(H   2,C   0,H   4)          107.2005         0.288338   
     19. A(C   1,C   0,H   3)          112.0405         0.321565   
     20. A(C   0,C   1,C   5)          109.9392         0.360608   
     21. A(C   5,C   1,C   7)          109.9442         0.360609   
     22. A(C   0,C   1,C   7)          109.9455         0.360607   
     23. A(C   7,C   1,O  10)          108.9877         0.403454   
     24. A(C   5,C   1,O  10)          109.0038         0.403455   
     25. A(C   0,C   1,O  10)          108.9942         0.403452   
     26. A(H   8,C   5,H   9)          107.3440         0.288134   
     27. A(H   6,C   5,H   9)          107.1985         0.288334   
     28. A(C   1,C   5,H   9)          112.0303         0.321561   
     29. A(H   6,C   5,H   8)          107.2022         0.288342   
     30. A(C   1,C   5,H   8)          112.0484         0.321571   
     31. A(C   1,C   5,H   6)          110.7517         0.321804   
     32. A(H  12,C   7,H  13)          107.3365         0.288139   
     33. A(H  11,C   7,H  13)          107.2047         0.288340   
     34. A(C   1,C   7,H  13)          112.0271         0.321572   
     35. A(H  11,C   7,H  12)          107.2057         0.288333   
     36. A(C   1,C   7,H  12)          112.0460         0.321564   
     37. A(C   1,C   7,H  11)          110.7554         0.321798   
     38. D(C   7,C   1,C   0,H   4)    -60.6665         0.010688   
     39. D(O  10,C   1,C   0,H   3)     60.2741         0.010688   
     40. D(C   5,C   1,C   0,H   3)    -59.1462         0.010688   
     41. D(O  10,C   1,C   0,H   2)    -60.4326         0.010688   
     42. D(C   5,C   1,C   0,H   2)   -179.8529         0.010688   
     43. D(C   7,C   1,C   0,H   3)    179.6786         0.010688   
     44. D(O  10,C   1,C   0,H   4)    179.9290         0.010688   
     45. D(C   7,C   1,C   0,H   2)     58.9719         0.010688   
     46. D(C   5,C   1,C   0,H   4)     60.5087         0.010688   
     47. D(H   8,C   5,C   1,C   7)   -179.4999         0.010689   
     48. D(H   6,C   5,C   1,O  10)   -179.7387         0.010689   
     49. D(H   6,C   5,C   1,C   7)     60.8517         0.010689   
     50. D(H   6,C   5,C   1,C   0)    -60.3243         0.010689   
     51. D(H   8,C   5,C   1,O  10)    -60.0904         0.010689   
     52. D(H   9,C   5,C   1,O  10)     60.6298         0.010689   
     53. D(H   9,C   5,C   1,C   7)    -58.7798         0.010689   
     54. D(H   9,C   5,C   1,C   0)   -179.9558         0.010689   
     55. D(H   8,C   5,C   1,C   0)     59.3240         0.010689   
     56. D(H  13,C   7,C   1,C   5)   -179.8780         0.010689   
     57. D(H  13,C   7,C   1,C   0)    -58.7059         0.010689   
     58. D(H  12,C   7,C   1,O  10)    -60.0039         0.010689   
     59. D(H  12,C   7,C   1,C   5)     59.4155         0.010689   
     60. D(H  12,C   7,C   1,C   0)   -179.4123         0.010689   
     61. D(H  11,C   7,C   1,O  10)   -179.6576         0.010689   
     62. D(H  11,C   7,C   1,C   5)    -60.2382         0.010689   
     63. D(H  13,C   7,C   1,O  10)     60.7026         0.010689   
     64. D(H  11,C   7,C   1,C   0)     60.9340         0.010689   
    -----------------------------------------------------------------

Number of atoms                         .... 14
Number of degrees of freedom            .... 64

         *************************************************************
         *                GEOMETRY OPTIMIZATION CYCLE   1            *
         *************************************************************
---------------------------------
CARTESIAN COORDINATES (ANGSTROEM)
---------------------------------
  C     -3.825632   -4.084550    1.870483
  C     -2.915819   -3.078776    2.591667
  H     -3.527946   -4.232496    0.823855
  H     -3.816839   -5.069668    2.355567
  H     -4.865096   -3.734460    1.865671
  C     -3.371687   -2.911310    4.048910
  H     -4.402046   -2.537760    4.093316
  C     -2.957959   -1.723247    1.870424
  H     -3.346323   -3.860512    4.600427
  H     -2.743421   -2.197034    4.597547
  O     -1.676905   -3.533929    2.578486
  H     -3.975971   -1.314761    1.869759
  H     -2.309815   -0.979447    2.352650
  H     -2.639796   -1.804221    0.822572

----------------------------
CARTESIAN COORDINATES (A.U.)
----------------------------
  NO LB      ZA    FRAG     MASS         X           Y           Z
   0 C     6.0000    0    12.011   -7.229397   -7.718681    3.534701
   1 C     6.0000    0    12.011   -5.510099   -5.818043    4.897541
   2 H     1.0000    0     1.008   -6.666852   -7.998258    1.556860
   3 H     1.0000    0     1.008   -7.212780   -9.580284    4.451377
   4 H     1.0000    0     1.008   -9.193699   -7.057107    3.525607
   5 C     6.0000    0    12.011   -6.371565   -5.501579    7.651331
   6 H     1.0000    0     1.008   -8.318661   -4.795671    7.735246
   7 C     6.0000    0    12.011   -5.589732   -3.256465    3.534589
   8 H     1.0000    0     1.008   -6.323634   -7.295310    8.693547
   9 H     1.0000    0     1.008   -5.184314   -4.151793    8.688105
  10 O     8.0000    0    15.999   -3.168891   -6.678158    4.872632
  11 H     1.0000    0     1.008   -7.513496   -2.484538    3.533332
  12 H     1.0000    0     1.008   -4.364918   -1.850887    4.445864
  13 H     1.0000    0     1.008   -4.988491   -3.409484    1.554436

--------------------------------
INTERNAL COORDINATES (ANGSTROEM)
--------------------------------
 C      0   0   0     0.000000000000     0.00000000     0.00000000
 C      1   0   0     1.536049281729     0.00000000     0.00000000
 H      1   2   0     1.098150783771   112.03229594     0.00000000
 H      1   2   3     1.098108044697   112.04046337   120.70673111
 H      1   2   3     1.096846192837   110.75595554   240.36164828
 C      2   1   3     1.536039600931   109.93915859   180.14707461
 H      6   2   1     1.096882475116   110.75167118   299.67572308
 C      2   1   3     1.536042354393   109.94554699    58.97185753
 H      6   2   1     1.098088689765   112.04839659    59.32404455
 H      6   2   1     1.098139758274   112.03029279   180.04422349
 O      2   1   3     1.319941624302   108.99417657   299.56738259
 H      8   2   1     1.096909151464   110.75540694    60.93396527
 H      8   2   1     1.098121577883   112.04600960   180.58766674
 H      8   2   1     1.098079367418   112.02705267   301.29414711

---------------------------
INTERNAL COORDINATES (A.U.)
---------------------------
 C      0   0   0     0.000000000000     0.00000000     0.00000000
 C      1   0   0     2.902712470675     0.00000000     0.00000000
 H      1   2   0     2.075204235077   112.03229594     0.00000000
 H      1   2   3     2.075123469934   112.04046337   120.70673111
 H      1   2   3     2.072738915495   110.75595554   240.36164828
 C      2   1   3     2.902694176618   109.93915859   180.14707461
 H      6   2   1     2.072807479067   110.75167118   299.67572308
 C      2   1   3     2.902699379907   109.94554699    58.97185753
 H      6   2   1     2.075086894412   112.04839659    59.32404455
 H      6   2   1     2.075183399907   112.03029279   180.04422349
 O      2   1   3     2.494328182695   108.99417657   299.56738259
 H      8   2   1     2.072857890058   110.75540694    60.93396527
 H      8   2   1     2.075149043948   112.04600960   180.58766674
 H      8   2   1     2.075069277729   112.02705267   301.29414711

---------------------
BASIS SET INFORMATION
---------------------
There are 3 groups of distinct atoms

 Group   1 Type C   : 11s6p2d1f contracted to 5s3p2d1f pattern {62111/411/11/1}
 Group   2 Type H   : 5s1p contracted to 3s1p pattern {311/1}
 Group   3 Type O   : 11s6p2d1f contracted to 5s3p2d1f pattern {62111/411/11/1}

Atom   0C    basis set group =>   1
Atom   1C    basis set group =>   1
Atom   2H    basis set group =>   2
Atom   3H    basis set group =>   2
Atom   4H    basis set group =>   2
Atom   5C    basis set group =>   1
Atom   6H    basis set group =>   2
Atom   7C    basis set group =>   1
Atom   8H    basis set group =>   2
Atom   9H    basis set group =>   2
Atom  10O    basis set group =>   3
Atom  11H    basis set group =>   2
Atom  12H    basis set group =>   2
Atom  13H    basis set group =>   2
---------------------------------
AUXILIARY/J BASIS SET INFORMATION
---------------------------------
There are 3 groups of distinct atoms

 Group   1 Type C   : 12s5p4d2f1g contracted to 6s4p3d1f1g pattern {711111/2111/211/2/1}
 Group   2 Type H   : 5s2p1d contracted to 3s1p1d pattern {311/2/1}
 Group   3 Type O   : 12s5p4d2f1g contracted to 6s4p3d1f1g pattern {711111/2111/211/2/1}

Atom   0C    basis set group =>   1
Atom   1C    basis set group =>   1
Atom   2H    basis set group =>   2
Atom   3H    basis set group =>   2
Atom   4H    basis set group =>   2
Atom   5C    basis set group =>   1
Atom   6H    basis set group =>   2
Atom   7C    basis set group =>   1
Atom   8H    basis set group =>   2
Atom   9H    basis set group =>   2
Atom  10O    basis set group =>   3
Atom  11H    basis set group =>   2
Atom  12H    basis set group =>   2
Atom  13H    basis set group =>   2
------------------------------------------------------------------------------
                           ORCA GTO INTEGRAL CALCULATION
                           -- RI-GTO INTEGRALS CHOSEN --
------------------------------------------------------------------------------
------------------------------------------------------------------------------
                   ___                                                        
                  /   \      - P O W E R E D   B Y -                         
                 /     \                                                     
                 |  |  |   _    _      __       _____    __    __             
                 |  |  |  | |  | |    /  \     |  _  \  |  |  /  |          
                  \  \/   | |  | |   /    \    | | | |  |  | /  /          
                 / \  \   | |__| |  /  /\  \   | |_| |  |  |/  /          
                |  |  |   |  __  | /  /__\  \  |    /   |      \           
                |  |  |   | |  | | |   __   |  |    \   |  |\   \          
                \     /   | |  | | |  |  |  |  | |\  \  |  | \   \       
                 \___/    |_|  |_| |__|  |__|  |_| \__\ |__|  \__/        
                                                                              
                      - O R C A' S   B I G   F R I E N D -                    
                                      &                                       
                       - I N T E G R A L  F E E D E R -                       
                                                                              
 v1 FN, 2020, v2 2021                                                         
------------------------------------------------------------------------------


Reading SHARK input file inp.SHARKINP.tmp ... ok
----------------------
SHARK INTEGRAL PACKAGE
----------------------

Number of atoms                             ...     14
Number of basis functions                   ...    209
Number of shells                            ...     91
Maximum angular momentum                    ...      3
Integral batch strategy                     ... SHARK/LIBINT Hybrid
RI-J (if used) integral strategy            ... SPLIT-RIJ (Revised 2003 algorithm where possible)
Printlevel                                  ...      1
Contraction scheme used                     ... SEGMENTED contraction
Coulomb Range Separation                    ... NOT USED
Exchange Range Separation                   ... NOT USED
Finite Nucleus Model                        ... NOT USED
Auxiliary Coulomb fitting basis             ... AVAILABLE
   # of basis functions in Aux-J            ...    344
   # of shells in Aux-J                     ...    120
   Maximum angular momentum in Aux-J        ...      4
Auxiliary J/K fitting basis                 ... NOT available
Auxiliary Correlation fitting basis         ... NOT available
Auxiliary 'external' fitting basis          ... NOT available
Integral threshold                          ...     2.500000e-11
Primitive cut-off                           ...     2.500000e-12
Primitive pair pre-selection threshold      ...     2.500000e-12

Calculating pre-screening integrals         ... done (  0.1 sec) Dimension = 91
Organizing shell pair data                  ... done (  0.1 sec)
Shell pair information
Total number of shell pairs                 ...      4186
Shell pairs after pre-screening             ...      4086
Total number of primitive shell pairs       ...     12072
Primitive shell pairs kept                  ...      9462
          la=0 lb=0:   1299 shell pairs
          la=1 lb=0:   1233 shell pairs
          la=1 lb=1:    300 shell pairs
          la=2 lb=0:    514 shell pairs
          la=2 lb=1:    240 shell pairs
          la=2 lb=2:     55 shell pairs
          la=3 lb=0:    260 shell pairs
          la=3 lb=1:    120 shell pairs
          la=3 lb=2:     50 shell pairs
          la=3 lb=3:     15 shell pairs

Calculating one electron integrals          ... done (  0.0 sec)
Calculating RI/J V-Matrix + Cholesky decomp.... done (  0.2 sec)
Calculating Nuclear repulsion               ... done (  0.0 sec) ENN=    190.619244063911 Eh

SHARK setup successfully completed in   1.0 seconds

Maximum memory used throughout the entire GTOINT-calculation: 49.0 MB
-------------------------------------------------------------------------------
                                 ORCA SCF
-------------------------------------------------------------------------------

------------
SCF SETTINGS
------------
Hamiltonian:
 Density Functional     Method          .... DFT(GTOs)
 Exchange Functional    Exchange        .... PBE
   PBE kappa parameter   XKappa         ....  0.804000
   PBE mue parameter    XMuePBE         ....  0.219520
 Correlation Functional Correlation     .... PBE
   PBE beta parameter  CBetaPBE         ....  0.066725
 LDA part of GGA corr.  LDAOpt          .... PW91-LDA
 Gradients option       PostSCFGGA      .... off
   Density functional embedding theory  .... OFF
   NL short-range parameter             ....  6.400000
 RI-approximation to the Coulomb term is turned on
   Number of AuxJ basis functions       .... 344


General Settings:
 Integral files         IntName         .... inp
 Hartree-Fock type      HFTyp           .... RHF
 Total Charge           Charge          ....   -1
 Multiplicity           Mult            ....    1
 Number of Electrons    NEL             ....   42
 Basis Dimension        Dim             ....  209
 Nuclear Repulsion      ENuc            ....    190.6192440639 Eh

Convergence Acceleration:
 DIIS                   CNVDIIS         .... on
   Start iteration      DIISMaxIt       ....    12
   Startup error        DIISStart       ....  0.200000
   # of expansion vecs  DIISMaxEq       ....     5
   Bias factor          DIISBfac        ....   1.050
   Max. coefficient     DIISMaxC        ....  10.000
 Trust-Rad. Augm. Hess. CNVTRAH         .... auto
   Auto Start mean grad. ratio tolernc. ....  1.125000
   Auto Start start iteration           ....    20
   Auto Start num. interpolation iter.  ....    10
   Max. Number of Micro iterations      ....    16
   Max. Number of Macro iterations      .... Maxiter - #DIIS iter
   Number of Davidson start vectors     ....     2
   Converg. threshold I  (grad. norm)   ....   1.000e-05
   Converg. threshold II (energy diff.) ....   1.000e-08
   Grad. Scal. Fac. for Micro threshold ....   0.100
   Minimum threshold for Micro iter.    ....   0.010
   NR start threshold (gradient norm)   ....   0.001
   Initial trust radius                 ....   0.400
   Minimum AH scaling param. (alpha)    ....   1.000
   Maximum AH scaling param. (alpha)    .... 1000.000
   Orbital update algorithm             .... Taylor
   White noise on init. David. guess    .... on
   Maximum white noise                  ....   0.010
   Quad. conv. algorithm                .... NR
 SOSCF                  CNVSOSCF        .... on
   Start iteration      SOSCFMaxIt      ....   150
   Startup grad/error   SOSCFStart      ....  0.003300
 Level Shifting         CNVShift        .... on
   Level shift para.    LevelShift      ....    0.2500
   Turn off err/grad.   ShiftErr        ....    0.0010
 Zerner damping         CNVZerner       .... off
 Static damping         CNVDamp         .... on
   Fraction old density DampFac         ....    0.7000
   Max. Damping (<1)    DampMax         ....    0.9800
   Min. Damping (>=0)   DampMin         ....    0.0000
   Turn off err/grad.   DampErr         ....    0.1000
 Fernandez-Rico         CNVRico         .... off

SCF Procedure:
 Maximum # iterations   MaxIter         ....   125
 SCF integral mode      SCFMode         .... Direct
   Integral package                     .... SHARK and LIBINT hybrid scheme
 Reset frequency        DirectResetFreq ....    20
 Integral Threshold     Thresh          ....  2.500e-11 Eh
 Primitive CutOff       TCut            ....  2.500e-12 Eh

Convergence Tolerance:
 Convergence Check Mode ConvCheckMode   .... Total+1el-Energy
 Convergence forced     ConvForced      .... 0
 Energy Change          TolE            ....  1.000e-08 Eh
 1-El. energy change                    ....  1.000e-05 Eh
 Orbital Gradient       TolG            ....  1.000e-05
 Orbital Rotation angle TolX            ....  1.000e-05
 DIIS Error             TolErr          ....  5.000e-07


Diagonalization of the overlap matrix:
Smallest eigenvalue                        ... 2.726e-04
Time for diagonalization                   ...    0.007 sec
Threshold for overlap eigenvalues          ... 1.000e-08
Number of eigenvalues below threshold      ... 0
Time for construction of square roots      ...    0.079 sec
Total time needed                          ...    0.086 sec

Time for model grid setup =    0.283 sec

------------------------------
INITIAL GUESS: MODEL POTENTIAL
------------------------------
Loading Hartree-Fock densities                     ... done
Calculating cut-offs                               ... done
Initializing the effective Hamiltonian             ... done
Setting up the integral package (SHARK)            ... done
Starting the Coulomb interaction                   ... done (   0.2 sec)
Reading the grid                                   ... done
Mapping shells                                     ... done
Starting the XC term evaluation                    ... done (   0.3 sec)
  promolecular density results
     # of electrons  =     40.996267397
     EX              =    -31.220917268
     EC              =     -1.331325720
     EX+EC           =    -32.552242987
Transforming the Hamiltonian                       ... done (   0.0 sec)
Diagonalizing the Hamiltonian                      ... done (   0.0 sec)
Back transforming the eigenvectors                 ... done (   0.0 sec)
Now organizing SCF variables                       ... done
                      ------------------
                      INITIAL GUESS DONE (   0.8 sec)
                      ------------------
-------------------
DFT GRID GENERATION
-------------------

General Integration Accuracy     IntAcc      ... 4.388
Radial Grid Type                 RadialGrid  ... OptM3 with GC (2021)
Angular Grid (max. ang.)         AngularGrid ... 4 (Lebedev-302)
Angular grid pruning method      GridPruning ... 4 (adaptive)
Weight generation scheme         WeightScheme... Becke
Basis function cutoff            BFCut       ... 1.0000e-11
Integration weight cutoff        WCut        ... 1.0000e-14
Angular grids for H and He will be reduced by one unit
Partially contracted basis set               ... off
Rotationally invariant grid construction     ... off

Total number of grid points                  ...    59173
Total number of batches                      ...      932
Average number of points per batch           ...       63
Average number of grid points per atom       ...     4227
Time for grid setup =    0.805 sec


--------------------
CPCM SOLVATION MODEL
--------------------
CPCM parameters:
  Epsilon                                         ...      80.4000
  Refrac                                          ...       1.3300
  Rsolv                                           ...       1.3000
  Surface type                                    ... GAUSSIAN VDW
  Epsilon function type                           ...         CPCM
Radii:
 Radius for C  used is    3.8550 Bohr (=   2.0400 Ang.)
 Radius for H  used is    2.4944 Bohr (=   1.3200 Ang.)
 Radius for O  used is    3.4469 Bohr (=   1.8240 Ang.)
Calculating surface                               ...        done! (  0.0s)
GEPOL surface points                              ...          818
GEPOL Volume                                      ...     749.7787
GEPOL Surface-area                                ...     457.7060
Calculating surface distance matrix               ...        done! (  0.0s)
Performing Cholesky decomposition & store         ...        done! (  0.2s)
Overall time for CPCM initialization              ...                 0.2s
--------------
SCF ITERATIONS
--------------
ITER       Energy         Delta-E        Max-DP      RMS-DP      [F,P]     Damp
               ***  Starting incremental Fock matrix formation  ***
  0   -232.5764818420   0.000000000000 0.66052042  0.00921251  0.3997713 0.7000
  1   -232.7671542965  -0.190672454528 0.51648048  0.00693132  0.1101616 0.7000
                               ***Turning on DIIS***
  2   -232.8176081744  -0.050453877914 0.23420244  0.00449231  0.0256993 0.0000
  3   -232.9149758541  -0.097367679731 0.53280718  0.00684182  0.0630377 0.0000
  4   -232.9369932978  -0.022017443704 0.13454336  0.00176772  0.0439629 0.0000
  5   -232.9407069000  -0.003713602182 0.06034943  0.00080083  0.0038434 0.0000
  6   -232.9408928731  -0.000185973111 0.02567998  0.00034696  0.0036703 0.0000
                      *** Initiating the SOSCF procedure ***
                           *** Shutting down DIIS ***
                      *** Re-Reading the Fockian *** 
                      *** Removing any level shift *** 
ITER      Energy       Delta-E        Grad      Rot      Max-DP    RMS-DP
  7   -232.94092918  -0.0000363025  0.000424  0.000424  0.023338  0.000316
               *** Restarting incremental Fock matrix formation ***
  8   -232.94093576  -0.0000065814  0.000086  0.000235  0.002459  0.000035
  9   -232.94093529   0.0000004664  0.000169  0.000167  0.001982  0.000028
 10   -232.94093595  -0.0000006606  0.000025  0.000045  0.000324  0.000005
 11   -232.94093590   0.0000000486  0.000040  0.000033  0.000183  0.000003
                  ***Gradient check signals convergence***
              ***Rediagonalizing the Fockian in SOSCF/NRSCF***

               *****************************************************
               *                     SUCCESS                       *
               *           SCF CONVERGED AFTER  12 CYCLES          *
               *****************************************************


----------------
TOTAL SCF ENERGY
----------------

Total Energy       :         -232.94093597 Eh           -6338.64512 eV

Components:
Nuclear Repulsion  :          190.61924406 Eh            5187.01333 eV
Electronic Energy  :         -423.56018004 Eh          -11525.65845 eV
One Electron Energy:         -702.18545402 Eh          -19107.43761 eV
Two Electron Energy:          278.62527398 Eh            7581.77916 eV
CPCM Dielectric    :           -0.11145146 Eh              -3.03275 eV

Virial components:
Potential Energy   :         -465.03482466 Eh          -12654.24091 eV
Kinetic Energy     :          232.09388869 Eh            6315.59579 eV
Virial Ratio       :            2.00364959


DFT components:
N(Alpha)           :       20.999974532910 electrons
N(Beta)            :       20.999974532910 electrons
N(Total)           :       41.999949065820 electrons
E(X)               :      -32.275572728069 Eh       
E(C)               :       -1.365614712029 Eh       
E(XC)              :      -33.641187440098 Eh       
DFET-embed. en.    :        0.000000000000 Eh       
CPCM Solvation Model Properties:
Surface-charge          :            0.96055193
Charge-correction       :           -0.00714759 Eh              -0.19450 eV
Free-energy (cav+disp)  :  This term is not implemented in the current solvation scheme

---------------
SCF CONVERGENCE
---------------

  Last Energy change         ...   -6.9431e-08  Tolerance :   1.0000e-08
  Last MAX-Density change    ...    1.8951e-05  Tolerance :   1.0000e-07
  Last RMS-Density change    ...    2.8797e-07  Tolerance :   5.0000e-09
  Last Orbital Gradient      ...    2.0077e-06  Tolerance :   1.0000e-05
  Last Orbital Rotation      ...    2.9375e-06  Tolerance :   1.0000e-05

             **** THE GBW FILE WAS UPDATED (inp.gbw) ****
             **** DENSITY inp.scfp WAS UPDATED ****
             **** ENERGY FILE WAS UPDATED (inp.en.tmp) ****
             **** THE GBW FILE WAS UPDATED (inp.gbw) ****
             **** DENSITY inp.scfp WAS UPDATED ****
----------------
ORBITAL ENERGIES
----------------

  NO   OCC          E(Eh)            E(eV) 
   0   2.0000     -18.597178      -506.0549 
   1   2.0000      -9.877312      -268.7753 
   2   2.0000      -9.835792      -267.6455 
   3   2.0000      -9.835788      -267.6454 
   4   2.0000      -9.835778      -267.6451 
   5   2.0000      -0.817284       -22.2394 
   6   2.0000      -0.645132       -17.5549 
   7   2.0000      -0.589821       -16.0499 
   8   2.0000      -0.589800       -16.0493 
   9   2.0000      -0.434935       -11.8352 
  10   2.0000      -0.365218        -9.9381 
  11   2.0000      -0.365165        -9.9366 
  12   2.0000      -0.353037        -9.6066 
  13   2.0000      -0.317363        -8.6359 
  14   2.0000      -0.317289        -8.6339 
  15   2.0000      -0.293727        -7.9927 
  16   2.0000      -0.272208        -7.4071 
  17   2.0000      -0.272161        -7.4059 
  18   2.0000      -0.252211        -6.8630 
  19   2.0000      -0.115886        -3.1534 
  20   2.0000      -0.115781        -3.1506 
  21   0.0000       0.027165         0.7392 
  22   0.0000       0.079810         2.1717 
  23   0.0000       0.082117         2.2345 
  24   0.0000       0.082172         2.2360 
  25   0.0000       0.095211         2.5908 
  26   0.0000       0.095297         2.5932 
  27   0.0000       0.122774         3.3409 
  28   0.0000       0.145128         3.9491 
  29   0.0000       0.145541         3.9604 
  30   0.0000       0.158162         4.3038 
  31   0.0000       0.167638         4.5616 
  32   0.0000       0.167807         4.5663 
  33   0.0000       0.194393         5.2897 
  34   0.0000       0.206243         5.6122 
  35   0.0000       0.212958         5.7949 
  36   0.0000       0.213131         5.7996 
  37   0.0000       0.266212         7.2440 
  38   0.0000       0.266567         7.2537 
  39   0.0000       0.332608         9.0507 
  40   0.0000       0.332869         9.0578 
  41   0.0000       0.335191         9.1210 
  42   0.0000       0.361754         9.8438 
  43   0.0000       0.362502         9.8642 
  44   0.0000       0.403171        10.9708 
  45   0.0000       0.403525        10.9805 
  46   0.0000       0.424469        11.5504 
  47   0.0000       0.435571        11.8525 
  48   0.0000       0.435979        11.8636 
  49   0.0000       0.436237        11.8706 
  50   0.0000       0.452481        12.3126 
  51   0.0000       0.452690        12.3183 
  52   0.0000       0.459241        12.4966 
  53   0.0000       0.462407        12.5827 
  54   0.0000       0.463565        12.6143 
  55   0.0000       0.463788        12.6203 
  56   0.0000       0.540034        14.6951 
  57   0.0000       0.586731        15.9658 
  58   0.0000       0.587042        15.9742 
  59   0.0000       0.587548        15.9880 
  60   0.0000       0.655116        17.8266 
  61   0.0000       0.655542        17.8382 
  62   0.0000       0.722507        19.6604 
  63   0.0000       0.723284        19.6816 
  64   0.0000       0.777617        21.1600 
  65   0.0000       0.812284        22.1034 
  66   0.0000       0.812460        22.1082 
  67   0.0000       0.847859        23.0714 
  68   0.0000       0.908128        24.7114 
  69   0.0000       0.908978        24.7345 
  70   0.0000       0.915624        24.9154 
  71   0.0000       0.963515        26.2186 
  72   0.0000       0.963555        26.2197 
  73   0.0000       0.987701        26.8767 
  74   0.0000       1.075355        29.2619 
  75   0.0000       1.075799        29.2740 
  76   0.0000       1.091166        29.6921 
  77   0.0000       1.094355        29.7789 
  78   0.0000       1.192636        32.4533 
  79   0.0000       1.192892        32.4602 
  80   0.0000       1.263274        34.3754 
  81   0.0000       1.263603        34.3844 
  82   0.0000       1.286241        35.0004 
  83   0.0000       1.381066        37.5807 
  84   0.0000       1.482334        40.3364 
  85   0.0000       1.482468        40.3400 
  86   0.0000       1.496783        40.7295 
  87   0.0000       1.501450        40.8565 
  88   0.0000       1.501661        40.8623 
  89   0.0000       1.543150        41.9913 
  90   0.0000       1.546133        42.0724 
  91   0.0000       1.555554        42.3288 
  92   0.0000       1.555821        42.3360 
  93   0.0000       1.581244        43.0278 
  94   0.0000       1.581275        43.0287 
  95   0.0000       1.613035        43.8929 
  96   0.0000       1.613177        43.8968 
  97   0.0000       1.620736        44.1025 
  98   0.0000       1.697887        46.2018 
  99   0.0000       1.783306        48.5262 
 100   0.0000       1.783781        48.5392 
 101   0.0000       1.808024        49.1988 
 102   0.0000       1.808084        49.2005 
 103   0.0000       1.931552        52.5602 
 104   0.0000       1.932233        52.5787 
 105   0.0000       1.962175        53.3935 
 106   0.0000       2.002749        54.4976 
 107   0.0000       2.017210        54.8911 
 108   0.0000       2.017283        54.8931 
 109   0.0000       2.042623        55.5826 
 110   0.0000       2.086722        56.7826 
 111   0.0000       2.086830        56.7855 
 112   0.0000       2.149698        58.4963 
 113   0.0000       2.228139        60.6308 
 114   0.0000       2.228220        60.6330 
 115   0.0000       2.252427        61.2916 
 116   0.0000       2.272815        61.8464 
 117   0.0000       2.272890        61.8485 
 118   0.0000       2.308814        62.8260 
 119   0.0000       2.338653        63.6380 
 120   0.0000       2.338982        63.6469 
 121   0.0000       2.345198        63.8161 
 122   0.0000       2.378653        64.7265 
 123   0.0000       2.382704        64.8367 
 124   0.0000       2.382797        64.8392 
 125   0.0000       2.474190        67.3261 
 126   0.0000       2.504346        68.1467 
 127   0.0000       2.504522        68.1515 
 128   0.0000       2.523435        68.6662 
 129   0.0000       2.523759        68.6750 
 130   0.0000       2.568936        69.9043 
 131   0.0000       2.619795        71.2882 
 132   0.0000       2.620391        71.3045 
 133   0.0000       2.623143        71.3794 
 134   0.0000       2.672795        72.7304 
 135   0.0000       2.747647        74.7673 
 136   0.0000       2.747720        74.7693 
 137   0.0000       2.767049        75.2952 
 138   0.0000       2.792794        75.9958 
 139   0.0000       2.792825        75.9966 
 140   0.0000       2.899447        78.8980 
 141   0.0000       2.917421        79.3871 
 142   0.0000       2.917635        79.3929 
 143   0.0000       2.999087        81.6093 
 144   0.0000       3.020933        82.2038 
 145   0.0000       3.026270        82.3490 
 146   0.0000       3.027489        82.3822 
 147   0.0000       3.105021        84.4919 
 148   0.0000       3.105178        84.4962 
 149   0.0000       3.144264        85.5598 
 150   0.0000       3.144471        85.5654 
 151   0.0000       3.187776        86.7438 
 152   0.0000       3.260881        88.7331 
 153   0.0000       3.261310        88.7448 
 154   0.0000       3.266964        88.8986 
 155   0.0000       3.302653        89.8697 
 156   0.0000       3.312141        90.1279 
 157   0.0000       3.312292        90.1320 
 158   0.0000       3.349086        91.1333 
 159   0.0000       3.401792        92.5675 
 160   0.0000       3.402194        92.5784 
 161   0.0000       3.469082        94.3985 
 162   0.0000       3.497668        95.1764 
 163   0.0000       3.498088        95.1878 
 164   0.0000       3.586161        97.5844 
 165   0.0000       3.588331        97.6434 
 166   0.0000       3.588369        97.6445 
 167   0.0000       3.600108        97.9639 
 168   0.0000       3.747497       101.9746 
 169   0.0000       3.748190       101.9934 
 170   0.0000       3.853826       104.8679 
 171   0.0000       3.924744       106.7977 
 172   0.0000       3.925459       106.8172 
 173   0.0000       3.994510       108.6961 
 174   0.0000       3.994828       108.7048 
 175   0.0000       4.039796       109.9284 
 176   0.0000       4.040262       109.9411 
 177   0.0000       4.042558       110.0036 
 178   0.0000       4.145857       112.8145 
 179   0.0000       4.160413       113.2106 
 180   0.0000       4.289402       116.7206 
 181   0.0000       4.290121       116.7401 
 182   0.0000       4.343574       118.1947 
 183   0.0000       4.343915       118.2039 
 184   0.0000       4.412037       120.0576 
 185   0.0000       4.478819       121.8749 
 186   0.0000       4.480077       121.9091 
 187   0.0000       4.635348       126.1342 
 188   0.0000       4.657667       126.7416 
 189   0.0000       4.811673       130.9323 
 190   0.0000       4.811812       130.9360 
 191   0.0000       4.941567       134.4669 
 192   0.0000       5.217130       141.9653 
 193   0.0000       5.218063       141.9907 
 194   0.0000       5.527962       150.4235 
 195   0.0000       5.528021       150.4251 
 196   0.0000       5.993289       163.0857 
 197   0.0000       5.993346       163.0872 
 198   0.0000       6.081419       165.4838 
 199   0.0000       6.416254       174.5951 
 200   0.0000       6.416370       174.5983 
 201   0.0000       6.938141       188.7964 
 202   0.0000       6.938292       188.8005 
 203   0.0000       6.954029       189.2288 
 204   0.0000      22.100355       601.3812 
 205   0.0000      22.144180       602.5738 
 206   0.0000      22.144239       602.5754 
 207   0.0000      22.711223       618.0038 
 208   0.0000      43.790339      1191.5957 

                    ********************************
                    * MULLIKEN POPULATION ANALYSIS *
                    ********************************

-----------------------
MULLIKEN ATOMIC CHARGES
-----------------------
   0 C :   -0.335215
   1 C :    0.145863
   2 H :    0.079925
   3 H :    0.079398
   4 H :    0.061540
   5 C :   -0.337037
   6 H :    0.061306
   7 C :   -0.338639
   8 H :    0.079481
   9 H :    0.080268
  10 O :   -0.798780
  11 H :    0.061293
  12 H :    0.080167
  13 H :    0.080429
Sum of atomic charges:   -1.0000000

--------------------------------
MULLIKEN REDUCED ORBITAL CHARGES
--------------------------------
  0 C s       :     3.191209  s :     3.191209
      pz      :     1.035903  p :     3.090528
      px      :     1.015059
      py      :     1.039566
      dz2     :     0.015059  d :     0.050200
      dxz     :     0.003130
      dyz     :     0.007265
      dx2y2   :     0.020918
      dxy     :     0.003828
      f0      :     0.000447  f :     0.003278
      f+1     :     0.000513
      f-1     :     0.000352
      f+2     :     0.000529
      f-2     :     0.000227
      f+3     :     0.000451
      f-3     :     0.000761
  1 C s       :     3.106384  s :     3.106384
      pz      :     0.917723  p :     2.532172
      px      :     0.722040
      py      :     0.892409
      dz2     :     0.035774  d :     0.199402
      dxz     :     0.042668
      dyz     :     0.033391
      dx2y2   :     0.043765
      dxy     :     0.043803
      f0      :     0.002341  f :     0.016179
      f+1     :     0.001511
      f-1     :     0.002300
      f+2     :     0.002128
      f-2     :     0.001719
      f+3     :     0.003757
      f-3     :     0.002423
  2 H s       :     0.899066  s :     0.899066
      pz      :     0.010990  p :     0.021009
      px      :     0.005035
      py      :     0.004984
  3 H s       :     0.899585  s :     0.899585
      pz      :     0.005734  p :     0.021016
      px      :     0.004668
      py      :     0.010614
  4 H s       :     0.917441  s :     0.917441
      pz      :     0.004788  p :     0.021019
      px      :     0.010917
      py      :     0.005315
  5 C s       :     3.192256  s :     3.192256
      pz      :     1.010848  p :     3.091307
      px      :     1.037914
      py      :     1.042544
      dz2     :     0.009010  d :     0.050197
      dxz     :     0.009723
      dyz     :     0.018847
      dx2y2   :     0.007114
      dxy     :     0.005503
      f0      :     0.000992  f :     0.003277
      f+1     :     0.000631
      f-1     :     0.000555
      f+2     :     0.000321
      f-2     :     0.000285
      f+3     :     0.000155
      f-3     :     0.000339
  6 H s       :     0.917668  s :     0.917668
      pz      :     0.005156  p :     0.021026
      px      :     0.010433
      py      :     0.005436
  7 C s       :     3.192828  s :     3.192828
      pz      :     1.036456  p :     3.092324
      px      :     1.052573
      py      :     1.003295
      dz2     :     0.015126  d :     0.050206
      dxz     :     0.003966
      dyz     :     0.006347
      dx2y2   :     0.005705
      dxy     :     0.019062
      f0      :     0.000453  f :     0.003281
      f+1     :     0.000217
      f-1     :     0.000644
      f+2     :     0.000272
      f-2     :     0.000481
      f+3     :     0.000675
      f-3     :     0.000539
  8 H s       :     0.899512  s :     0.899512
      pz      :     0.006860  p :     0.021007
      px      :     0.004703
      py      :     0.009445
  9 H s       :     0.898726  s :     0.898726
      pz      :     0.006836  p :     0.021006
      px      :     0.006749
      py      :     0.007421
 10 O s       :     3.758977  s :     3.758977
      pz      :     1.804296  p :     5.013971
      px      :     1.452728
      py      :     1.756947
      dz2     :     0.003277  d :     0.024379
      dxz     :     0.005111
      dyz     :     0.000899
      dx2y2   :     0.007831
      dxy     :     0.007261
      f0      :     0.000141  f :     0.001454
      f+1     :     0.000233
      f-1     :     0.000054
      f+2     :     0.000141
      f-2     :     0.000105
      f+3     :     0.000371
      f-3     :     0.000409
 11 H s       :     0.917690  s :     0.917690
      pz      :     0.004785  p :     0.021017
      px      :     0.010017
      py      :     0.006216
 12 H s       :     0.898837  s :     0.898837
      pz      :     0.005721  p :     0.020996
      px      :     0.007094
      py      :     0.008181
 13 H s       :     0.898567  s :     0.898567
      pz      :     0.010997  p :     0.021003
      px      :     0.005337
      py      :     0.004670


                     *******************************
                     * LOEWDIN POPULATION ANALYSIS *
                     *******************************

----------------------
LOEWDIN ATOMIC CHARGES
----------------------
   0 C :   -0.320673
   1 C :   -0.679964
   2 H :    0.107579
   3 H :    0.107443
   4 H :    0.105888
   5 C :   -0.320744
   6 H :    0.105865
   7 C :   -0.320796
   8 H :    0.107391
   9 H :    0.107656
  10 O :   -0.320737
  11 H :    0.105873
  12 H :    0.107619
  13 H :    0.107599

-------------------------------
LOEWDIN REDUCED ORBITAL CHARGES
-------------------------------
  0 C s       :     2.852827  s :     2.852827
      pz      :     1.060653  p :     3.179090
      px      :     1.063724
      py      :     1.054713
      dz2     :     0.077625  d :     0.265199
      dxz     :     0.024437
      dyz     :     0.044996
      dx2y2   :     0.084805
      dxy     :     0.033335
      f0      :     0.002646  f :     0.023558
      f+1     :     0.004142
      f-1     :     0.002372
      f+2     :     0.003990
      f-2     :     0.003094
      f+3     :     0.002569
      f-3     :     0.004745
  1 C s       :     2.716025  s :     2.716025
      pz      :     0.989294  p :     2.916130
      px      :     0.943648
      py      :     0.983189
      dz2     :     0.157199  d :     0.922053
      dxz     :     0.207739
      dyz     :     0.145720
      dx2y2   :     0.203490
      dxy     :     0.207905
      f0      :     0.017059  f :     0.125756
      f+1     :     0.013408
      f-1     :     0.013896
      f+2     :     0.017340
      f-2     :     0.014829
      f+3     :     0.028717
      f-3     :     0.020508
  2 H s       :     0.831238  s :     0.831238
      pz      :     0.032251  p :     0.061183
      px      :     0.015061
      py      :     0.013872
  3 H s       :     0.831368  s :     0.831368
      pz      :     0.017484  p :     0.061189
      px      :     0.013476
      py      :     0.030229
  4 H s       :     0.831607  s :     0.831607
      pz      :     0.013919  p :     0.062505
      px      :     0.032776
      py      :     0.015810
  5 C s       :     2.852844  s :     2.852844
      pz      :     1.043136  p :     3.179168
      px      :     1.069308
      py      :     1.066724
      dz2     :     0.052346  d :     0.265175
      dxz     :     0.049410
      dyz     :     0.089324
      dx2y2   :     0.041139
      dxy     :     0.032957
      f0      :     0.005171  f :     0.023557
      f+1     :     0.005109
      f-1     :     0.003740
      f+2     :     0.002987
      f-2     :     0.003261
      f+3     :     0.001155
      f-3     :     0.002136
  6 H s       :     0.831642  s :     0.831642
      pz      :     0.014311  p :     0.062493
      px      :     0.031984
      py      :     0.016199
  7 C s       :     2.852838  s :     2.852838
      pz      :     1.060655  p :     3.179255
      px      :     1.070500
      py      :     1.048100
      dz2     :     0.077974  d :     0.265147
      dxz     :     0.021837
      dyz     :     0.047074
      dx2y2   :     0.040648
      dxy     :     0.077614
      f0      :     0.002657  f :     0.023556
      f+1     :     0.002301
      f-1     :     0.004190
      f+2     :     0.002967
      f-2     :     0.004133
      f+3     :     0.003752
      f-3     :     0.003555
  8 H s       :     0.831413  s :     0.831413
      pz      :     0.018617  p :     0.061195
      px      :     0.013562
      py      :     0.029016
  9 H s       :     0.831158  s :     0.831158
      pz      :     0.018550  p :     0.061186
      px      :     0.020460
      py      :     0.022176
 10 O s       :     3.434246  s :     3.434246
      pz      :     1.687088  p :     4.818437
      px      :     1.473027
      py      :     1.658323
      dz2     :     0.006608  d :     0.063125
      dxz     :     0.016459
      dyz     :     0.002563
      dx2y2   :     0.018761
      dxy     :     0.018734
      f0      :     0.000549  f :     0.004928
      f+1     :     0.000672
      f-1     :     0.000173
      f+2     :     0.000539
      f-2     :     0.000394
      f+3     :     0.001340
      f-3     :     0.001261
 11 H s       :     0.831632  s :     0.831632
      pz      :     0.013918  p :     0.062494
      px      :     0.031204
      py      :     0.017373
 12 H s       :     0.831191  s :     0.831191
      pz      :     0.017444  p :     0.061189
      px      :     0.020961
      py      :     0.022784
 13 H s       :     0.831196  s :     0.831196
      pz      :     0.032303  p :     0.061205
      px      :     0.015411
      py      :     0.013491


                      *****************************
                      * MAYER POPULATION ANALYSIS *
                      *****************************

  NA   - Mulliken gross atomic population
  ZA   - Total nuclear charge
  QA   - Mulliken gross atomic charge
  VA   - Mayer's total valence
  BVA  - Mayer's bonded valence
  FA   - Mayer's free valence

  ATOM       NA         ZA         QA         VA         BVA        FA
  0 C      6.3352     6.0000    -0.3352     3.6249     3.6249     0.0000
  1 C      5.8541     6.0000     0.1459     4.3764     4.3764    -0.0000
  2 H      0.9201     1.0000     0.0799     1.0105     1.0105    -0.0000
  3 H      0.9206     1.0000     0.0794     1.0109     1.0109     0.0000
  4 H      0.9385     1.0000     0.0615     0.9870     0.9870    -0.0000
  5 C      6.3370     6.0000    -0.3370     3.6264     3.6264     0.0000
  6 H      0.9387     1.0000     0.0613     0.9872     0.9872     0.0000
  7 C      6.3386     6.0000    -0.3386     3.6254     3.6254    -0.0000
  8 H      0.9205     1.0000     0.0795     1.0110     1.0110     0.0000
  9 H      0.9197     1.0000     0.0803     1.0100     1.0100     0.0000
 10 O      8.7988     8.0000    -0.7988     1.6027     1.6027    -0.0000
 11 H      0.9387     1.0000     0.0613     0.9871     0.9871    -0.0000
 12 H      0.9198     1.0000     0.0802     1.0108     1.0108    -0.0000
 13 H      0.9196     1.0000     0.0804     1.0100     1.0100     0.0000

  Mayer bond orders larger than 0.100000
B(  0-C ,  1-C ) :   0.9064 B(  0-C ,  2-H ) :   0.9710 B(  0-C ,  3-H ) :   0.9706 
B(  0-C ,  4-H ) :   0.9394 B(  0-C , 10-O ) :  -0.1317 B(  1-C ,  5-C ) :   0.9060 
B(  1-C ,  7-C ) :   0.9047 B(  1-C , 10-O ) :   1.6736 B(  5-C ,  6-H ) :   0.9394 
B(  5-C ,  8-H ) :   0.9706 B(  5-C ,  9-H ) :   0.9715 B(  5-C , 10-O ) :  -0.1306 
B(  7-C , 10-O ) :  -0.1309 B(  7-C , 11-H ) :   0.9392 B(  7-C , 12-H ) :   0.9714 
B(  7-C , 13-H ) :   0.9711 

-------
TIMINGS
-------

Total SCF time: 0 days 0 hours 0 min 30 sec 

Total time                  ....      30.799 sec
Sum of individual times     ....      28.603 sec  ( 92.9%)

Fock matrix formation       ....      26.576 sec  ( 86.3%)
  Split-RI-J                ....       3.738 sec  ( 14.1% of F)
  XC integration            ....      14.077 sec  ( 53.0% of F)
    Basis function eval.    ....       4.256 sec  ( 30.2% of XC)
    Density eval.           ....       3.113 sec  ( 22.1% of XC)
    XC-Functional eval.     ....       0.665 sec  (  4.7% of XC)
    XC-Potential eval.      ....       4.076 sec  ( 29.0% of XC)
Diagonalization             ....       0.062 sec  (  0.2%)
Density matrix formation    ....       0.005 sec  (  0.0%)
Population analysis         ....       0.152 sec  (  0.5%)
Initial guess               ....       0.490 sec  (  1.6%)
Orbital Transformation      ....       0.000 sec  (  0.0%)
Orbital Orthonormalization  ....       0.000 sec  (  0.0%)
DIIS solution               ....       0.139 sec  (  0.5%)
SOSCF solution              ....       0.092 sec  (  0.3%)
Grid generation             ....       1.087 sec  (  3.5%)

Maximum memory used throughout the entire SCF-calculation: 68.6 MB

-------------------------   --------------------
FINAL SINGLE POINT ENERGY      -232.940935972083
-------------------------   --------------------

------------------------------------------------------------------------------
                         ORCA SCF GRADIENT CALCULATION
------------------------------------------------------------------------------

Gradient of the Kohn-Sham DFT energy:
Kohn-Sham wavefunction type      ... RKS
Hartree-Fock exchange scaling    ...    0.000
Number of operators              ...    1
Number of atoms                  ...   14
Basis set dimensions             ...  209
Integral neglect threshold       ... 2.5e-11
Integral primitive cutoff        ... 2.5e-12
SHARK Integral package           ... ON

Nuc. rep. gradient       (SHARK) ... done (  0.0 sec)
HCore & Overlap gradient (SHARK) ... done (  0.2 sec)
RI-J gradient            (SHARK) ... done (  1.3 sec)
Exchange-correlation gradient    ... done

------------------
CARTESIAN GRADIENT
------------------

   1   C   :    0.018897865   -0.003007463    0.001931917
   2   C   :   -0.000151916   -0.000096308   -0.000033845
   3   H   :   -0.004025194   -0.002171702    0.001378032
   4   H   :   -0.002958839    0.000547658   -0.003610513
   5   H   :    0.008690967    0.001100646    0.002214542
   6   C   :    0.017530554   -0.006293335   -0.004423057
   7   H   :    0.007195083   -0.002607050   -0.004692183
   8   C   :    0.016393543   -0.009836174    0.001756816
   9   H   :   -0.001790099    0.003741714    0.002372093
  10   H   :   -0.003718357   -0.001729469    0.002328550
  11   O   :   -0.057752494    0.021080345    0.000689648
  12   H   :    0.005872716   -0.006420717    0.002285702
  13   H   :   -0.002616322    0.001589061   -0.003686233
  14   H   :   -0.001567508    0.004102796    0.001488530

Difference to translation invariance:
           :    0.0000000000    0.0000000000   -0.0000000000

Difference to rotation invariance:
           :   -0.0008951534    0.0000548225   -0.0008707018

Norm of the cartesian gradient     ...    0.0725453999
RMS gradient                       ...    0.0111939982
MAX gradient                       ...    0.0577524942

-------
TIMINGS
-------

Total SCF gradient time            ...        9.187 sec

One electron gradient       ....       0.237 sec  (  2.6%)
RI-J Coulomb gradient       ....       1.270 sec  ( 13.8%)
XC gradient                 ....       6.595 sec  ( 71.8%)
CPCM gradient               ....       0.454 sec  (  4.9%)
   A-Matrix (El+Nuc)        ....       0.040 sec  (  0.4%)
   Potential                ....       0.414 sec  (  4.5%)

Maximum memory used throughout the entire SCFGRAD-calculation: 63.6 MB
------------------------------------------------------------------------------
                         ORCA GEOMETRY RELAXATION STEP
------------------------------------------------------------------------------

Reading the OPT-File                    .... done
Getting information on internals        .... done
Copying old internal coords+grads       .... done
Making the new internal coordinates     .... (new redundants).... done
Validating the new internal coordinates .... (new redundants).... done
Calculating the B-matrix                .... done
Calculating the G,G- and P matrices     .... done
Transforming gradient to internals      .... done
Projecting the internal gradient        .... done
Number of atoms                         ....  14
Number of internal coordinates          ....  64
Current Energy                          ....  -232.940935972 Eh
Current gradient norm                   ....     0.072545400 Eh/bohr
Maximum allowed component of the step   ....  0.300
Current trust radius                    ....  0.300
Evaluating the initial hessian          ....  (Almloef) done
Projecting the Hessian                  .... done
Forming the augmented Hessian           .... done
Diagonalizing the augmented Hessian     .... done
Last element of RFO vector              ....  0.971370168
Lowest eigenvalues of augmented Hessian:
 -0.012209551  0.010688469  0.010689018  0.010689139  0.079111722
Length of the computed step             ....  0.244573122
The final length of the internal step   ....  0.244573122
Converting the step to cartesian space:
 Initial RMS(Int)=    0.0305716402
Transforming coordinates:
 Iter   0:  RMS(Cart)=    0.0324435052 RMS(Int)=    1.5636008322
 Iter   1:  RMS(Cart)=    0.0015630845 RMS(Int)=    0.0008785842
 Iter   2:  RMS(Cart)=    0.0000855487 RMS(Int)=    0.0000363446
 Iter   3:  RMS(Cart)=    0.0000031046 RMS(Int)=    0.0000011282
 Iter   4:  RMS(Cart)=    0.0000000715 RMS(Int)=    0.0000000305
done
Storing new coordinates                 .... done

                                .--------------------.
          ----------------------|Geometry convergence|-------------------------
          Item                value                   Tolerance       Converged
          ---------------------------------------------------------------------
          RMS gradient        0.0090369472            0.0001000000      NO
          MAX gradient        0.0614832077            0.0003000000      NO
          RMS step            0.0305716402            0.0020000000      NO
          MAX step            0.0835301035            0.0040000000      NO
          ........................................................
          Max(Bonds)      0.0442      Max(Angles)    1.99
          Max(Dihed)        3.24      Max(Improp)    0.00
          ---------------------------------------------------------------------

The optimization has not yet converged - more geometry cycles are needed


    ---------------------------------------------------------------------------
                         Redundant Internal Coordinates
                            (Angstroem and degrees)

        Definition                    Value    dE/dq     Step     New-Value
    ----------------------------------------------------------------------------
     1. B(C   1,C   0)                1.5360 -0.010810  0.0151    1.5512   
     2. B(H   2,C   0)                1.0982 -0.002094  0.0031    1.1012   
     3. B(H   3,C   0)                1.0981 -0.002116  0.0031    1.1012   
     4. B(H   4,C   0)                1.0968 -0.007912  0.0115    1.1084   
     5. B(C   5,C   1)                1.5360 -0.010650  0.0149    1.5510   
     6. B(H   6,C   5)                1.0969 -0.007843  0.0114    1.1083   
     7. B(C   7,C   1)                1.5360 -0.010660  0.0149    1.5510   
     8. B(H   8,C   5)                1.0981 -0.002068  0.0030    1.1011   
     9. B(H   9,C   5)                1.0981 -0.002100  0.0031    1.1012   
    10. B(O  10,C   1)                1.3199 -0.061483  0.0442    1.3641   
    11. B(H  11,C   7)                1.0969 -0.007819  0.0114    1.1083   
    12. B(H  12,C   7)                1.0981 -0.002083  0.0030    1.1012   
    13. B(H  13,C   7)                1.0981 -0.002198  0.0032    1.1013   
    14. A(C   1,C   0,H   2)          112.03  0.006348   -1.25    110.78   
    15. A(C   1,C   0,H   4)          110.76 -0.008820    1.79    112.55   
    16. A(H   2,C   0,H   3)          107.34 -0.004639    0.28    107.62   
    17. A(H   3,C   0,H   4)          107.21  0.000286    0.23    107.44   
    18. A(H   2,C   0,H   4)          107.20  0.000201    0.26    107.46   
    19. A(C   1,C   0,H   3)          112.04  0.006280   -1.24    110.80   
    20. A(C   0,C   1,C   5)          109.94  0.003108   -1.97    107.97   
    21. A(C   5,C   1,C   7)          109.94  0.002949   -1.94    108.00   
    22. A(C   0,C   1,C   7)          109.95  0.002885   -1.92    108.03   
    23. A(C   7,C   1,O  10)          108.99 -0.002945    1.96    110.95   
    24. A(C   5,C   1,O  10)          109.00 -0.003073    1.98    110.98   
    25. A(C   0,C   1,O  10)          108.99 -0.003086    1.99    110.99   
    26. A(H   8,C   5,H   9)          107.34 -0.004693    0.30    107.64   
    27. A(H   6,C   5,H   9)          107.20  0.000250    0.24    107.44   
    28. A(C   1,C   5,H   9)          112.03  0.006326   -1.25    110.78   
    29. A(H   6,C   5,H   8)          107.20  0.000214    0.25    107.45   
    30. A(C   1,C   5,H   8)          112.05  0.006368   -1.25    110.80   
    31. A(C   1,C   5,H   6)          110.75 -0.008815    1.79    112.54   
    32. A(H  12,C   7,H  13)          107.34 -0.004644    0.28    107.62   
    33. A(H  11,C   7,H  13)          107.20  0.000349    0.23    107.43   
    34. A(C   1,C   7,H  13)          112.03  0.006159   -1.22    110.81   
    35. A(H  11,C   7,H  12)          107.21  0.000194    0.25    107.46   
    36. A(C   1,C   7,H  12)          112.05  0.006488   -1.28    110.77   
    37. A(C   1,C   7,H  11)          110.76 -0.008886    1.81    112.56   
    38. D(C   7,C   1,C   0,H   4)    -60.67 -0.003764    2.51    -58.15   
    39. D(O  10,C   1,C   0,H   3)     60.27  0.001449   -0.63     59.64   
    40. D(C   5,C   1,C   0,H   3)    -59.15  0.005222   -3.09    -62.23   
    41. D(O  10,C   1,C   0,H   2)    -60.43 -0.001537    0.77    -59.66   
    42. D(C   5,C   1,C   0,H   2)   -179.85  0.002235   -1.68   -181.54   
    43. D(C   7,C   1,C   0,H   3)    179.68 -0.002302    1.83    181.51   
    44. D(O  10,C   1,C   0,H   4)    179.93 -0.000014    0.06    179.99   
    45. D(C   7,C   1,C   0,H   2)     58.97 -0.005288    3.23     62.20   
    46. D(C   5,C   1,C   0,H   4)     60.51  0.003759   -2.40     58.11   
    47. D(H   8,C   5,C   1,C   7)   -179.50  0.002244   -1.75   -181.25   
    48. D(H   6,C   5,C   1,O  10)   -179.74  0.000033   -0.02   -179.75   
    49. D(H   6,C   5,C   1,C   7)     60.85  0.003738   -2.45     58.40   
    50. D(H   6,C   5,C   1,C   0)    -60.32 -0.003747    2.45    -57.88   
    51. D(H   8,C   5,C   1,O  10)    -60.09 -0.001460    0.69    -59.40   
    52. D(H   9,C   5,C   1,O  10)     60.63  0.001506   -0.71     59.92   
    53. D(H   9,C   5,C   1,C   7)    -58.78  0.005210   -3.14    -61.92   
    54. D(H   9,C   5,C   1,C   0)   -179.96 -0.002274    1.76   -178.20   
    55. D(H   8,C   5,C   1,C   0)     59.32 -0.005241    3.15     62.47   
    56. D(H  13,C   7,C   1,C   5)   -179.88 -0.002276    1.70   -178.18   
    57. D(H  13,C   7,C   1,C   0)    -58.71  0.005343   -3.24    -61.94   
    58. D(H  12,C   7,C   1,O  10)    -60.00 -0.001487    0.65    -59.35   
    59. D(H  12,C   7,C   1,C   5)     59.42 -0.005269    3.10     62.52   
    60. D(H  12,C   7,C   1,C   0)   -179.41  0.002349   -1.83   -181.24   
    61. D(H  11,C   7,C   1,O  10)   -179.66 -0.000000   -0.05   -179.71   
    62. D(H  11,C   7,C   1,C   5)    -60.24 -0.003782    2.40    -57.84   
    63. D(H  13,C   7,C   1,O  10)     60.70  0.001506   -0.76     59.95   
    64. D(H  11,C   7,C   1,C   0)     60.93  0.003836   -2.53     58.40   
    ----------------------------------------------------------------------------

         *************************************************************
         *                GEOMETRY OPTIMIZATION CYCLE   2            *
         *************************************************************
---------------------------------
CARTESIAN COORDINATES (ANGSTROEM)
---------------------------------
  C     -3.834045   -4.077513    1.873064
  C     -2.872455   -3.094582    2.590984
  H     -3.531511   -4.223912    0.824391
  H     -3.822800   -5.063447    2.363428
  H     -4.883129   -3.719892    1.869841
  C     -3.381085   -2.908030    4.044252
  H     -4.422340   -2.530576    4.085004
  C     -2.968819   -1.723243    1.872869
  H     -3.353785   -3.862107    4.593291
  H     -2.748400   -2.191062    4.590452
  O     -1.591895   -3.564539    2.577060
  H     -3.998880   -1.314220    1.873417
  H     -2.318087   -0.980728    2.360508
  H     -2.648025   -1.808321    0.822774

----------------------------
CARTESIAN COORDINATES (A.U.)
----------------------------
  NO LB      ZA    FRAG     MASS         X           Y           Z
   0 C     6.0000    0    12.011   -7.245295   -7.705383    3.539577
   1 C     6.0000    0    12.011   -5.428154   -5.847912    4.896250
   2 H     1.0000    0     1.008   -6.673589   -7.982038    1.557872
   3 H     1.0000    0     1.008   -7.224045   -9.568528    4.466232
   4 H     1.0000    0     1.008   -9.227776   -7.029577    3.533487
   5 C     6.0000    0    12.011   -6.389325   -5.495380    7.642528
   6 H     1.0000    0     1.008   -8.357011   -4.782095    7.719540
   7 C     6.0000    0    12.011   -5.610254   -3.256457    3.539210
   8 H     1.0000    0     1.008   -6.337735   -7.298325    8.680062
   9 H     1.0000    0     1.008   -5.193722   -4.140507    8.674696
  10 O     8.0000    0    15.999   -3.008246   -6.736002    4.869938
  11 H     1.0000    0     1.008   -7.556787   -2.483515    3.540244
  12 H     1.0000    0     1.008   -4.380549   -1.853308    4.460714
  13 H     1.0000    0     1.008   -5.004042   -3.417231    1.554817

--------------------------------
INTERNAL COORDINATES (ANGSTROEM)
--------------------------------
 C      0   0   0     0.000000000000     0.00000000     0.00000000
 C      1   0   0     1.551199006706     0.00000000     0.00000000
 H      1   2   0     1.101215031938   110.77330918     0.00000000
 H      1   2   3     1.101203454060   110.78782545   119.32362944
 H      1   2   3     1.108368085164   112.55907681   239.65473006
 C      2   1   3     1.550965139663   107.85368834   178.47580612
 H      6   2   1     1.108306349649   112.55199252   302.10216218
 C      2   1   3     1.550981915153   107.90644167    62.17047835
 H      6   2   1     1.101114281258   110.78500136    62.44246398
 H      6   2   1     1.101212467367   110.77206026   181.78985846
 O      2   1   3     1.364143851285   111.03231365   300.33060031
 H      8   2   1     1.108298478355   112.57082573    58.42638075
 H      8   2   1     1.101168175689   110.75935913   178.76991360
 H      8   2   1     1.101293696751   110.79827950   298.09025868

---------------------------
INTERNAL COORDINATES (A.U.)
---------------------------
 C      0   0   0     0.000000000000     0.00000000     0.00000000
 C      1   0   0     2.931341301885     0.00000000     0.00000000
 H      1   2   0     2.080994824921   110.77330918     0.00000000
 H      1   2   3     2.080972945901   110.78782545   119.32362944
 H      1   2   3     2.094512136540   112.55907681   239.65473006
 C      2   1   3     2.930899357222   107.85368834   178.47580612
 H      6   2   1     2.094395473323   112.55199252   302.10216218
 C      2   1   3     2.930931058305   107.90644167    62.17047835
 H      6   2   1     2.080804433727   110.78500136    62.44246398
 H      6   2   1     2.080989978584   110.77206026   181.78985846
 O      2   1   3     2.577858286202   111.03231365   300.33060031
 H      8   2   1     2.094380598732   112.57082573    58.42638075
 H      8   2   1     2.080906279442   110.75935913   178.76991360
 H      8   2   1     2.081143479874   110.79827950   298.09025868

------------------------------------------------------------------------------
                   ___                                                        
                  /   \      - P O W E R E D   B Y -                         
                 /     \                                                     
                 |  |  |   _    _      __       _____    __    __             
                 |  |  |  | |  | |    /  \     |  _  \  |  |  /  |          
                  \  \/   | |  | |   /    \    | | | |  |  | /  /          
                 / \  \   | |__| |  /  /\  \   | |_| |  |  |/  /          
                |  |  |   |  __  | /  /__\  \  |    /   |      \           
                |  |  |   | |  | | |   __   |  |    \   |  |\   \          
                \     /   | |  | | |  |  |  |  | |\  \  |  | \   \       
                 \___/    |_|  |_| |__|  |__|  |_| \__\ |__|  \__/        
                                                                              
                      - O R C A' S   B I G   F R I E N D -                    
                                      &                                       
                       - I N T E G R A L  F E E D E R -                       
                                                                              
 v1 FN, 2020, v2 2021                                                         
------------------------------------------------------------------------------


Reading SHARK input file inp.SHARKINP.tmp ... ok
----------------------
SHARK INTEGRAL PACKAGE
----------------------

Number of atoms                             ...     14
Number of basis functions                   ...    209
Number of shells                            ...     91
Maximum angular momentum                    ...      3
Integral batch strategy                     ... SHARK/LIBINT Hybrid
RI-J (if used) integral strategy            ... SPLIT-RIJ (Revised 2003 algorithm where possible)
Printlevel                                  ...      1
Contraction scheme used                     ... SEGMENTED contraction
Coulomb Range Separation                    ... NOT USED
Exchange Range Separation                   ... NOT USED
Finite Nucleus Model                        ... NOT USED
Auxiliary Coulomb fitting basis             ... AVAILABLE
   # of basis functions in Aux-J            ...    344
   # of shells in Aux-J                     ...    120
   Maximum angular momentum in Aux-J        ...      4
Auxiliary J/K fitting basis                 ... NOT available
Auxiliary Correlation fitting basis         ... NOT available
Auxiliary 'external' fitting basis          ... NOT available
Integral threshold                          ...     2.500000e-11
Primitive cut-off                           ...     2.500000e-12
Primitive pair pre-selection threshold      ...     2.500000e-12

Calculating pre-screening integrals         ... done (  0.1 sec) Dimension = 91
Organizing shell pair data                  ... done (  0.1 sec)
Shell pair information
Total number of shell pairs                 ...      4186
Shell pairs after pre-screening             ...      4080
Total number of primitive shell pairs       ...     12072
Primitive shell pairs kept                  ...      9424
          la=0 lb=0:   1299 shell pairs
          la=1 lb=0:   1227 shell pairs
          la=1 lb=1:    300 shell pairs
          la=2 lb=0:    514 shell pairs
          la=2 lb=1:    240 shell pairs
          la=2 lb=2:     55 shell pairs
          la=3 lb=0:    260 shell pairs
          la=3 lb=1:    120 shell pairs
          la=3 lb=2:     50 shell pairs
          la=3 lb=3:     15 shell pairs

Calculating one electron integrals          ... done (  0.0 sec)
Calculating RI/J V-Matrix + Cholesky decomp.... done (  0.0 sec)
Calculating Nuclear repulsion               ... done (  0.0 sec) ENN=    188.184846065355 Eh

SHARK setup successfully completed in   0.6 seconds

Maximum memory used throughout the entire GTOINT-calculation: 49.0 MB

Diagonalization of the overlap matrix:
Smallest eigenvalue                        ... 2.819e-04
Time for diagonalization                   ...    0.006 sec
Threshold for overlap eigenvalues          ... 1.000e-08
Number of eigenvalues below threshold      ... 0
Time for construction of square roots      ...    0.022 sec
Total time needed                          ...    0.028 sec

-------------------
DFT GRID GENERATION
-------------------

General Integration Accuracy     IntAcc      ... 4.388
[...]
 103   0.0000       1.912122        52.0315 
 104   0.0000       1.912312        52.0366 
 105   0.0000       1.976499        53.7833 
 106   0.0000       1.994053        54.2609 
 107   0.0000       2.016258        54.8652 
 108   0.0000       2.016842        54.8811 
 109   0.0000       2.040404        55.5222 
 110   0.0000       2.084731        56.7284 
 111   0.0000       2.085026        56.7364 
 112   0.0000       2.129303        57.9413 
 113   0.0000       2.207728        60.0753 
 114   0.0000       2.207933        60.0809 
 115   0.0000       2.241860        61.0041 
 116   0.0000       2.266653        61.6788 
 117   0.0000       2.267199        61.6936 
 118   0.0000       2.272235        61.8307 
 119   0.0000       2.315837        63.0171 
 120   0.0000       2.316071        63.0235 
 121   0.0000       2.328006        63.3483 
 122   0.0000       2.348134        63.8960 
 123   0.0000       2.363155        64.3047 
 124   0.0000       2.363388        64.3110 
 125   0.0000       2.477497        67.4161 
 126   0.0000       2.496609        67.9362 
 127   0.0000       2.497144        67.9507 
 128   0.0000       2.512216        68.3609 
 129   0.0000       2.512526        68.3693 
 130   0.0000       2.557022        69.5801 
 131   0.0000       2.588475        70.4360 
 132   0.0000       2.637478        71.7694 
 133   0.0000       2.637961        71.7826 
 134   0.0000       2.661163        72.4139 
 135   0.0000       2.689095        73.1740 
 136   0.0000       2.689283        73.1791 
 137   0.0000       2.731076        74.3164 
 138   0.0000       2.754789        74.9616 
 139   0.0000       2.754795        74.9618 
 140   0.0000       2.879816        78.3638 
 141   0.0000       2.885345        78.5142 
 142   0.0000       2.885850        78.5280 
 143   0.0000       3.002333        81.6976 
 144   0.0000       3.003998        81.7429 
 145   0.0000       3.006133        81.8010 
 146   0.0000       3.039089        82.6978 
 147   0.0000       3.107731        84.5657 
 148   0.0000       3.108296        84.5810 
 149   0.0000       3.160377        85.9982 
 150   0.0000       3.160830        86.0106 
 151   0.0000       3.183607        86.6304 
 152   0.0000       3.252029        88.4922 
 153   0.0000       3.252590        88.5075 
 154   0.0000       3.280985        89.2802 
 155   0.0000       3.282794        89.3294 
 156   0.0000       3.302923        89.8771 
 157   0.0000       3.312355        90.1338 
 158   0.0000       3.313147        90.1553 
 159   0.0000       3.400500        92.5323 
 160   0.0000       3.401931        92.5713 
 161   0.0000       3.418837        93.0313 
 162   0.0000       3.474272        94.5398 
 163   0.0000       3.474754        94.5529 
 164   0.0000       3.551663        96.6457 
 165   0.0000       3.598028        97.9073 
 166   0.0000       3.599941        97.9594 
 167   0.0000       3.600223        97.9670 
 168   0.0000       3.620135        98.5089 
 169   0.0000       3.621060        98.5341 
 170   0.0000       3.842750       104.5665 
 171   0.0000       3.866213       105.2050 
 172   0.0000       3.866563       105.2145 
 173   0.0000       3.984236       108.4166 
 174   0.0000       3.984453       108.4225 
 175   0.0000       4.049905       110.2035 
 176   0.0000       4.053019       110.2883 
 177   0.0000       4.060942       110.5038 
 178   0.0000       4.061625       110.5224 
 179   0.0000       4.192301       114.0783 
 180   0.0000       4.273583       116.2901 
 181   0.0000       4.274767       116.3223 
 182   0.0000       4.320664       117.5712 
 183   0.0000       4.321026       117.5811 
 184   0.0000       4.377067       119.1061 
 185   0.0000       4.413377       120.0941 
 186   0.0000       4.414370       120.1211 
 187   0.0000       4.567905       124.2990 
 188   0.0000       4.697890       127.8361 
 189   0.0000       4.811651       130.9317 
 190   0.0000       4.812568       130.9566 
 191   0.0000       4.866496       132.4241 
 192   0.0000       5.191056       141.2558 
 193   0.0000       5.191536       141.2689 
 194   0.0000       5.451706       148.3485 
 195   0.0000       5.451926       148.3544 
 196   0.0000       5.881614       160.0469 
 197   0.0000       5.881993       160.0572 
 198   0.0000       5.976946       162.6410 
 199   0.0000       6.390744       173.9010 
 200   0.0000       6.390860       173.9041 
 201   0.0000       6.872810       187.0187 
 202   0.0000       6.873197       187.0292 
 203   0.0000       6.928493       188.5339 
 204   0.0000      22.053059       600.0942 
 205   0.0000      22.105945       601.5333 
 206   0.0000      22.106546       601.5497 
 207   0.0000      22.475308       611.5842 
 208   0.0000      43.688549      1188.8259 

                    ********************************
                    * MULLIKEN POPULATION ANALYSIS *
                    ********************************

-----------------------
MULLIKEN ATOMIC CHARGES
-----------------------
   0 C :   -0.345013
   1 C :    0.179956
   2 H :    0.076778
   3 H :    0.077112
   4 H :    0.076726
   5 C :   -0.345401
   6 H :    0.076200
   7 C :   -0.348997
   8 H :    0.076717
   9 H :    0.077256
  10 O :   -0.833244
  11 H :    0.076403
  12 H :    0.077882
  13 H :    0.077627
Sum of atomic charges:   -1.0000000

--------------------------------
MULLIKEN REDUCED ORBITAL CHARGES
--------------------------------
  0 C s       :     3.208031  s :     3.208031
      pz      :     1.035694  p :     3.085049
      px      :     1.007144
      py      :     1.042212
      dz2     :     0.014719  d :     0.048820
      dxz     :     0.003355
      dyz     :     0.007300
      dx2y2   :     0.019215
      dxy     :     0.004230
      f0      :     0.000410  f :     0.003113
      f+1     :     0.000551
      f-1     :     0.000320
      f+2     :     0.000466
      f-2     :     0.000228
      f+3     :     0.000450
      f-3     :     0.000690
  1 C s       :     3.083077  s :     3.083077
      pz      :     0.919887  p :     2.535265
      px      :     0.722862
      py      :     0.892516
      dz2     :     0.033856  d :     0.187051
      dxz     :     0.040008
      dyz     :     0.032185
      dx2y2   :     0.040394
      dxy     :     0.040609
      f0      :     0.002106  f :     0.014651
      f+1     :     0.001395
      f-1     :     0.002101
      f+2     :     0.001948
      f-2     :     0.001593
      f+3     :     0.003334
      f-3     :     0.002174
  2 H s       :     0.902309  s :     0.902309
      pz      :     0.010840  p :     0.020914
      px      :     0.005070
      py      :     0.005004
  3 H s       :     0.901965  s :     0.901965
      pz      :     0.005819  p :     0.020924
      px      :     0.004550
      py      :     0.010555
  4 H s       :     0.902663  s :     0.902663
      pz      :     0.004586  p :     0.020611
      px      :     0.010879
      py      :     0.005145
  5 C s       :     3.208113  s :     3.208113
      pz      :     1.013621  p :     3.085281
      px      :     1.031087
      py      :     1.040573
      dz2     :     0.008732  d :     0.048887
      dxz     :     0.009462
      dyz     :     0.018367
      dx2y2   :     0.006937
      dxy     :     0.005389
      f0      :     0.000911  f :     0.003120
      f+1     :     0.000598
      f-1     :     0.000520
      f+2     :     0.000294
      f-2     :     0.000262
      f+3     :     0.000157
      f-3     :     0.000379
  6 H s       :     0.903188  s :     0.903188
      pz      :     0.004950  p :     0.020613
      px      :     0.010397
      py      :     0.005266
  7 C s       :     3.210087  s :     3.210087
      pz      :     1.036043  p :     3.086948
      px      :     1.048238
      py      :     1.002666
      dz2     :     0.014827  d :     0.048846
      dxz     :     0.003696
      dyz     :     0.006845
      dx2y2   :     0.005966
      dxy     :     0.017512
      f0      :     0.000421  f :     0.003117
      f+1     :     0.000230
      f-1     :     0.000633
      f+2     :     0.000266
      f-2     :     0.000422
      f+3     :     0.000563
      f-3     :     0.000582
  8 H s       :     0.902371  s :     0.902371
      pz      :     0.006790  p :     0.020912
      px      :     0.004570
      py      :     0.009552
  9 H s       :     0.901835  s :     0.901835
      pz      :     0.006766  p :     0.020909
      px      :     0.006875
      py      :     0.007268
 10 O s       :     3.796910  s :     3.796910
      pz      :     1.815514  p :     5.012650
      px      :     1.432704
      py      :     1.764431
      dz2     :     0.003180  d :     0.022397
      dxz     :     0.004363
      dyz     :     0.000723
      dx2y2   :     0.007417
      dxy     :     0.006714
      f0      :     0.000116  f :     0.001287
      f+1     :     0.000223
      f-1     :     0.000048
      f+2     :     0.000115
      f-2     :     0.000085
      f+3     :     0.000319
      f-3     :     0.000381
 11 H s       :     0.902979  s :     0.902979
      pz      :     0.004587  p :     0.020618
      px      :     0.010006
      py      :     0.006024
 12 H s       :     0.901215  s :     0.901215
      pz      :     0.005798  p :     0.020903
      px      :     0.007116
      py      :     0.007988
 13 H s       :     0.901471  s :     0.901471
      pz      :     0.010861  p :     0.020902
      px      :     0.005313
      py      :     0.004727


                     *******************************
                     * LOEWDIN POPULATION ANALYSIS *
                     *******************************

----------------------
LOEWDIN ATOMIC CHARGES
----------------------
   0 C :   -0.324513
   1 C :   -0.609346
   2 H :    0.107348
   3 H :    0.107354
   4 H :    0.108429
   5 C :   -0.324483
   6 H :    0.108392
   7 C :   -0.324829
   8 H :    0.107290
   9 H :    0.107552
  10 O :   -0.386469
  11 H :    0.108334
  12 H :    0.107556
  13 H :    0.107385

-------------------------------
LOEWDIN REDUCED ORBITAL CHARGES
-------------------------------
  0 C s       :     2.862057  s :     2.862057
      pz      :     1.063234  p :     3.184011
      px      :     1.062153
      py      :     1.058624
      dz2     :     0.074044  d :     0.256055
      dxz     :     0.025195
      dyz     :     0.043709
      dx2y2   :     0.079211
      dxy     :     0.033896
      f0      :     0.002471  f :     0.022390
      f+1     :     0.004405
      f-1     :     0.002086
      f+2     :     0.003779
      f-2     :     0.003025
      f+3     :     0.002440
      f-3     :     0.004184
  1 C s       :     2.733603  s :     2.733603
      pz      :     0.991587  p :     2.904052
      px      :     0.929612
      py      :     0.982853
      dz2     :     0.146676  d :     0.864500
      dxz     :     0.195552
      dyz     :     0.135570
      dx2y2   :     0.191138
      dxy     :     0.195563
      f0      :     0.013895  f :     0.107192
      f+1     :     0.012517
      f-1     :     0.012227
      f+2     :     0.014772
      f-2     :     0.013074
      f+3     :     0.023067
      f-3     :     0.017640
  2 H s       :     0.831861  s :     0.831861
      pz      :     0.031798  p :     0.060792
      px      :     0.015117
      py      :     0.013877
  3 H s       :     0.831860  s :     0.831860
      pz      :     0.017624  p :     0.060786
      px      :     0.013085
      py      :     0.030077
  4 H s       :     0.830280  s :     0.830280
      pz      :     0.013334  p :     0.061291
      px      :     0.032654
      py      :     0.015303
  5 C s       :     2.861776  s :     2.861776
      pz      :     1.045838  p :     3.183777
      px      :     1.069156
      py      :     1.068783
      dz2     :     0.050284  d :     0.256488
      dxz     :     0.047599
      dyz     :     0.086033
      dx2y2   :     0.039952
      dxy     :     0.032620
      f0      :     0.004697  f :     0.022442
      f+1     :     0.004685
      f-1     :     0.003403
      f+2     :     0.003036
      f-2     :     0.003371
      f+3     :     0.001084
      f-3     :     0.002166
  6 H s       :     0.830340  s :     0.830340
      pz      :     0.013675  p :     0.061268
      px      :     0.031876
      py      :     0.015718
  7 C s       :     2.862094  s :     2.862094
      pz      :     1.063129  p :     3.184219
      px      :     1.072196
      py      :     1.048895
      dz2     :     0.074681  d :     0.256123
      dxz     :     0.021934
      dyz     :     0.046250
      dx2y2   :     0.040762
      dxy     :     0.072496
      f0      :     0.002497  f :     0.022392
      f+1     :     0.002324
      f-1     :     0.004119
      f+2     :     0.002836
      f-2     :     0.003996
      f+3     :     0.003158
      f-3     :     0.003461
  8 H s       :     0.831918  s :     0.831918
      pz      :     0.018417  p :     0.060792
      px      :     0.013132
      py      :     0.029244
  9 H s       :     0.831678  s :     0.831678
      pz      :     0.018348  p :     0.060771
      px      :     0.020773
      py      :     0.021650
 10 O s       :     3.483057  s :     3.483057
      pz      :     1.713516  p :     4.846819
      px      :     1.454620
      py      :     1.678683
      dz2     :     0.006145  d :     0.052725
      dxz     :     0.012590
      dyz     :     0.001881
      dx2y2   :     0.016349
      dxy     :     0.015760
      f0      :     0.000395  f :     0.003868
      f+1     :     0.000590
      f-1     :     0.000139
      f+2     :     0.000388
      f-2     :     0.000281
      f+3     :     0.001013
      f-3     :     0.001061
 11 H s       :     0.830362  s :     0.830362
      pz      :     0.013336  p :     0.061304
      px      :     0.031176
      py      :     0.016793
 12 H s       :     0.831645  s :     0.831645
      pz      :     0.017568  p :     0.060799
      px      :     0.021013
      py      :     0.022219
 13 H s       :     0.831834  s :     0.831834
      pz      :     0.031883  p :     0.060781
      px      :     0.015319
      py      :     0.013579


                      *****************************
                      * MAYER POPULATION ANALYSIS *
                      *****************************

  NA   - Mulliken gross atomic population
  ZA   - Total nuclear charge
  QA   - Mulliken gross atomic charge
  VA   - Mayer's total valence
  BVA  - Mayer's bonded valence
  FA   - Mayer's free valence

  ATOM       NA         ZA         QA         VA         BVA        FA
  0 C      6.3450     6.0000    -0.3450     3.6628     3.6628     0.0000
  1 C      5.8200     6.0000     0.1800     4.2701     4.2701     0.0000
  2 H      0.9232     1.0000     0.0768     1.0114     1.0114     0.0000
  3 H      0.9229     1.0000     0.0771     1.0099     1.0099    -0.0000
  4 H      0.9233     1.0000     0.0767     0.9842     0.9842     0.0000
  5 C      6.3454     6.0000    -0.3454     3.6628     3.6628    -0.0000
  6 H      0.9238     1.0000     0.0762     0.9842     0.9842     0.0000
  7 C      6.3490     6.0000    -0.3490     3.6640     3.6640     0.0000
  8 H      0.9233     1.0000     0.0767     1.0110     1.0110    -0.0000
  9 H      0.9227     1.0000     0.0773     1.0105     1.0105     0.0000
 10 O      8.8332     8.0000    -0.8332     1.5746     1.5746     0.0000
 11 H      0.9236     1.0000     0.0764     0.9843     0.9843     0.0000
 12 H      0.9221     1.0000     0.0779     1.0102     1.0102    -0.0000
 13 H      0.9224     1.0000     0.0776     1.0103     1.0103    -0.0000

  Mayer bond orders larger than 0.100000
B(  0-C ,  1-C ) :   0.9052 B(  0-C ,  2-H ) :   0.9713 B(  0-C ,  3-H ) :   0.9712 
B(  0-C ,  4-H ) :   0.9412 B(  0-C , 10-O ) :  -0.1030 B(  1-C ,  5-C ) :   0.9045 
B(  1-C ,  7-C ) :   0.9038 B(  1-C , 10-O ) :   1.5769 B(  5-C ,  6-H ) :   0.9411 
B(  5-C ,  8-H ) :   0.9711 B(  5-C ,  9-H ) :   0.9719 B(  5-C , 10-O ) :  -0.1033 
B(  7-C , 10-O ) :  -0.1016 B(  7-C , 11-H ) :   0.9409 B(  7-C , 12-H ) :   0.9719 
B(  7-C , 13-H ) :   0.9715 

-------
TIMINGS
-------

Total SCF time: 0 days 0 hours 0 min 11 sec 

Total time                  ....      11.897 sec
Sum of individual times     ....      10.724 sec  ( 90.1%)

Fock matrix formation       ....       9.813 sec  ( 82.5%)
  Split-RI-J                ....       1.370 sec  ( 14.0% of F)
  XC integration            ....       5.244 sec  ( 53.4% of F)
    Basis function eval.    ....       1.583 sec  ( 30.2% of XC)
    Density eval.           ....       1.126 sec  ( 21.5% of XC)
    XC-Functional eval.     ....       0.250 sec  (  4.8% of XC)
    XC-Potential eval.      ....       1.155 sec  ( 22.0% of XC)
Diagonalization             ....       0.007 sec  (  0.1%)
Density matrix formation    ....       0.002 sec  (  0.0%)
Population analysis         ....       0.083 sec  (  0.7%)
Initial guess               ....       0.008 sec  (  0.1%)
Orbital Transformation      ....       0.000 sec  (  0.0%)
Orbital Orthonormalization  ....       0.006 sec  (  0.1%)
DIIS solution               ....       0.001 sec  (  0.0%)
SOSCF solution              ....       0.067 sec  (  0.6%)
Grid generation             ....       0.743 sec  (  6.2%)

Maximum memory used throughout the entire SCF-calculation: 68.5 MB

-------------------------   --------------------
FINAL SINGLE POINT ENERGY      -232.948720202498
-------------------------   --------------------

                                *** OPTIMIZATION RUN DONE ***

                            ***************************************
                            *     ORCA property calculations      *
                            ***************************************

                                    ---------------------
                                    Active property flags
                                    ---------------------
   (+) Dipole Moment


------------------------------------------------------------------------------
                       ORCA ELECTRIC PROPERTIES CALCULATION
------------------------------------------------------------------------------

Dipole Moment Calculation                       ... on
Quadrupole Moment Calculation                   ... off
Polarizability Calculation                      ... off
GBWName                                         ... inp.gbw
Electron density                                ... inp.scfp
The origin for moment calculation is the CENTER OF MASS  = (-5.544377, -5.805167  4.897194)

-------------
DIPOLE MOMENT
-------------
                                X             Y             Z
Electronic contribution:      2.78691      -1.02243      -0.02924
Nuclear contribution   :     -4.94867       1.81661       0.05653
                        -----------------------------------------
Total Dipole Moment    :     -2.16176       0.79419       0.02730
                        -----------------------------------------
Magnitude (a.u.)       :      2.30319
Magnitude (Debye)      :      5.85425



--------------------
Rotational spectrum 
--------------------
 
Rotational constants in cm-1:     0.159418     0.159387     0.151631 
Rotational constants in MHz :  4779.246235  4778.292231  4545.774412 

 Dipole components along the rotational axes: 
x,y,z [a.u.] :     0.012020    -0.011564    -2.303131 
x,y,z [Debye]:     0.030551    -0.029394    -5.854093 

 

Timings for individual modules:

Sum of individual times         ...      195.114 sec (=   3.252 min)
GTO integral calculation        ...        5.902 sec (=   0.098 min)   3.0 %
SCF iterations                  ...      132.576 sec (=   2.210 min)  67.9 %
SCF Gradient evaluation         ...       55.848 sec (=   0.931 min)  28.6 %
Geometry relaxation             ...        0.789 sec (=   0.013 min)   0.4 %
                             ****ORCA TERMINATED NORMALLY****
TOTAL RUN TIME: 0 days 0 hours 3 minutes 18 seconds 140 msec
