 Entering Gaussian System
 *********************************************
 Gaussian 98:
 frequency output generated by the xtb code
 *********************************************
                         Standard orientation:
 --------------------------------------------------------------------
  Center     Atomic     Atomic              Coordinates (Angstroms)
  Number     Number      Type              X           Y           Z
 --------------------------------------------------------------------
    1          6             0       -5.662363   -3.868242    0.526886
    2          6             0       -6.959366   -4.278754    1.202616
    3          1             0       -4.945357   -4.685858    0.572902
    4          1             0       -5.846436   -3.652096   -0.523784
    5          1             0       -5.220201   -2.984173    0.998136
    6          6             0       -7.646600   -5.550936    0.532768
    7          1             0       -6.786952   -4.518011    2.256514
    8          1             0       -7.687069   -3.461845    1.164502
    9          8             0       -7.095179   -6.016509   -0.472066
   10          8             0       -8.677650   -5.932086    1.106223
 --------------------------------------------------------------------
     1 basis functions        1 primitive gaussians
     1 alpha electrons        1 beta electrons
 
 Harmonic frequencies (cm**-1), IR intensities (km*mol⁻¹),
 Raman scattering activities (A**4/amu), Raman depolarization ratios,
 reduced masses (AMU), force constants (mDyne/A) and normal coordinates:
                      1                      2                      3
                        a                      a                      a 
 Frequencies --   -41.6120               147.7008               226.7107
 Red. masses --     8.0299                 3.1869                11.1781
 Frc consts  --     0.0000                 0.0000                 0.0000
 IR Inten    --     0.3816                 0.7941                 2.2172
 Raman Activ --     0.0000                 0.0000                 0.0000
 Depolar     --     0.0000                 0.0000                 0.0000
 Atom AN      X      Y      Z        X      Y      Z        X      Y      Z
   1   6     0.17  -0.20   0.21     0.06  -0.08   0.08    -0.18  -0.44  -0.29
   2   6    -0.18   0.21  -0.21    -0.17   0.20  -0.20    -0.10   0.12   0.19
   3   1     0.08  -0.02   0.37    -0.22  -0.25  -0.33    -0.14  -0.20  -0.09
   4   1     0.21  -0.32  -0.02     0.04   0.45   0.12    -0.14  -0.20  -0.08
   5   1    -0.06   0.07  -0.08     0.29  -0.33   0.35     0.09  -0.13  -0.20
   6   6    -0.02   0.03  -0.03    -0.02   0.03  -0.03    -0.00   0.13   0.13
   7   1    -0.21   0.19  -0.01    -0.13   0.11  -0.03     0.01   0.07   0.05
   8   1    -0.02   0.08  -0.27    -0.03   0.07  -0.16     0.01   0.07   0.04
   9   8    -0.20   0.21  -0.21     0.00  -0.02   0.01     0.32   0.44   0.18
  10   8     0.23  -0.24   0.24     0.12  -0.13   0.13    -0.03  -0.18  -0.14
                      4                      5                      6
                        a                      a                      a 
 Frequencies --   482.9657               574.6790               612.1561
 Red. masses --    12.7513                 7.9371                12.1165
 Frc consts  --     0.0000                 0.0000                 0.0000
 IR Inten    --     1.2320                15.8713                 4.3851
 Raman Activ --     0.0000                 0.0000                 0.0000
 Depolar     --     0.0000                 0.0000                 0.0000
 Atom AN      X      Y      Z        X      Y      Z        X      Y      Z
   1   6    -0.38  -0.22   0.11    -0.04   0.01  -0.03     0.03  -0.04  -0.06
   2   6    -0.24  -0.13   0.07     0.07  -0.18   0.05    -0.07  -0.43  -0.40
   3   1    -0.14  -0.09   0.03     0.04   0.04  -0.11     0.11   0.08   0.01
   4   1    -0.14  -0.10   0.03    -0.10   0.06   0.02     0.13   0.08  -0.02
   5   1    -0.05  -0.06  -0.02    -0.03   0.00   0.01    -0.18  -0.00   0.15
   6   6     0.23   0.07  -0.19     0.33  -0.39   0.37    -0.21  -0.05  -0.03
   7   1    -0.11  -0.12   0.01    -0.13   0.37   0.13     0.01  -0.16  -0.13
   8   1    -0.12  -0.08   0.04    -0.10  -0.17  -0.42     0.00  -0.09  -0.04
   9   8     0.12  -0.14  -0.23    -0.08   0.21  -0.14     0.38   0.37   0.09
  10   8     0.35   0.50   0.21    -0.15   0.20  -0.10    -0.18   0.10   0.34
                      7                      8                      9
                        a                      a                      a 
 Frequencies --   798.8265               818.5761              1012.9157
 Red. masses --    12.3050                 5.1741                 4.0826
 Frc consts  --     0.0000                 0.0000                 0.0000
 IR Inten    --   186.7136                39.3131                 0.9115
 Raman Activ --     0.0000                 0.0000                 0.0000
 Depolar     --     0.0000                 0.0000                 0.0000
 Atom AN      X      Y      Z        X      Y      Z        X      Y      Z
   1   6     0.10   0.11   0.03     0.06  -0.07   0.07     0.28   0.30   0.06
   2   6     0.05   0.28   0.24     0.15  -0.18   0.18    -0.14  -0.20  -0.09
   3   1    -0.06  -0.05  -0.01     0.23   0.16  -0.27    -0.16  -0.14  -0.05
   4   1    -0.07  -0.06   0.00    -0.38   0.02   0.09    -0.15  -0.18  -0.00
   5   1     0.21   0.03  -0.15    -0.08   0.09  -0.09     0.46   0.06  -0.33
   6   6    -0.26  -0.50  -0.26    -0.26   0.29  -0.28     0.03   0.08   0.06
   7   1     0.01   0.07   0.06    -0.33   0.14   0.14    -0.28  -0.29  -0.04
   8   1     0.01   0.07   0.05     0.16   0.05  -0.35    -0.26  -0.26  -0.04
   9   8     0.32  -0.00  -0.30     0.07  -0.08   0.08    -0.05   0.07   0.12
  10   8    -0.24   0.08   0.31     0.07  -0.07   0.07     0.00  -0.02  -0.03
                     10                     11                     12
                        a                      a                      a 
 Frequencies --  1017.3702              1103.8457              1238.9946
 Red. masses --     4.5868                 9.2308                 3.3975
 Frc consts  --     0.0000                 0.0000                 0.0000
 IR Inten    --    11.3720                 5.7382                 5.3178
 Raman Activ --     0.0000                 0.0000                 0.0000
 Depolar     --     0.0000                 0.0000                 0.0000
 Atom AN      X      Y      Z        X      Y      Z        X      Y      Z
   1   6    -0.10   0.13  -0.12    -0.39   0.04   0.37     0.19  -0.22   0.23
   2   6     0.18  -0.20   0.20     0.53   0.05  -0.40    -0.14   0.16  -0.17
   3   1    -0.22  -0.13   0.21    -0.25  -0.13   0.06     0.23   0.10  -0.22
   4   1     0.30   0.00  -0.09    -0.25  -0.14   0.09    -0.30  -0.01   0.12
   5   1     0.08  -0.08   0.07     0.10   0.00  -0.09    -0.07   0.08  -0.08
   6   6    -0.21   0.24  -0.23    -0.04  -0.02   0.01    -0.04   0.04  -0.04
   7   1     0.23   0.38   0.12     0.14   0.01  -0.11     0.47   0.22  -0.08
   8   1    -0.28  -0.35  -0.17     0.15   0.02  -0.10    -0.41  -0.29   0.15
   9   8     0.04  -0.05   0.04    -0.01   0.05   0.06     0.00  -0.00   0.01
  10   8     0.05  -0.04   0.04    -0.04  -0.05  -0.01     0.01  -0.00   0.00
                     13                     14                     15
                        a                      a                      a 
 Frequencies --  1276.6148              1313.6057              1396.5902
 Red. masses --     5.0954                14.0955                 3.3370
 Frc consts  --     0.0000                 0.0000                 0.0000
 IR Inten    --     8.0527               355.4677                 6.8231
 Raman Activ --     0.0000                 0.0000                 0.0000
 Depolar     --     0.0000                 0.0000                 0.0000
 Atom AN      X      Y      Z        X      Y      Z        X      Y      Z
   1   6    -0.08  -0.18  -0.11     0.05   0.02  -0.02     0.36   0.13  -0.18
   2   6     0.37   0.40   0.08     0.05   0.04  -0.01     0.01  -0.01  -0.01
   3   1     0.09   0.06   0.04    -0.06  -0.05   0.02    -0.34  -0.29   0.21
   4   1     0.06   0.10  -0.01    -0.08  -0.04   0.01    -0.48  -0.14   0.05
   5   1    -0.19  -0.03   0.13    -0.07  -0.00   0.06    -0.40   0.01   0.35
   6   6    -0.04  -0.07  -0.04     0.28   0.48   0.24    -0.06  -0.09  -0.03
   7   1    -0.31  -0.42  -0.05    -0.04  -0.03  -0.00    -0.05   0.06   0.03
   8   1    -0.37  -0.34  -0.13    -0.04  -0.04   0.01    -0.01   0.01   0.08
   9   8    -0.02   0.04   0.07     0.22  -0.23  -0.44    -0.03   0.03   0.06
  10   8    -0.02  -0.02  -0.00    -0.47  -0.20   0.23     0.08   0.04  -0.04
                     16                     17                     18
                        a                      a                      a 
 Frequencies --  1485.8378              1498.6051              1515.1491
 Red. masses --     2.0529                 1.5482                 1.6020
 Frc consts  --     0.0000                 0.0000                 0.0000
 IR Inten    --     2.1349                 1.0374                 1.7236
 Raman Activ --     0.0000                 0.0000                 0.0000
 Depolar     --     0.0000                 0.0000                 0.0000
 Atom AN      X      Y      Z        X      Y      Z        X      Y      Z
   1   6    -0.05  -0.04   0.01    -0.12   0.13  -0.13    -0.00  -0.16  -0.16
   2   6     0.20  -0.06  -0.22    -0.02   0.02  -0.03    -0.01  -0.04  -0.03
   3   1     0.05   0.03  -0.05     0.32   0.30   0.13     0.09   0.11   0.64
   4   1     0.08   0.01  -0.01    -0.22  -0.41  -0.05    -0.32   0.54   0.16
   5   1     0.01  -0.00  -0.03     0.37  -0.42   0.45     0.24  -0.03  -0.19
   6   6    -0.01  -0.01  -0.00    -0.00  -0.00   0.00     0.02   0.02  -0.00
   7   1    -0.50   0.40   0.17     0.02   0.01  -0.01     0.00   0.03   0.00
   8   1    -0.10  -0.06   0.66    -0.03  -0.01   0.02     0.02   0.01   0.02
   9   8     0.00   0.00   0.00     0.00  -0.00   0.00     0.00   0.00  -0.00
  10   8     0.00  -0.00  -0.00     0.00   0.00  -0.00    -0.02  -0.01   0.01
                     19                     20                     21
                        a                      a                      a 
 Frequencies --  1777.9593              2918.4728              2927.2518
 Red. masses --    13.1501                 1.7148                 1.9769
 Frc consts  --     0.0000                 0.0000                 0.0000
 IR Inten    --   684.6966               138.3643               107.0468
 Raman Activ --     0.0000                 0.0000                 0.0000
 Depolar     --     0.0000                 0.0000                 0.0000
 Atom AN      X      Y      Z        X      Y      Z        X      Y      Z
   1   6    -0.00   0.00   0.00    -0.08  -0.20  -0.12    -0.01  -0.01  -0.02
   2   6     0.02   0.00  -0.02    -0.03   0.02   0.02     0.16  -0.18   0.17
   3   1     0.01   0.01   0.01    -0.05   0.00  -0.03     0.04  -0.04  -0.00
   4   1     0.01   0.01   0.01    -0.01  -0.05   0.02     0.00  -0.01   0.05
   5   1     0.02   0.00  -0.01     0.36   0.76   0.42     0.03   0.06   0.03
   6   6    -0.59   0.04   0.60     0.00   0.00   0.00     0.00  -0.00   0.00
   7   1    -0.02  -0.04  -0.00    -0.02   0.03  -0.09    -0.08   0.13  -0.60
   8   1    -0.03  -0.02  -0.01     0.12  -0.13   0.02    -0.48   0.53  -0.01
   9   8     0.18  -0.14  -0.32     0.00  -0.00  -0.00    -0.00   0.00  -0.00
  10   8     0.31   0.11  -0.18    -0.00  -0.00   0.00    -0.00   0.00  -0.00
                     22                     23                     24
                        a                      a                      a 
 Frequencies --  2947.1291              3016.8061              3027.1154
 Red. masses --     1.4846                 1.9367                 1.4475
 Frc consts  --     0.0000                 0.0000                 0.0000
 IR Inten    --    92.5863                71.9827                39.3496
 Raman Activ --     0.0000                 0.0000                 0.0000
 Depolar     --     0.0000                 0.0000                 0.0000
 Atom AN      X      Y      Z        X      Y      Z        X      Y      Z
   1   6    -0.02  -0.04  -0.02    -0.16   0.18  -0.17     0.07  -0.08  -0.17
   2   6     0.08  -0.07  -0.17    -0.02   0.02  -0.02     0.01  -0.00  -0.01
   3   1     0.01  -0.01  -0.00     0.47  -0.56   0.01    -0.40   0.48  -0.06
   4   1    -0.00  -0.00  -0.03     0.10  -0.10   0.59     0.15  -0.16   0.71
   5   1     0.07   0.15   0.09    -0.02   0.03  -0.02    -0.01  -0.05  -0.05
   6   6     0.01  -0.00  -0.01    -0.00   0.00  -0.00     0.00  -0.00  -0.00
   7   1     0.13  -0.20   0.69     0.01  -0.01   0.05     0.01  -0.01   0.02
   8   1    -0.42   0.46  -0.07     0.03  -0.04   0.00    -0.01   0.01  -0.00
   9   8    -0.00  -0.00   0.00     0.00  -0.00   0.00    -0.00   0.00   0.00
  10   8    -0.00  -0.00   0.00     0.00  -0.00   0.00    -0.00   0.00   0.00
