10
 energy: -17.330015471662 gnorm: 0.000261154818 xtb: 6.7.1 (edcfbbe)
C           -5.66236253817441       -3.86824163359935        0.52688552854629
C           -6.95936541357522       -4.27875321201943        1.20261594040893
H           -4.94535670428295       -4.68585770587424        0.57290183914098
H           -5.84643504976337       -3.65209520515794       -0.52378423193929
H           -5.22020062604994       -2.98417226280335        0.99813605479851
C           -7.64659881862117       -5.55093508233384        0.53276825432260
H           -6.78695159077466       -4.51801055007468        2.25651384835915
H           -7.68706854036884       -3.46184457138015        1.16450158649437
O           -7.09517836759206       -6.01650826245166       -0.47206575305823
O           -8.67764899429265       -5.93208532614649        1.10622260632771
