10
 energy: -17.327285390474 gnorm: 0.054732805739 xtb: 6.7.1 (edcfbbe)
C           -5.66951600000000       -3.87792600000000        0.52174700000000
C           -6.96793500000000       -4.30864100000000        1.17587800000000
H           -4.92336400000000       -4.67818000000000        0.56374400000000
H           -5.82534700000000       -3.61491200000000       -0.52958000000000
H           -5.25782900000000       -3.00222300000000        1.03309800000000
C           -7.64211000000000       -5.53282600000000        0.55045800000000
H           -6.77866800000000       -4.52950200000000        2.23308500000000
H           -7.68099200000000       -3.47653000000000        1.13834600000000
O           -7.08777000000000       -6.02381400000000       -0.47069200000000
O           -8.69342600000000       -5.90431100000000        1.14830100000000
10
 energy: -17.329484066490 gnorm: 0.023355972271 xtb: 6.7.1 (edcfbbe)
C           -5.66365798074467       -3.86966605473864        0.52499683692384
C           -6.96420572516678       -4.29531485036289        1.18771307333205
H           -4.93836821096189       -4.68258676430767        0.56033174676717
H           -5.83503524754740       -3.63142356996871       -0.52477691445144
H           -5.23317794302953       -2.99218777063712        1.01972732110580
C           -7.64096063764737       -5.54111420205458        0.54305665655532
H           -6.78683431178986       -4.52049108864272        2.24582297627462
H           -7.68548997555147       -3.47032220328344        1.15304873052458
O           -7.09739532174187       -6.02750117618117       -0.46650807984007
O           -8.68183164581914       -5.91825731982308        1.12097265280812
10
 energy: -17.329926042812 gnorm: 0.007909694606 xtb: 6.7.1 (edcfbbe)
C           -5.66192755866283       -3.86821643180408        0.52541371138570
C           -6.96208617419000       -4.28150133129423        1.19821830281643
H           -4.94874469950716       -4.68934013310021        0.56243267892032
H           -5.84539181414127       -3.64072466918927       -0.52274534972352
H           -5.21877702287352       -2.99088082696057        1.00788700461934
C           -7.64397223836631       -5.54319861145947        0.53404201766815
H           -6.79009027036472       -4.51637271927211        2.25449202954485
H           -7.68821207888736       -3.46155336150575        1.16194726772817
O           -7.09419148969027       -6.02547153606167       -0.46386303759779
O           -8.67356365331657       -5.93160537935263        1.10656037463835
10
 energy: -17.329887229344 gnorm: 0.008259688406 xtb: 6.7.1 (edcfbbe)
C           -5.66193502160354       -3.86785045694474        0.52611367150505
C           -6.95865573123160       -4.27902552319206        1.20517917175101
H           -4.94877353728758       -4.68796733672330        0.56823135989795
H           -5.85064884643338       -3.65003821757693       -0.52305230449038
H           -5.21710316215700       -2.98585026936148        0.99816718470514
C           -7.63643674415172       -5.55676484443859        0.54153499893042
H           -6.78628184399674       -4.51280514841614        2.26060221961100
H           -7.68943461906441       -3.46413235314064        1.16396747832876
O           -7.09649540589403       -6.01616374285689       -0.47129103862884
O           -8.68119208818001       -5.92826710734923        1.09493225838990
10
 energy: -17.330008654384 gnorm: 0.001776320959 xtb: 6.7.1 (edcfbbe)
C           -5.66253578740758       -3.86811681311670        0.52637968120572
C           -6.96014270029705       -4.27748117742553        1.20338110873213
H           -4.95001023625309       -4.68930001766689        0.56771552900533
H           -5.84928233959047       -3.64793825520621       -0.52259059431698
H           -5.21595532389941       -2.98773598468788        0.99977797356386
C           -7.64422962859461       -5.54999298493801        0.53406854408985
H           -6.78776879826903       -4.51523524884337        2.25775558670366
H           -7.68796764197917       -3.46054210169255        1.16431448232737
O           -7.09153926011226       -6.01888150782852       -0.46869029596110
O           -8.67752528359732       -5.93364090859436        1.10227298465015
10
 energy: -17.330014479454 gnorm: 0.000564865152 xtb: 6.7.1 (edcfbbe)
C           -5.66270022729752       -3.86853996371880        0.52647384137009
C           -6.95981590772755       -4.27807172116267        1.20277185037696
H           -4.94731766569664       -4.68756294049564        0.57011829114822
H           -5.84743461340453       -3.64955988530932       -0.52336529395961
H           -5.21886291252746       -2.98653053668169        0.99943667805247
C           -7.64593917606329       -5.55028535354222        0.53299907910689
H           -6.78731267003786       -4.51696452636715        2.25671551301079
H           -7.68748869930124       -3.46120604915547        1.16424333645624
O           -7.09261029956751       -6.01770967393076       -0.47028794711041
O           -8.67747482837639       -5.93243434963628        1.10527965154836
10
 energy: -17.330015471631 gnorm: 0.000262027529 xtb: 6.7.1 (edcfbbe)
C           -5.66234412317392       -3.86827220115558        0.52685901183201
C           -6.95934720785956       -4.27879175002473        1.20258417981318
H           -4.94533416889614       -4.68588459950223        0.57287639826111
H           -5.84641409896995       -3.65212490275309       -0.52381101393879
H           -5.22018848500926       -2.98420133770871        0.99811262449690
C           -7.64657161355368       -5.55097604955651        0.53273187447555
H           -6.78693581111161       -4.51805002471958        2.25648227201626
H           -7.68705447891821       -3.46188685311603        1.16446871148876
O           -7.09514521726764       -6.01654458867369       -0.47210102064208
O           -8.67762179524004       -5.93213269278983        1.10618196219711
