9
 energy: -14.018301086320 gnorm: 0.068487339717 xtb: 6.7.1 (edcfbbe)
C           -4.00244000000000        0.63867800000000        0.12827500000000
S           -2.58374000000000        1.72090500000000        0.41430400000000
H           -3.96281000000000        0.23010100000000       -0.88451200000000
H           -3.99649300000000       -0.17233000000000        0.86025000000000
H           -4.91708200000000        1.22463200000000        0.24647500000000
C           -1.34828900000000        0.48179000000000        0.01168500000000
H           -1.41310600000000       -0.53938300000000        0.41348200000000
O           -2.49889900000000        2.68697800000000       -0.72884300000000
H           -0.50233900000000        0.74089400000000       -0.64137800000000
9
 energy: -14.023181154695 gnorm: 0.041518818457 xtb: 6.7.1 (edcfbbe)
C           -4.01602247657426        0.63440014608063        0.11849816479017
S           -2.55074849780830        1.69520372922588        0.39078238354367
H           -4.00482725996205        0.23981630661236       -0.89501287287061
H           -3.99509676999838       -0.17504098135391        0.84368599844021
H           -4.91154875258388        1.23617531418779        0.26585872742365
C           -1.36059329905952        0.45805200781011       -0.03146564395048
H           -1.37653133173582       -0.50980593710597        0.45357167552895
O           -2.51016531355516        2.68813685307972       -0.71274210346725
H           -0.49966429872262        0.74532756146339       -0.61343832943829
9
 energy: -14.026165238370 gnorm: 0.014540599557 xtb: 6.7.1 (edcfbbe)
C           -4.04936331156942        0.62552288999891        0.10959203355457
S           -2.51095524776641        1.64862019269456        0.35165434020353
H           -4.06274815416256        0.25476443105840       -0.90793015278848
H           -4.01148886341802       -0.18722078817833        0.82393033877378
H           -4.91315473959075        1.25877368775199        0.29444288654682
C           -1.37041988465385        0.43315757687918       -0.09465608271119
H           -1.31943425317102       -0.46282615068402        0.51776764259679
O           -2.51179671630817        2.68705318988946       -0.68451457276579
H           -0.47583682935979        0.75441997058986       -0.59054843341002
9
 energy: -14.026413948111 gnorm: 0.005581980287 xtb: 6.7.1 (edcfbbe)
C           -4.06236687519154        0.62095279094490        0.10858202604967
S           -2.50455530792066        1.63303800742941        0.33869959186920
H           -4.08790376513957        0.25312947499655       -0.90961308938056
H           -4.02615440965091       -0.19153865986536        0.82255411859635
H           -4.91119503177894        1.26884661410147        0.30310233350474
C           -1.36034207831791        0.43095386319807       -0.10356335688303
H           -1.30761501892514       -0.44254224454745        0.51973379549946
O           -2.50938538794838        2.68309581291574       -0.67807933402729
H           -0.45568012512695        0.75632934082666       -0.58167808522853
9
 energy: -14.026502057826 gnorm: 0.010026995888 xtb: 6.7.1 (edcfbbe)
C           -4.06637811351902        0.61861709997179        0.10437752790052
S           -2.50268499758107        1.62513476752162        0.33706203935665
H           -4.10113573369233        0.26023260247519       -0.91774651414796
H           -4.03460475078529       -0.20040558220867        0.81147203876679
H           -4.90467295844464        1.27548134969129        0.30825185375672
C           -1.36098056130966        0.42353727026472       -0.11592242917693
H           -1.28436741543123       -0.42427613020734        0.55427694970532
O           -2.51174473477839        2.68734242946587       -0.66481632804877
H           -0.45862873445836        0.74660119302553       -0.59721713811232
9
 energy: -14.026584250286 gnorm: 0.005885007676 xtb: 6.7.1 (edcfbbe)
C           -4.06361013928500        0.61840003561637        0.10244724720285
S           -2.50565413193931        1.62650751435445        0.34222043396773
H           -4.09792603292606        0.26071806459180       -0.91965078906114
H           -4.03641923830676       -0.20213967696692        0.80833532162983
H           -4.90007970181643        1.27587943272241        0.30485157066758
C           -1.35853434326689        0.42245025602804       -0.10934428650488
H           -1.28182009284188       -0.41749630552882        0.56234213258799
O           -2.51287477075779        2.68815372530675       -0.65954557263911
H           -0.46827954885986        0.73979195387591       -0.61191805785084
9
 energy: -14.026641074503 gnorm: 0.003039319479 xtb: 6.7.1 (edcfbbe)
C           -4.06457842682109        0.62024972811770        0.09974102004520
S           -2.50829630754990        1.62344429901034        0.34699200482735
H           -4.09998898362012        0.26641637664380       -0.92344316330758
H           -4.04045217528561       -0.20404211300299        0.80160261156400
H           -4.89983264696585        1.27854030228917        0.30555986777057
C           -1.35748683945343        0.41633488481952       -0.10673542022473
H           -1.26641488672367       -0.40896377426601        0.57708518543879
O           -2.51446363849486        2.68525610829113       -0.65425868871330
H           -0.47368409508547        0.73502918809735       -0.62680541740029
9
 energy: -14.026683936695 gnorm: 0.003586148669 xtb: 6.7.1 (edcfbbe)
C           -4.06596729398129        0.62248871741734        0.09697696074765
S           -2.50876983466215        1.61910888306585        0.35250281733225
H           -4.09980142477918        0.27714011547948       -0.92897006549025
H           -4.04458779843502       -0.20817987804896        0.79159706746627
H           -4.90174871291216        1.27971370677538        0.30658385786583
C           -1.35780044756629        0.41029406102126       -0.10191539807857
H           -1.24458902644548       -0.39792018937056        0.59876018438506
O           -2.51301214848983        2.68107550373454       -0.64804788163930
H           -0.48892131272860        0.72854407992566       -0.64774954258894
9
 energy: -14.026722708183 gnorm: 0.002834450447 xtb: 6.7.1 (edcfbbe)
C           -4.06840540872406        0.62512265881969        0.09493300337482
S           -2.50860863835124        1.61444713891268        0.35858227683881
H           -4.09934927199946        0.29203395340455       -0.93543655205963
H           -4.04912185575232       -0.21380514011611        0.77974120841203
H           -4.90644972940618        1.27942147702490        0.30961088375290
C           -1.36022497360236        0.40451987003612       -0.09464689148842
H           -1.21715923721255       -0.38585010299222        0.62050815787361
O           -2.50763348844712        2.67426316833719       -0.64446022741830
H           -0.50824539650471        0.72211197657321       -0.66909385928581
9
 energy: -14.026738150406 gnorm: 0.001718163534 xtb: 6.7.1 (edcfbbe)
C           -4.06987781425467        0.62564965059265        0.09444312385727
S           -2.50824072646519        1.61324508621988        0.36108164987852
H           -4.09991432235570        0.29998820543861       -0.93860794524973
H           -4.05028099195016       -0.21781330453068        0.77341845520864
H           -4.90876386352282        1.27801824086806        0.31272495859544
C           -1.36207605084612        0.40363422172982       -0.09024212222561
H           -1.20503843092846       -0.37963735115675        0.62890836891135
O           -2.50290190204298        2.67102723441434       -0.64488338206001
H           -0.51810389763389        0.71815301642407       -0.67710510691586
9
 energy: -14.026745101662 gnorm: 0.001066886499 xtb: 6.7.1 (edcfbbe)
C           -4.07137023112621        0.62524514488403        0.09347805253287
S           -2.50835329807099        1.61348121255301        0.36307112978187
H           -4.10305797555293        0.30846573825039       -0.94255106324158
H           -4.04938821385966       -0.22358450402013        0.76536730515817
H           -4.90934967719563        1.27596265738505        0.31843154720875
C           -1.36308137215443        0.40410513658411       -0.08547525239987
H           -1.19598719943161       -0.37292512688654        0.63815314606615
O           -2.49836841171038        2.66902806174195       -0.64644483645311
H           -0.52624162089816        0.71248667950813       -0.68429202865324
9
 energy: -14.026748158510 gnorm: 0.000677561315 xtb: 6.7.1 (edcfbbe)
C           -4.07147569622633        0.62500281820578        0.09293813088579
S           -2.50869855331120        1.61500497499443        0.36258602042416
H           -4.10514880130866        0.31127557313334       -0.94370128956832
H           -4.04625726289005       -0.22554343411497        0.76236471114076
H           -4.90898344270034        1.27437793557862        0.32232901990621
C           -1.36243784230968        0.40494352046807       -0.08347065643396
H           -1.19800931582771       -0.37264447746726        0.63923888427485
O           -2.49836822195630        2.66896245657730       -0.64877884570040
H           -0.52581886346972        0.71088563262468       -0.68376797492909
