 Entering Gaussian System
 *********************************************
 Gaussian 98:
 frequency output generated by the xtb code
 *********************************************
                         Standard orientation:
 --------------------------------------------------------------------
  Center     Atomic     Atomic              Coordinates (Angstroms)
  Number     Number      Type              X           Y           Z
 --------------------------------------------------------------------
    1          6             0       -5.658030   -3.868127    0.522484
    2          6             0       -6.955228   -4.279556    1.197410
    3          1             0       -4.945704   -4.688809    0.564277
    4          1             0       -5.844915   -3.646245   -0.525653
    5          1             0       -5.233521   -2.993454    1.009538
    6          6             0       -7.627697   -5.520307    0.548718
    7          1             0       -6.794028   -4.527112    2.249313
    8          1             0       -7.692716   -3.474017    1.157630
    9          8             0       -7.101476   -6.024074   -0.463753
   10          8             0       -8.673858   -5.926807    1.104731
 --------------------------------------------------------------------
     1 basis functions        1 primitive gaussians
     1 alpha electrons        1 beta electrons
 
 Harmonic frequencies (cm**-1), IR intensities (km*mol⁻¹),
 Raman scattering activities (A**4/amu), Raman depolarization ratios,
 reduced masses (AMU), force constants (mDyne/A) and normal coordinates:
                      1                      2                      3
                        a                      a                      a 
 Frequencies --   -21.2265               160.9554               237.8769
 Red. masses --     8.4912                 2.7229                11.2489
 Frc consts  --     0.0000                 0.0000                 0.0000
 IR Inten    --     1.1378                 2.0445                 4.9069
 Raman Activ --     0.0000                 0.0000                 0.0000
 Depolar     --     0.0000                 0.0000                 0.0000
 Atom AN      X      Y      Z        X      Y      Z        X      Y      Z
   1   6     0.17  -0.21   0.22     0.05  -0.06   0.06    -0.17  -0.43  -0.29
   2   6    -0.19   0.22  -0.23    -0.16   0.18  -0.18    -0.10   0.12   0.18
   3   1     0.06  -0.04   0.35    -0.22  -0.24  -0.37    -0.13  -0.20  -0.09
   4   1     0.21  -0.28  -0.01     0.02   0.47   0.12    -0.13  -0.21  -0.09
   5   1    -0.04   0.05  -0.05     0.29  -0.34   0.36     0.09  -0.13  -0.21
   6   6    -0.03   0.03  -0.03    -0.02   0.03  -0.03    -0.02   0.13   0.14
   7   1    -0.22   0.20  -0.01    -0.12   0.10  -0.03     0.01   0.07   0.05
   8   1    -0.02   0.08  -0.29    -0.03   0.07  -0.14     0.01   0.07   0.04
   9   8    -0.20   0.21  -0.21     0.02  -0.03   0.03     0.32   0.45   0.18
  10   8     0.24  -0.25   0.25     0.10  -0.11   0.11    -0.04  -0.19  -0.14
                      4                      5                      6
                        a                      a                      a 
 Frequencies --   492.6151               566.2596               619.7433
 Red. masses --    12.7084                 8.3057                12.7612
 Frc consts  --     0.0000                 0.0000                 0.0000
 IR Inten    --    11.1385                24.4769                31.6255
 Raman Activ --     0.0000                 0.0000                 0.0000
 Depolar     --     0.0000                 0.0000                 0.0000
 Atom AN      X      Y      Z        X      Y      Z        X      Y      Z
   1   6    -0.38  -0.22   0.11    -0.05   0.01  -0.03     0.03  -0.03  -0.05
   2   6    -0.23  -0.09   0.10     0.06  -0.13   0.07    -0.05  -0.39  -0.36
   3   1    -0.15  -0.10   0.03     0.02   0.03  -0.10     0.10   0.08   0.01
   4   1    -0.15  -0.11   0.03    -0.10   0.05   0.02     0.11   0.08  -0.01
   5   1    -0.04  -0.06  -0.03    -0.02   0.00   0.00    -0.17  -0.01   0.13
   6   6     0.22   0.04  -0.21     0.36  -0.41   0.38    -0.23  -0.15  -0.05
   7   1    -0.11  -0.11   0.01    -0.14   0.36   0.13     0.00  -0.13  -0.11
   8   1    -0.11  -0.07   0.06    -0.10  -0.15  -0.40     0.00  -0.09  -0.06
   9   8     0.13  -0.14  -0.24    -0.09   0.18  -0.16     0.42   0.37   0.03
  10   8     0.35   0.50   0.22    -0.14   0.20  -0.12    -0.21   0.14   0.38
                      7                      8                      9
                        a                      a                      a 
 Frequencies --   818.3926               843.9483              1029.7520
 Red. masses --     4.6919                11.5094                 4.5968
 Frc consts  --     0.0000                 0.0000                 0.0000
 IR Inten    --    40.3652               100.1898                 3.6849
 Raman Activ --     0.0000                 0.0000                 0.0000
 Depolar     --     0.0000                 0.0000                 0.0000
 Atom AN      X      Y      Z        X      Y      Z        X      Y      Z
   1   6    -0.05   0.06  -0.07     0.15   0.16   0.03     0.27   0.29   0.05
   2   6    -0.15   0.18  -0.19     0.03   0.32   0.28    -0.15  -0.25  -0.11
   3   1    -0.23  -0.17   0.28    -0.08  -0.07  -0.02    -0.16  -0.13  -0.04
   4   1     0.38  -0.01  -0.09    -0.08  -0.08   0.00    -0.11  -0.17  -0.01
   5   1     0.08  -0.09   0.09     0.28   0.04  -0.20     0.44   0.06  -0.30
   6   6     0.24  -0.27   0.26    -0.22  -0.42  -0.22     0.03   0.09   0.04
   7   1     0.36  -0.13  -0.15     0.00   0.07   0.07    -0.27  -0.27  -0.04
   8   1    -0.19  -0.07   0.36    -0.00   0.08   0.07    -0.28  -0.29  -0.04
   9   8    -0.06   0.08  -0.06     0.27  -0.07  -0.33    -0.07   0.09   0.17
  10   8    -0.06   0.06  -0.06    -0.27   0.02   0.27     0.05  -0.01  -0.04
                     10                     11                     12
                        a                      a                      a 
 Frequencies --  1046.4589              1112.0876              1230.1975
 Red. masses --     4.8124                 8.8687                 3.2692
 Frc consts  --     0.0000                 0.0000                 0.0000
 IR Inten    --     6.6721                 3.5462                 1.5552
 Raman Activ --     0.0000                 0.0000                 0.0000
 Depolar     --     0.0000                 0.0000                 0.0000
 Atom AN      X      Y      Z        X      Y      Z        X      Y      Z
   1   6    -0.12   0.12  -0.13    -0.38   0.06   0.38     0.19  -0.22   0.23
   2   6     0.20  -0.21   0.23     0.50   0.04  -0.39    -0.12   0.15  -0.15
   3   1    -0.21  -0.12   0.21    -0.26  -0.13   0.06     0.23   0.10  -0.22
   4   1     0.30   0.01  -0.09    -0.25  -0.16   0.09    -0.30   0.00   0.13
   5   1     0.06  -0.08   0.09     0.13   0.01  -0.10    -0.08   0.09  -0.09
   6   6    -0.21   0.23  -0.23    -0.04  -0.02   0.01    -0.05   0.05  -0.05
   7   1     0.21   0.40   0.14     0.16   0.02  -0.10     0.46   0.24  -0.06
   8   1    -0.25  -0.33  -0.20     0.16   0.04  -0.10    -0.41  -0.31   0.12
   9   8     0.04  -0.05   0.03    -0.00   0.04   0.05     0.00  -0.01   0.01
  10   8     0.04  -0.04   0.04    -0.06  -0.05  -0.00     0.01  -0.01   0.00
                     13                     14                     15
                        a                      a                      a 
 Frequencies --  1289.5600              1335.6166              1394.2207
 Red. masses --     5.7968                13.4639                 3.2814
 Frc consts  --     0.0000                 0.0000                 0.0000
 IR Inten    --    27.2509               447.6286                 8.7867
 Raman Activ --     0.0000                 0.0000                 0.0000
 Depolar     --     0.0000                 0.0000                 0.0000
 Atom AN      X      Y      Z        X      Y      Z        X      Y      Z
   1   6     0.05   0.14   0.10     0.06   0.07   0.02     0.37   0.14  -0.17
   2   6    -0.39  -0.39  -0.05    -0.11  -0.15  -0.06    -0.01  -0.03  -0.02
   3   1    -0.03  -0.01  -0.06    -0.07  -0.05  -0.02    -0.34  -0.30   0.19
   4   1     0.02  -0.07  -0.00    -0.06  -0.07   0.00    -0.47  -0.17   0.04
   5   1     0.22   0.03  -0.15     0.01   0.01   0.00    -0.39   0.02   0.35
   6   6    -0.08  -0.09  -0.02     0.32   0.53   0.25    -0.06  -0.08  -0.02
   7   1     0.32   0.39   0.04     0.04   0.10   0.01    -0.04   0.10   0.03
   8   1     0.36   0.33   0.09     0.07   0.06   0.05     0.02   0.03   0.11
   9   8    -0.04   0.03   0.07     0.18  -0.22  -0.39    -0.02   0.02   0.04
  10   8     0.19   0.09  -0.08    -0.41  -0.18   0.20     0.07   0.03  -0.03
                     16                     17                     18
                        a                      a                      a 
 Frequencies --  1466.8423              1479.9893              1506.2399
 Red. masses --     2.0665                 1.5087                 1.6066
 Frc consts  --     0.0000                 0.0000                 0.0000
 IR Inten    --     1.8460                 0.3079                 2.5661
 Raman Activ --     0.0000                 0.0000                 0.0000
 Depolar     --     0.0000                 0.0000                 0.0000
 Atom AN      X      Y      Z        X      Y      Z        X      Y      Z
   1   6    -0.07  -0.05   0.01    -0.11   0.12  -0.13    -0.01   0.15   0.16
   2   6     0.19  -0.06  -0.22    -0.02   0.03  -0.03     0.03   0.05   0.03
   3   1     0.06   0.05  -0.03     0.33   0.31   0.15    -0.07  -0.09  -0.65
   4   1     0.08   0.04  -0.01    -0.24  -0.40  -0.05     0.33  -0.54  -0.17
   5   1     0.03  -0.01  -0.05     0.37  -0.42   0.44    -0.22   0.01   0.19
   6   6    -0.01  -0.03  -0.02    -0.00   0.00  -0.00    -0.03  -0.02   0.01
   7   1    -0.49   0.42   0.17     0.03   0.02  -0.01    -0.02  -0.02   0.00
   8   1    -0.08  -0.05   0.66    -0.03  -0.01   0.02    -0.02  -0.02   0.00
   9   8    -0.00   0.01   0.01     0.00  -0.00   0.00    -0.00  -0.00  -0.00
  10   8     0.01  -0.00  -0.01    -0.00   0.00  -0.00     0.02   0.01  -0.01
                     19                     20                     21
                        a                      a                      a 
 Frequencies --  1651.8729              2946.6968              2965.2234
 Red. masses --    13.0901                 1.9674                 1.4813
 Frc consts  --     0.0000                 0.0000                 0.0000
 IR Inten    --   939.0853                90.2421                74.5492
 Raman Activ --     0.0000                 0.0000                 0.0000
 Depolar     --     0.0000                 0.0000                 0.0000
 Atom AN      X      Y      Z        X      Y      Z        X      Y      Z
   1   6    -0.00  -0.00  -0.00     0.01  -0.01   0.01     0.01   0.01   0.01
   2   6     0.04   0.01  -0.03    -0.16   0.18  -0.17     0.08  -0.07  -0.18
   3   1     0.01   0.01   0.02    -0.03   0.03   0.00     0.01  -0.01   0.00
   4   1    -0.00   0.02   0.01    -0.00   0.01  -0.04    -0.00   0.01  -0.02
   5   1     0.02   0.00  -0.02     0.00   0.00   0.00    -0.02  -0.05  -0.03
   6   6    -0.57   0.06   0.60    -0.00   0.01  -0.00     0.00  -0.00  -0.01
   7   1    -0.04  -0.05  -0.01     0.08  -0.12   0.59     0.13  -0.20   0.71
   8   1    -0.04  -0.04  -0.01     0.49  -0.54   0.01    -0.42   0.46  -0.06
   9   8     0.18  -0.16  -0.33     0.00  -0.00   0.00    -0.00  -0.00  -0.00
  10   8     0.30   0.11  -0.17     0.00  -0.00   0.00    -0.00  -0.00   0.00
                     22                     23                     24
                        a                      a                      a 
 Frequencies --  3015.3382              3026.7723              3038.9392
 Red. masses --     1.7726                 1.9396                 1.4187
 Frc consts  --     0.0000                 0.0000                 0.0000
 IR Inten    --    82.3076                78.2770                46.1390
 Raman Activ --     0.0000                 0.0000                 0.0000
 Depolar     --     0.0000                 0.0000                 0.0000
 Atom AN      X      Y      Z        X      Y      Z        X      Y      Z
   1   6    -0.08  -0.21  -0.13     0.15  -0.17   0.18    -0.08   0.08   0.16
   2   6     0.00  -0.01  -0.01     0.01  -0.01   0.02    -0.01   0.00   0.01
   3   1    -0.06   0.03  -0.03    -0.44   0.53  -0.01     0.43  -0.51   0.06
   4   1     0.00  -0.04   0.04    -0.11   0.11  -0.64    -0.15   0.16  -0.67
   5   1     0.36   0.77   0.44     0.02  -0.04   0.02     0.02   0.09   0.06
   6   6     0.00   0.00   0.00     0.00  -0.00   0.00    -0.00   0.00   0.00
   7   1     0.01  -0.01   0.05    -0.01   0.01  -0.04    -0.00   0.00  -0.01
   8   1    -0.03   0.04  -0.00    -0.03   0.03  -0.00     0.01  -0.01   0.00
   9   8    -0.00  -0.00  -0.00    -0.00   0.00  -0.00     0.00  -0.00  -0.00
  10   8    -0.00  -0.00   0.00     0.00   0.00  -0.00    -0.00  -0.00   0.00
