10
 energy: -17.436455902336 gnorm: 0.000213874885 xtb: 6.7.1 (edcfbbe)
C           -5.65802911693362       -3.86812690536250        0.52248358389216
C           -6.95522696376725       -4.27955510854633        1.19741017520839
H           -4.94570329466521       -4.68880843390339        0.56427671760802
H           -5.84491442046163       -3.64624512369814       -0.52565246800884
H           -5.23352018443898       -2.99345414485340        1.00953803380217
C           -7.62769609999178       -5.52030672606438        0.54871843585220
H           -6.79402759245128       -4.52711112802683        2.24931328907179
H           -7.69271577746409       -3.47401637593306        1.15763014496348
O           -7.10147569216276       -6.02407378499975       -0.46375336499721
O           -8.67385750115867       -5.92680608045335        1.10473112600888
