10
 energy: -17.434276824492 gnorm: 0.038495561890 xtb: 6.7.1 (edcfbbe)
C           -5.66951600000000       -3.87792600000000        0.52174700000000
C           -6.96793500000000       -4.30864100000000        1.17587800000000
H           -4.92336400000000       -4.67818000000000        0.56374400000000
H           -5.82534700000000       -3.61491200000000       -0.52958000000000
H           -5.25782900000000       -3.00222300000000        1.03309800000000
C           -7.64211000000000       -5.53282600000000        0.55045800000000
H           -6.77866800000000       -4.52950200000000        2.23308500000000
H           -7.68099200000000       -3.47653000000000        1.13834600000000
O           -7.08777000000000       -6.02381400000000       -0.47069200000000
O           -8.69342600000000       -5.90431100000000        1.14830100000000
10
 energy: -17.436180799178 gnorm: 0.012152375214 xtb: 6.7.1 (edcfbbe)
C           -5.65999952990196       -3.87003177622161        0.52156960658601
C           -6.95901665873432       -4.29191136855459        1.18688327427162
H           -4.93619463453506       -4.68372290407330        0.55814070324715
H           -5.83336817786475       -3.63160511707226       -0.52749665448653
H           -5.24278773255716       -2.99656236953892        1.02356120107922
C           -7.63339525255756       -5.52747604820364        0.54995617512082
H           -6.79210468830561       -4.52772120487570        2.24277336338755
H           -7.69024380297288       -3.47796303615868        1.15018482310807
O           -7.09933588034346       -6.02682528289946       -0.46385081849306
O           -8.68051064222723       -5.91504589240183        1.12266332617916
10
 energy: -17.436441827497 gnorm: 0.003365688725 xtb: 6.7.1 (edcfbbe)
C           -5.65719531999288       -3.86753047998772        0.52211249694795
C           -6.95545300737450       -4.28026960021780        1.19469873210911
H           -4.94607468142898       -4.68954377571783        0.56003806675433
H           -5.84315263547333       -3.64025001734545       -0.52509274358634
H           -5.23312290764683       -2.99590586459046        1.01497100621669
C           -7.63005855362126       -5.52048844630469        0.54647023766264
H           -6.79541334752112       -4.52634646142511        2.24794074582417
H           -7.69278123089470       -3.47364803368326        1.15594171397056
O           -7.10138461935897       -6.02855126835937       -0.46096188039195
O           -8.67232069668743       -5.92633105236830        1.10826662449285
10
 energy: -17.436412763351 gnorm: 0.004792176474 xtb: 6.7.1 (edcfbbe)
C           -5.65745826368341       -3.86762857531827        0.52234160013589
C           -6.95396686448074       -4.27981610432730        1.19847933920243
H           -4.94581697633377       -4.68856291659439        0.56334426334409
H           -5.84599318421956       -3.64602454460961       -0.52551177849217
H           -5.23312768516761       -2.99319240613086        1.00931031088518
C           -7.62279246918888       -5.52589575223151        0.55336726549609
H           -6.79336407100732       -4.52494274496304        2.25109123122731
H           -7.69392453807380       -3.47619114473665        1.15678931117003
O           -7.10388265143354       -6.02301121096854       -0.46521039096621
O           -8.67663029641137       -5.92359960011982        1.10038384799736
10
 energy: -17.436455174058 gnorm: 0.000751920584 xtb: 6.7.1 (edcfbbe)
C           -5.65786441412271       -3.86798723653813        0.52232201370532
C           -6.95527063265592       -4.27951604744308        1.19708028562573
H           -4.94630555001011       -4.68936061182983        0.56250268299919
H           -5.84480913005229       -3.64423141046912       -0.52538442447760
H           -5.23264171481230       -2.99452739626522        1.01080678662433
C           -7.62752095354584       -5.52109037905420        0.54879808427124
H           -6.79450317563509       -4.52643601783147        2.24938657733790
H           -7.69312225566291       -3.47408417409554        1.15699639838607
O           -7.10100156127600       -6.02504301096832       -0.46301126763808
O           -8.67391761222683       -5.92658871550509        1.10488786316590
10
 energy: -17.436455902333 gnorm: 0.000213566534 xtb: 6.7.1 (edcfbbe)
C           -5.65801068716824       -3.86815744254617        0.52245708250468
C           -6.95520873568140       -4.27959361579700        1.19737842765907
H           -4.94568071372106       -4.68883531429240        0.56425127036844
H           -5.84489349377782       -3.64627481007071       -0.52567923449011
H           -5.23350803459863       -2.99348330939979        1.00951454080654
C           -7.62766911097100       -5.52034762215155        0.54868217544414
H           -6.79401174000288       -4.52715062715406        2.24928167214565
H           -7.69270162829608       -3.47405867524466        1.15759722900171
O           -7.10144253124094       -6.02411015870220       -0.46378866776718
O           -8.67383032454195       -5.92685342464146        1.10469050432706
