11
 energy: -39.280593870640 gnorm: 0.106366043403 xtb: 6.7.1 (edcfbbe)
C           -3.82612100000000       -3.36304400000000        0.37775300000000
C           -5.28163200000000       -3.62991000000000        0.79357900000000
C           -5.52269700000000       -5.09321100000000        0.38994000000000
O           -5.49598800000000       -3.41010900000000        2.10317100000000
F           -2.91142700000000       -4.15727400000000        0.98070900000000
F           -3.66005800000000       -3.53180800000000       -0.96346200000000
F           -3.45308000000000       -2.07501200000000        0.61601600000000
F           -4.69777000000000       -5.98650100000000        0.98364000000000
F           -5.37255800000000       -5.26200000000000       -0.95335800000000
F           -6.79773200000000       -5.49434800000000        0.65122100000000
H           -5.88412600000000       -3.04418100000000        0.08299500000000
11
 energy: -39.288323144340 gnorm: 0.056020817856 xtb: 6.7.1 (edcfbbe)
C           -3.79602371675090       -3.34768973507252        0.36970794709583
C           -5.26605892032790       -3.64530674774340        0.77565552500141
C           -5.53750624532900       -5.12369403242403        0.38212358514891
O           -5.47626151860447       -3.42967648566570        2.05667306845985
F           -2.90434065769164       -4.12984856010613        0.98267706106960
F           -3.62684522458613       -3.50192990901678       -0.95698601581515
F           -3.47493812088421       -2.07137342007400        0.64252993954686
F           -4.72517243283279       -5.99459611984194        0.98567006508383
F           -5.40170554637803       -5.29564015787908       -0.94639330651406
F           -6.80145693601672       -5.47224968487360        0.67760354875961
H           -5.89287968059821       -3.03539314730280        0.09294258216331
11
 energy: -39.290820144891 gnorm: 0.009929978476 xtb: 6.7.1 (edcfbbe)
C           -3.77039842345676       -3.33449588714780        0.35975859730247
C           -5.25724929289701       -3.65393460487922        0.77781049912860
C           -5.55027872579391       -5.14964878925818        0.37234255196527
O           -5.46482060504632       -3.44098109038219        2.03456885311728
F           -2.90368456824578       -4.10785259367391        0.98307488250064
F           -3.60558151631428       -3.49099488153185       -0.95223800763291
F           -3.49094914219302       -2.07131865424772        0.64925463010531
F           -4.74724061544027       -5.99594607374149        0.98626539956269
F           -5.41205746901674       -5.31714773649509       -0.94145954249141
F           -6.80175308865115       -5.45607749504773        0.68416049481906
H           -5.89917555294475       -3.02900019359483        0.10866564162299
11
 energy: -39.290975522959 gnorm: 0.005144404626 xtb: 6.7.1 (edcfbbe)
C           -3.76429127210647       -3.32949878694612        0.35758062132678
C           -5.25556375987605       -3.65556920751724        0.78001330936879
C           -5.55517560110121       -5.15585033572109        0.37023538894253
O           -5.46031354872669       -3.44543006638060        2.03804860822961
F           -2.89503546933342       -4.09879758903671        0.98399537215170
F           -3.59505427383282       -3.48385106637870       -0.95389332214633
F           -3.49860723182812       -2.06444258408104        0.65051313293969
F           -4.75610397831214       -6.00484033183209        0.98729696126596
F           -5.41897625716295       -5.32774027738924       -0.94297279465915
F           -6.80880223208789       -5.44850183974262        0.68543605094668
H           -5.89526537563224       -3.03287591497454        0.10595067163376
11
 energy: -39.291017099936 gnorm: 0.001543069189 xtb: 6.7.1 (edcfbbe)
C           -3.76013619994183       -3.32528083717273        0.35691647970676
C           -5.25505035727585       -3.65604597184683        0.78217163413125
C           -5.55932386383664       -5.16006989839327        0.36962124882522
O           -5.45614266223258       -3.44957090007256        2.04028175808959
F           -2.88763505522211       -4.09198394161428        0.98492514746765
F           -3.58938084004917       -3.48014803909678       -0.95427299407176
F           -3.50315018143841       -2.05858575545835        0.64927913770130
F           -4.76275775074050       -6.01236451239575        0.98835690671761
F           -5.42252575691273       -5.33344579583059       -0.94328169117871
F           -6.81479891939258       -5.44405529447795        0.68421924897961
H           -5.89228741295758       -3.03584705364091        0.10398712363148
11
 energy: -39.291020423647 gnorm: 0.000414641970 xtb: 6.7.1 (edcfbbe)
C           -3.76021684943202       -3.32497824757424        0.35694142497257
C           -5.25601985160694       -3.65507066297818        0.78356747444959
C           -5.55963611335423       -5.15998888080170        0.36964821218506
O           -5.45516776887801       -3.45055927601962        2.04129361694429
F           -2.88698647457853       -4.09147825365329        0.98531255447255
F           -3.59016537840483       -3.48169602674809       -0.95421236114473
F           -3.50330510495101       -2.05828363312899        0.64744460862051
F           -4.76325220005537       -6.01297454907643        0.98880589326793
F           -5.42096181725681       -5.33264374325173       -0.94323591260303
F           -6.81513848993469       -5.44390917512449        0.68237089377904
H           -5.89233895154754       -3.03581555164323        0.10426759505622
