 Entering Gaussian System
 *********************************************
 Gaussian 98:
 frequency output generated by the xtb code
 *********************************************
                         Standard orientation:
 --------------------------------------------------------------------
  Center     Atomic     Atomic              Coordinates (Angstroms)
  Number     Number      Type              X           Y           Z
 --------------------------------------------------------------------
    1          6             0       -5.177553   -6.297890    2.943116
    2          6             0       -4.989072   -5.042894    3.513680
    3          6             0       -6.104199   -7.316763    3.552145
    4          6             0       -4.469794   -6.580280    1.776048
    5          6             0       -4.144163   -4.114100    2.958655
    6          1             0       -5.529770   -4.794240    4.426533
    7          6             0       -3.401267   -4.366058    1.761892
    8          1             0       -4.022028   -3.144899    3.432064
    9          6             0       -3.620878   -5.667062    1.205099
   10          8             0       -2.622080   -3.519851    1.244328
   11          1             0       -4.600295   -7.556192    1.309727
   12          1             0       -6.575360   -6.919499    4.451657
   13          1             0       -6.895770   -7.602178    2.852581
   14          1             0       -5.566359   -8.229536    3.826337
   15          1             0       -3.085476   -5.921741    0.295717
 --------------------------------------------------------------------
     1 basis functions        1 primitive gaussians
     1 alpha electrons        1 beta electrons
 
 Harmonic frequencies (cm**-1), IR intensities (km*mol⁻¹),
 Raman scattering activities (A**4/amu), Raman depolarization ratios,
 reduced masses (AMU), force constants (mDyne/A) and normal coordinates:
                      1                      2                      3
                        a                      a                      a 
 Frequencies --    -8.2657               127.3309               299.2116
 Red. masses --     1.4442                11.5342                10.2268
 Frc consts  --     0.0000                 0.0000                 0.0000
 IR Inten    --     0.1049                 3.5384                 5.2615
 Raman Activ --     0.0000                 0.0000                 0.0000
 Depolar     --     0.0000                 0.0000                 0.0000
 Atom AN      X      Y      Z        X      Y      Z        X      Y      Z
   1   6     0.04  -0.02   0.03    -0.07   0.03  -0.05    -0.42   0.20  -0.30
   2   6    -0.04   0.02  -0.03    -0.20   0.10  -0.14    -0.15   0.07  -0.11
   3   6    -0.05   0.02  -0.03     0.35  -0.17   0.25     0.17  -0.08   0.12
   4   6     0.09  -0.04   0.06    -0.19   0.09  -0.14    -0.16   0.08  -0.12
   5   6    -0.06   0.03  -0.04    -0.22   0.11  -0.16     0.26  -0.12   0.19
   6   1    -0.02   0.01  -0.01    -0.07   0.03  -0.05    -0.05   0.02  -0.04
   7   6    -0.01   0.01  -0.01     0.00  -0.00   0.00     0.14  -0.07   0.10
   8   1    -0.03   0.01  -0.02    -0.08   0.04  -0.06     0.12  -0.06   0.09
   9   6     0.07  -0.03   0.05    -0.21   0.10  -0.15     0.28  -0.13   0.20
  10   8    -0.03   0.02  -0.02     0.43  -0.21   0.31    -0.21   0.10  -0.15
  11   1     0.04  -0.02   0.03    -0.06   0.03  -0.05    -0.05   0.02  -0.04
  12   1     0.40  -0.19   0.29     0.18  -0.09   0.13     0.13  -0.07   0.10
  13   1    -0.34   0.44   0.18     0.04  -0.09   0.16    -0.02  -0.14   0.16
  14   1    -0.13  -0.21  -0.52     0.19  -0.02  -0.00     0.21   0.05  -0.03
  15   1     0.04  -0.02   0.03    -0.07   0.03  -0.05     0.13  -0.06   0.10
                      4                      5                      6
                        a                      a                      a 
 Frequencies --   304.3938               373.3667               440.3118
 Red. masses --     9.4695                 9.4672                12.1567
 Frc consts  --     0.0000                 0.0000                 0.0000
 IR Inten    --     0.5291                 0.0497                 4.6976
 Raman Activ --     0.0000                 0.0000                 0.0000
 Depolar     --     0.0000                 0.0000                 0.0000
 Atom AN      X      Y      Z        X      Y      Z        X      Y      Z
   1   6    -0.06   0.21   0.22    -0.01   0.00  -0.01     0.16   0.28  -0.04
   2   6    -0.03   0.22   0.19    -0.33   0.16  -0.24    -0.01   0.20   0.15
   3   6     0.13  -0.33  -0.40     0.00  -0.00   0.00     0.25   0.25  -0.18
   4   6    -0.10   0.14   0.22     0.32  -0.15   0.23    -0.00  -0.06  -0.04
   5   6     0.03   0.14   0.04     0.34  -0.16   0.25     0.00  -0.04  -0.03
   6   1     0.00   0.09   0.05    -0.20   0.09  -0.14    -0.01   0.04   0.04
   7   6    -0.01   0.00   0.02    -0.00   0.00  -0.00    -0.15  -0.35  -0.03
   8   1     0.03   0.05  -0.01     0.17  -0.08   0.12     0.09   0.02  -0.11
   9   6    -0.09  -0.00   0.12    -0.33   0.16  -0.24     0.05  -0.28  -0.26
  10   8     0.07  -0.25  -0.26    -0.00   0.00  -0.00    -0.32  -0.03   0.43
  11   1    -0.05   0.03   0.09     0.20  -0.09   0.14    -0.07  -0.05   0.07
  12   1    -0.08  -0.30  -0.09     0.00  -0.00   0.00     0.05   0.03  -0.05
  13   1     0.13  -0.08  -0.23    -0.00  -0.01   0.01     0.09   0.07  -0.07
  14   1     0.13  -0.08  -0.23     0.01   0.00  -0.00     0.09   0.07  -0.07
  15   1    -0.04  -0.02   0.03    -0.16   0.08  -0.12     0.01  -0.08  -0.07
                      7                      8                      9
                        a                      a                      a 
 Frequencies --   444.1703               466.1767               615.5404
 Red. masses --    12.0032                 8.5386                11.5295
 Frc consts  --     0.0000                 0.0000                 0.0000
 IR Inten    --     5.9348                 0.0149                 0.8130
 Raman Activ --     0.0000                 0.0000                 0.0000
 Depolar     --     0.0000                 0.0000                 0.0000
 Atom AN      X      Y      Z        X      Y      Z        X      Y      Z
   1   6    -0.17  -0.03   0.22    -0.36   0.17  -0.26    -0.02   0.05   0.05
   2   6     0.02   0.05   0.00     0.23  -0.11   0.16    -0.31  -0.10   0.36
   3   6    -0.16  -0.23   0.07    -0.02   0.01  -0.02    -0.02   0.05   0.06
   4   6    -0.10   0.11   0.22     0.22  -0.10   0.16     0.20   0.45   0.03
   5   6     0.12  -0.23  -0.32    -0.09   0.04  -0.06    -0.20  -0.37   0.03
   6   1     0.05   0.12   0.00     0.24  -0.11   0.17    -0.08  -0.01   0.10
   7   6     0.21  -0.03  -0.31    -0.34   0.16  -0.25     0.02  -0.06  -0.06
   8   1     0.07  -0.05  -0.13     0.18  -0.08   0.13    -0.04  -0.10  -0.01
   9   6     0.03  -0.11  -0.12    -0.08   0.04  -0.06     0.28   0.14  -0.29
  10   8     0.07   0.50   0.23     0.16  -0.08   0.12     0.05  -0.17  -0.18
  11   1    -0.04   0.02   0.08     0.24  -0.11   0.17     0.04   0.12   0.02
  12   1    -0.08  -0.13   0.03     0.03  -0.01   0.02     0.03   0.07   0.01
  13   1    -0.02  -0.06  -0.02    -0.03  -0.07   0.06    -0.03   0.01   0.05
  14   1    -0.02  -0.06  -0.02     0.08   0.05  -0.02    -0.03   0.01   0.05
  15   1    -0.06  -0.17  -0.04     0.18  -0.09   0.13     0.07   0.02  -0.08
                     10                     11                     12
                        a                      a                      a 
 Frequencies --   652.1563               759.8015               775.5195
 Red. masses --     9.8439                10.9445                 6.7766
 Frc consts  --     0.0000                 0.0000                 0.0000
 IR Inten    --     6.3703                14.7691                37.2595
 Raman Activ --     0.0000                 0.0000                 0.0000
 Depolar     --     0.0000                 0.0000                 0.0000
 Atom AN      X      Y      Z        X      Y      Z        X      Y      Z
   1   6     0.29  -0.14   0.21    -0.04  -0.04   0.02     0.10  -0.05   0.07
   2   6    -0.25   0.12  -0.18     0.18   0.20  -0.12    -0.10   0.05  -0.07
   3   6     0.04  -0.02   0.03    -0.32  -0.36   0.20     0.02  -0.01   0.01
   4   6    -0.25   0.12  -0.18     0.17   0.20  -0.11    -0.10   0.04  -0.07
   5   6     0.17  -0.08   0.12     0.13   0.35   0.05    -0.23   0.11  -0.16
   6   1     0.05  -0.02   0.04     0.06   0.07  -0.03     0.18  -0.09   0.13
   7   6    -0.41   0.20  -0.30    -0.12  -0.14   0.08     0.39  -0.18   0.28
   8   1     0.22  -0.11   0.16     0.10   0.12  -0.05     0.33  -0.16   0.24
   9   6     0.17  -0.08   0.12     0.22   0.04  -0.28    -0.22   0.11  -0.16
  10   8     0.10  -0.05   0.07    -0.21  -0.22   0.14    -0.12   0.06  -0.09
  11   1     0.05  -0.02   0.03     0.06   0.06  -0.05     0.17  -0.08   0.12
  12   1    -0.03   0.01  -0.02    -0.09  -0.10   0.06    -0.02   0.01  -0.02
  13   1     0.04   0.07  -0.06    -0.09  -0.10   0.06     0.02   0.05  -0.04
  14   1    -0.08  -0.05   0.03    -0.10  -0.10   0.06    -0.05  -0.03   0.01
  15   1     0.22  -0.11   0.16     0.10   0.09  -0.07     0.32  -0.15   0.23
                     13                     14                     15
                        a                      a                      a 
 Frequencies --   833.9548               863.2476               892.1568
 Red. masses --     3.2917                11.6589                 2.4311
 Frc consts  --     0.0000                 0.0000                 0.0000
 IR Inten    --     0.0022                 1.9787                 0.0090
 Raman Activ --     0.0000                 0.0000                 0.0000
 Depolar     --     0.0000                 0.0000                 0.0000
 Atom AN      X      Y      Z        X      Y      Z        X      Y      Z
   1   6    -0.00   0.00  -0.00    -0.06  -0.07   0.04    -0.02   0.01  -0.02
   2   6    -0.15   0.07  -0.11     0.20  -0.14  -0.37    -0.18   0.09  -0.13
   3   6    -0.00   0.00  -0.00     0.12   0.12  -0.08     0.01  -0.00   0.01
   4   6     0.16  -0.08   0.12     0.02   0.38   0.23    -0.13   0.06  -0.10
   5   6    -0.18   0.09  -0.13     0.09  -0.24  -0.29     0.10  -0.05   0.08
   6   1     0.26  -0.12   0.19     0.10   0.06  -0.10     0.47  -0.22   0.34
   7   6    -0.01   0.00  -0.00    -0.10  -0.11   0.07     0.08  -0.04   0.06
   8   1     0.39  -0.19   0.28     0.02  -0.08  -0.07    -0.29   0.14  -0.21
   9   6     0.19  -0.09   0.14    -0.08   0.26   0.28     0.07  -0.04   0.05
  10   8     0.00  -0.00   0.00    -0.24  -0.26   0.16    -0.01   0.00  -0.01
  11   1    -0.27   0.13  -0.20     0.08   0.14  -0.02     0.38  -0.18   0.27
  12   1     0.00  -0.00   0.00     0.05   0.06  -0.03    -0.02   0.01  -0.01
  13   1    -0.01  -0.01   0.01     0.03   0.04  -0.03     0.01   0.03  -0.02
  14   1     0.01   0.01  -0.00     0.04   0.03  -0.02    -0.03  -0.02   0.01
  15   1    -0.40   0.19  -0.29    -0.03   0.06   0.08    -0.23   0.11  -0.17
                     16                     17                     18
                        a                      a                      a 
 Frequencies --   904.3645               989.2193               997.1331
 Red. masses --     3.5835                 8.3873                 4.3433
 Frc consts  --     0.0000                 0.0000                 0.0000
 IR Inten    --     0.1052                 2.3002                 9.2037
 Raman Activ --     0.0000                 0.0000                 0.0000
 Depolar     --     0.0000                 0.0000                 0.0000
 Atom AN      X      Y      Z        X      Y      Z        X      Y      Z
   1   6     0.00  -0.00   0.00    -0.09  -0.12   0.05     0.03  -0.07  -0.09
   2   6    -0.19   0.09  -0.14     0.10  -0.21  -0.28    -0.05   0.17   0.18
   3   6    -0.00   0.00  -0.00     0.11   0.04  -0.13     0.09  -0.28  -0.30
   4   6     0.23  -0.11   0.16    -0.08   0.29   0.30    -0.03   0.01   0.05
   5   6     0.14  -0.07   0.10    -0.07   0.28   0.28     0.04   0.05  -0.03
   6   1     0.33  -0.16   0.24    -0.04  -0.18  -0.07     0.01   0.10   0.05
   7   6    -0.01   0.00  -0.01     0.02   0.01  -0.02     0.02  -0.06  -0.07
   8   1    -0.24   0.11  -0.17    -0.17   0.01   0.24     0.12   0.06  -0.12
   9   6    -0.16   0.08  -0.12     0.07  -0.25  -0.27    -0.09   0.04   0.15
  10   8     0.00  -0.00   0.00     0.03   0.04  -0.02    -0.01   0.01   0.01
  11   1    -0.43   0.20  -0.31    -0.12   0.04   0.19     0.01   0.01  -0.00
  12   1     0.00  -0.00   0.00     0.11   0.15  -0.05     0.34   0.48  -0.15
  13   1    -0.01  -0.01   0.01    -0.03   0.01   0.03    -0.26  -0.09   0.25
  14   1     0.01   0.01  -0.00    -0.01   0.01   0.04    -0.22  -0.11   0.28
  15   1     0.30  -0.14   0.22    -0.10  -0.31  -0.07    -0.05  -0.04   0.04
                     19                     20                     21
                        a                      a                      a 
 Frequencies --  1033.4611              1124.1209              1199.2524
 Red. masses --     4.1230                 4.1968                 1.8508
 Frc consts  --     0.0000                 0.0000                 0.0000
 IR Inten    --     3.1605                 0.3921                13.1734
 Raman Activ --     0.0000                 0.0000                 0.0000
 Depolar     --     0.0000                 0.0000                 0.0000
 Atom AN      X      Y      Z        X      Y      Z        X      Y      Z
   1   6    -0.24   0.11  -0.17     0.05  -0.12  -0.15    -0.02  -0.04   0.01
   2   6     0.01  -0.01   0.01    -0.08  -0.01   0.10    -0.04  -0.15  -0.05
   3   6     0.32  -0.15   0.23    -0.02   0.07   0.08     0.01   0.01  -0.01
   4   6     0.03  -0.02   0.02     0.04   0.12   0.03    -0.09   0.02   0.13
   5   6     0.01  -0.01   0.01    -0.01   0.18   0.13     0.05   0.05  -0.03
   6   1    -0.03   0.02  -0.02    -0.20  -0.37   0.03    -0.20  -0.43  -0.01
   7   6    -0.01   0.00  -0.01     0.07  -0.21  -0.24    -0.02  -0.03   0.01
   8   1    -0.00   0.00  -0.00     0.25   0.16  -0.25     0.32   0.14  -0.35
   9   6     0.01  -0.00   0.01    -0.09   0.09   0.18     0.04   0.06  -0.02
  10   8     0.00  -0.00   0.00    -0.00   0.02   0.02     0.05   0.06  -0.03
  11   1    -0.05   0.02  -0.03     0.28   0.15  -0.29    -0.31  -0.11   0.35
  12   1    -0.16   0.08  -0.12    -0.08  -0.11   0.04     0.00   0.01  -0.00
  13   1     0.20   0.46  -0.28     0.06   0.01  -0.05    -0.00   0.01   0.00
  14   1    -0.46  -0.34   0.10     0.04   0.02  -0.06     0.00   0.01   0.01
  15   1    -0.01   0.00  -0.00    -0.20  -0.35   0.05     0.21   0.43  -0.00
                     22                     23                     24
                        a                      a                      a 
 Frequencies --  1234.7021              1239.9816              1320.3354
 Red. masses --     7.8120                 6.7180                 6.1373
 Frc consts  --     0.0000                 0.0000                 0.0000
 IR Inten    --    12.6510                 3.6279                 6.1742
 Raman Activ --     0.0000                 0.0000                 0.0000
 Depolar     --     0.0000                 0.0000                 0.0000
 Atom AN      X      Y      Z        X      Y      Z        X      Y      Z
   1   6    -0.40  -0.39   0.30     0.07   0.09  -0.04     0.08  -0.31  -0.31
   2   6    -0.09  -0.11   0.05    -0.05  -0.14  -0.02    -0.01   0.01   0.02
   3   6     0.18   0.21  -0.11    -0.04  -0.04   0.03    -0.02   0.07   0.07
   4   6    -0.04  -0.08   0.00     0.12   0.06  -0.13    -0.02   0.01   0.03
   5   6     0.03   0.14   0.05     0.05  -0.10  -0.14    -0.18   0.03   0.27
   6   1     0.12   0.29   0.02     0.04   0.06  -0.01     0.22   0.47   0.01
   7   6    -0.05   0.06   0.12    -0.13   0.41   0.45     0.05  -0.17  -0.18
   8   1     0.22   0.13  -0.22     0.26   0.07  -0.31     0.11   0.07  -0.10
   9   6     0.08  -0.10  -0.17    -0.01  -0.10  -0.06     0.08   0.28   0.08
  10   8     0.04   0.04  -0.04     0.00  -0.05  -0.04     0.01   0.01  -0.01
  11   1     0.21   0.06  -0.25    -0.12  -0.05   0.14    -0.28  -0.11   0.32
  12   1     0.06   0.08  -0.03    -0.01  -0.01   0.01    -0.05  -0.06   0.02
  13   1     0.07   0.05  -0.06    -0.01  -0.01   0.01     0.07   0.00  -0.07
  14   1     0.07   0.05  -0.06    -0.01  -0.01   0.01     0.04   0.01  -0.09
  15   1     0.10   0.13  -0.05    -0.21  -0.47  -0.02    -0.07  -0.12   0.02
                     25                     26                     27
                        a                      a                      a 
 Frequencies --  1399.8262              1416.4116              1454.8069
 Red. masses --     3.5645                 9.4059                10.8375
 Frc consts  --     0.0000                 0.0000                 0.0000
 IR Inten    --    32.6237                50.5507                62.4482
 Raman Activ --     0.0000                 0.0000                 0.0000
 Depolar     --     0.0000                 0.0000                 0.0000
 Atom AN      X      Y      Z        X      Y      Z        X      Y      Z
   1   6    -0.06  -0.08   0.03     0.23   0.24  -0.16     0.04  -0.07  -0.10
   2   6     0.01   0.04   0.02     0.09  -0.09  -0.18    -0.28  -0.31   0.18
   3   6     0.27   0.31  -0.17    -0.03  -0.04   0.02    -0.01   0.05   0.05
   4   6     0.00  -0.02  -0.02    -0.04   0.17   0.16     0.27   0.31  -0.18
   5   6     0.02   0.01  -0.02    -0.25  -0.15   0.25     0.29   0.31  -0.20
   6   1    -0.01  -0.02   0.00     0.13   0.20  -0.06     0.04   0.15   0.05
   7   6     0.03   0.04  -0.02    -0.17  -0.16   0.13     0.02  -0.08  -0.08
   8   1    -0.01  -0.00   0.02     0.14   0.04  -0.17    -0.08   0.02   0.13
   9   6     0.04   0.06  -0.01    -0.17  -0.34   0.02    -0.29  -0.33   0.18
  10   8    -0.04  -0.04   0.02     0.21   0.23  -0.14    -0.01   0.04   0.04
  11   1    -0.03  -0.02   0.03     0.18   0.13  -0.16    -0.08   0.02   0.12
  12   1    -0.25  -0.44   0.06    -0.06  -0.10   0.02    -0.02  -0.02   0.01
  13   1    -0.17  -0.33   0.33    -0.05  -0.08   0.08     0.04  -0.05  -0.01
  14   1    -0.43  -0.21   0.15    -0.10  -0.05   0.04    -0.02  -0.03  -0.06
  15   1    -0.01  -0.03  -0.00     0.09   0.21   0.01     0.03   0.15   0.06
                     28                     29                     30
                        a                      a                      a 
 Frequencies --  1504.3434              1506.1553              1528.8741
 Red. masses --     1.5977                 6.2282                 6.8486
 Frc consts  --     0.0000                 0.0000                 0.0000
 IR Inten    --     0.0084                14.3066                10.4499
 Raman Activ --     0.0000                 0.0000                 0.0000
 Depolar     --     0.0000                 0.0000                 0.0000
 Atom AN      X      Y      Z        X      Y      Z        X      Y      Z
   1   6     0.02  -0.01   0.02    -0.09   0.25   0.29    -0.11   0.32   0.37
   2   6     0.00  -0.00   0.00    -0.04  -0.27  -0.12     0.02  -0.19  -0.15
   3   6     0.17  -0.08   0.12     0.06  -0.12  -0.16    -0.03   0.05   0.08
   4   6    -0.00   0.00  -0.00     0.15  -0.05  -0.24     0.16  -0.07  -0.27
   5   6    -0.00   0.00   0.00    -0.07   0.07   0.13    -0.11   0.00   0.15
   6   1    -0.00   0.00  -0.00     0.06   0.08  -0.03     0.03   0.00  -0.04
   7   6     0.00  -0.00  -0.00     0.04  -0.15  -0.16     0.01  -0.17  -0.13
   8   1    -0.00   0.00  -0.00     0.05   0.04  -0.04     0.05   0.03  -0.05
   9   6    -0.00   0.00  -0.00    -0.01   0.12   0.09     0.00   0.14   0.09
  10   8    -0.00   0.00  -0.00     0.00   0.02   0.01     0.03   0.04  -0.01
  11   1     0.00  -0.00   0.00    -0.05  -0.04   0.04    -0.05  -0.05   0.03
  12   1    -0.55   0.25  -0.40    -0.09  -0.19   0.02     0.14   0.25  -0.04
  13   1    -0.32   0.08   0.33    -0.24   0.39   0.10     0.17  -0.39  -0.05
  14   1     0.19  -0.01  -0.41     0.15   0.21   0.40    -0.19  -0.21  -0.32
  15   1     0.00  -0.00   0.00    -0.04  -0.06   0.02    -0.05  -0.08   0.02
                     31                     32                     33
                        a                      a                      a 
 Frequencies --  1567.8753              1635.1434              2919.3491
 Red. masses --    11.7212                11.7089                 1.9220
 Frc consts  --     0.0000                 0.0000                 0.0000
 IR Inten    --   280.3409               509.9871                99.0481
 Raman Activ --     0.0000                 0.0000                 0.0000
 Depolar     --     0.0000                 0.0000                 0.0000
 Atom AN      X      Y      Z        X      Y      Z        X      Y      Z
   1   6    -0.18  -0.25   0.08    -0.13  -0.17   0.07    -0.00   0.00  -0.00
   2   6     0.15   0.34   0.02     0.20   0.33  -0.06    -0.00   0.00  -0.00
   3   6     0.04   0.04  -0.03     0.01   0.01  -0.00    -0.22   0.11  -0.16
   4   6     0.21   0.11  -0.22     0.26   0.18  -0.23     0.00  -0.00   0.00
   5   6     0.00  -0.09  -0.07    -0.26  -0.21   0.22     0.00  -0.00   0.00
   6   1    -0.07  -0.15   0.00    -0.03  -0.08  -0.01     0.00  -0.00  -0.00
   7   6    -0.38  -0.39   0.26     0.29   0.32  -0.19    -0.00  -0.00   0.00
   8   1    -0.08  -0.07   0.07     0.06   0.00  -0.08     0.00  -0.00   0.00
   9   6    -0.05   0.01   0.08    -0.23  -0.33   0.10     0.00  -0.00   0.00
  10   8     0.25   0.28  -0.17    -0.13  -0.14   0.09     0.00   0.00  -0.00
  11   1    -0.10  -0.04   0.12    -0.06  -0.01   0.07    -0.00   0.00   0.00
  12   1    -0.01  -0.01  -0.00     0.00   0.01   0.00    -0.04   0.02  -0.03
  13   1    -0.00   0.05  -0.01     0.00   0.04  -0.02     0.46   0.19   0.44
  14   1     0.04   0.03   0.02     0.04   0.02   0.00     0.34  -0.59   0.14
  15   1    -0.06  -0.09   0.03     0.03   0.10   0.02    -0.00   0.00  -0.00
                     34                     35                     36
                        a                      a                      a 
 Frequencies --  2939.0390              2944.0879              2953.7313
 Red. masses --     1.7367                 1.6329                 1.7306
 Frc consts  --     0.0000                 0.0000                 0.0000
 IR Inten    --    91.7841               113.8688               233.2073
 Raman Activ --     0.0000                 0.0000                 0.0000
 Depolar     --     0.0000                 0.0000                 0.0000
 Atom AN      X      Y      Z        X      Y      Z        X      Y      Z
   1   6    -0.01  -0.00   0.01    -0.00   0.00   0.01    -0.01  -0.02   0.00
   2   6    -0.08   0.04   0.13    -0.10   0.04   0.16    -0.04   0.03   0.07
   3   6    -0.01  -0.12  -0.08     0.02   0.12   0.06    -0.01  -0.09  -0.05
   4   6     0.02   0.14   0.06    -0.00  -0.01  -0.01    -0.02  -0.19  -0.09
   5   6    -0.00  -0.02  -0.00    -0.00  -0.02  -0.01    -0.00  -0.02  -0.01
   6   1     0.27  -0.13  -0.46     0.35  -0.16  -0.59     0.16  -0.08  -0.27
   7   6     0.00  -0.00  -0.01     0.00  -0.00  -0.00    -0.00   0.00   0.00
   8   1     0.01   0.08   0.04     0.01   0.11   0.05     0.01   0.08   0.04
   9   6     0.01  -0.00  -0.01    -0.00   0.00   0.00    -0.02   0.00   0.03
  10   8    -0.00   0.00   0.00    -0.00   0.00   0.00    -0.00  -0.00   0.00
  11   1    -0.07  -0.49  -0.23     0.01   0.05   0.03     0.09   0.69   0.34
  12   1    -0.06   0.04   0.10     0.02   0.01  -0.02    -0.04   0.02   0.06
  13   1     0.30   0.08   0.26    -0.35  -0.10  -0.31     0.23   0.06   0.20
  14   1    -0.21   0.30  -0.11     0.25  -0.36   0.12    -0.16   0.24  -0.09
  15   1    -0.04   0.02   0.06     0.01  -0.00  -0.01     0.09  -0.04  -0.15
                     37                     38                     39
                        a                      a                      a 
 Frequencies --  2993.9298              3006.2366              3014.2425
 Red. masses --     1.6085                 1.8308                 1.8255
 Frc consts  --     0.0000                 0.0000                 0.0000
 IR Inten    --   100.4517               280.1617                39.1766
 Raman Activ --     0.0000                 0.0000                 0.0000
 Depolar     --     0.0000                 0.0000                 0.0000
 Atom AN      X      Y      Z        X      Y      Z        X      Y      Z
   1   6     0.01  -0.00  -0.01    -0.00   0.00   0.00    -0.00  -0.00   0.00
   2   6     0.01  -0.01  -0.01     0.02  -0.01  -0.03    -0.02   0.01   0.04
   3   6     0.11  -0.07  -0.19     0.00  -0.00  -0.01    -0.01   0.00   0.01
   4   6    -0.00  -0.00  -0.00    -0.00  -0.03  -0.02    -0.00  -0.04  -0.02
   5   6     0.00   0.02   0.01    -0.02  -0.17  -0.08     0.02   0.17   0.08
   6   1    -0.03   0.02   0.06    -0.05   0.02   0.08     0.07  -0.03  -0.12
   7   6     0.00   0.00   0.00     0.00  -0.00  -0.00     0.01   0.02  -0.01
   8   1    -0.01  -0.09  -0.04     0.08   0.59   0.29    -0.08  -0.60  -0.29
   9   6     0.01  -0.00  -0.01     0.10  -0.04  -0.16     0.09  -0.04  -0.15
  10   8     0.00   0.00  -0.00    -0.00   0.00   0.00    -0.00  -0.01   0.00
  11   1     0.00   0.01   0.01     0.01   0.10   0.05     0.02   0.13   0.06
  12   1    -0.40   0.37   0.78    -0.01   0.01   0.03     0.04  -0.03  -0.07
  13   1    -0.05  -0.04  -0.09     0.00   0.00   0.00     0.02   0.01   0.02
  14   1     0.06  -0.09  -0.01    -0.00   0.00  -0.00    -0.02   0.02  -0.00
  15   1    -0.02   0.01   0.03    -0.34   0.16   0.57    -0.32   0.15   0.55
