      -----------------------------------------------------------      
     |                   =====================                   |     
     |                           x T B                           |     
     |                   =====================                   |     
     |                         S. Grimme                         |     
     |          Mulliken Center for Theoretical Chemistry        |     
     |                    University of Bonn                     |     
      -----------------------------------------------------------      

   * xtb version 6.7.1 (edcfbbe) compiled by 'albert@albert-system' on 2024-07-22

   xtb is free software: you can redistribute it and/or modify it under
   the terms of the GNU Lesser General Public License as published by
   the Free Software Foundation, either version 3 of the License, or
   (at your option) any later version.
   
   xtb is distributed in the hope that it will be useful,
   but WITHOUT ANY WARRANTY; without even the implied warranty of
   MERCHANTABILITY or FITNESS FOR A PARTICULAR PURPOSE.  See the
   GNU Lesser General Public License for more details.
   
   Cite this work as:
   * C. Bannwarth, E. Caldeweyher, S. Ehlert, A. Hansen, P. Pracht,
     J. Seibert, S. Spicher, S. Grimme, WIREs Comput. Mol. Sci., 2020, 11,
     e01493. DOI: 10.1002/wcms.1493
   
   for GFN2-xTB:
   * C. Bannwarth, S. Ehlert and S. Grimme., J. Chem. Theory Comput., 2019,
     15, 1652-1671. DOI: 10.1021/acs.jctc.8b01176
   for GFN1-xTB:
   * S. Grimme, C. Bannwarth, P. Shushkov, J. Chem. Theory Comput., 2017,
     13, 1989-2009. DOI: 10.1021/acs.jctc.7b00118
   for GFN0-xTB:
   * P. Pracht, E. Caldeweyher, S. Ehlert, S. Grimme, ChemRxiv, 2019, preprint.
     DOI: 10.26434/chemrxiv.8326202.v1
   for GFN-FF:
   * S. Spicher and S. Grimme, Angew. Chem. Int. Ed., 2020, 59, 15665-15673.
     DOI: 10.1002/anie.202004239
   
   for ALPB and GBSA implicit solvation:
   * S. Ehlert, M. Stahn, S. Spicher, S. Grimme, J. Chem. Theory Comput.,
     2021, 17, 4250-4261. DOI: 10.1021/acs.jctc.1c00471
   
   for ddCOSMO and CPCM-X implicit solvation:
   * M. Stahn, S. Ehlert, S. Grimme, J. Phys. Chem. A,
     2023, XX, XXXX-XXXX. DOI: 10.1021/acs.jpca.3c04382
   
   for DFT-D4:
   * E. Caldeweyher, C. Bannwarth and S. Grimme, J. Chem. Phys., 2017,
     147, 034112. DOI: 10.1063/1.4993215
   * E. Caldeweyher, S. Ehlert, A. Hansen, H. Neugebauer, S. Spicher,
     C. Bannwarth and S. Grimme, J. Chem. Phys., 2019, 150, 154122.
     DOI: 10.1063/1.5090222
   * E. Caldeweyher, J.-M. Mewes, S. Ehlert and S. Grimme, Phys. Chem. Chem. Phys.
     2020, 22, 8499-8512. DOI: 10.1039/D0CP00502A
   
   for sTDA-xTB:
   * S. Grimme and C. Bannwarth, J. Chem. Phys., 2016, 145, 054103.
     DOI: 10.1063/1.4959605
   
   in the mass-spec context:
   * V. Asgeirsson, C. Bauer and S. Grimme, Chem. Sci., 2017, 8, 4879.
     DOI: 10.1039/c7sc00601b
   * J. Koopman and S. Grimme, ACS Omega 2019, 4, 12, 15120-15133.
     DOI: 10.1021/acsomega.9b02011
   
   for metadynamics refer to:
   * S. Grimme, J. Chem. Theory Comput., 2019, 155, 2847-2862
     DOI: 10.1021/acs.jctc.9b00143
   
   for SPH calculations refer to:
   * S. Spicher and S. Grimme, J. Chem. Theory Comput., 2021, 17, 1701-1714
     DOI: 10.1021/acs.jctc.0c01306
   
   for ONIOM refer to:
   * C. Plett, A. Katbashev, S. Ehlert, S. Grimme, M. Bursch,
     Phys. Chem. Chem. Phys., 2023, 25, 17860-17868. DOI: 10.1039/D3CP02178E
   
   for DIPRO refer to:
   * J. Kohn, N. Gildemeister, S. Grimme, D. Fazzi, A. Hansen,
     J. Chem. Phys., 2023, just accepted.
   
   for PTB refer to:
   * S. Grimme, M. Mueller, A. Hansen, J. Chem. Phys., 2023, 158, 124111.
     DOI: 10.1063/5.0137838
   
   with help from (in alphabetical order)
   P. Atkinson, C. Bannwarth, F. Bohle, G. Brandenburg, E. Caldeweyher
   M. Checinski, S. Dohm, S. Ehlert, S. Ehrlich, I. Gerasimov, C. Hölzer
   A. Katbashev, J. Kohn, J. Koopman, C. Lavigne, S. Lehtola, F. März, M. Müller,
   F. Musil, H. Neugebauer, J. Pisarek, C. Plett, P. Pracht, F. Pultar,
   J. Seibert, P. Shushkov, S. Spicher, M. Stahn, M. Steiner, T. Strunk,
   J. Stückrath, T. Rose, and J. Unsleber
   
 * started run on 2025/10/18 at 02:51:33.102     
   ID    Z sym.   atoms
    1    6 C      1-5, 7, 9
    2    1 H      6, 8, 11-15
    3    8 O      10

           -------------------------------------------------
          |                Calculation Setup                |
           -------------------------------------------------

          program call               : xtb xyz.xyz --charge -1 --ohess
          hostname                   : m003
          coordinate file            : xyz.xyz
          omp threads                :                     2


           -------------------------------------------------
          |                 G F N 2 - x T B                 |
           -------------------------------------------------

        Reference                      10.1021/acs.jctc.8b01176
      * Hamiltonian:
        H0-scaling (s, p, d)           1.850000    2.230000    2.230000
        zeta-weighting                 0.500000
      * Dispersion:
        s8                             2.700000
        a1                             0.520000
        a2                             5.000000
        s9                             5.000000
      * Repulsion:
        kExp                           1.500000    1.000000
        rExp                           1.000000
      * Coulomb:
        alpha                          2.000000
        third order                    shell-resolved
        anisotropic                    true
        a3                             3.000000
        a5                             4.000000
        cn-shift                       1.200000
        cn-exp                         4.000000
        max-rad                        5.000000


          ...................................................
          :                      SETUP                      :
          :.................................................:
          :  # basis functions                  39          :
          :  # atomic orbitals                  39          :
          :  # shells                           23          :
          :  # electrons                        42          :
          :  max. iterations                   250          :
          :  Hamiltonian                  GFN2-xTB          :
          :  restarted?                      false          :
          :  GBSA solvation                  false          :
          :  PC potential                    false          :
          :  electronic temp.          300.0000000     K    :
          :  accuracy                    1.0000000          :
          :  -> integral cutoff          0.2500000E+02      :
          :  -> integral neglect         0.1000000E-07      :
          :  -> SCF convergence          0.1000000E-05 Eh   :
          :  -> wf. convergence          0.1000000E-03 e    :
          :  Broyden damping             0.4000000          :
          :  net charge                         -1          :
          :  unpaired electrons                  0          :
          ...................................................

 iter      E             dE          RMSdq      gap      omega  full diag
   1    -23.0130713 -0.230131E+02  0.445E+00    3.11       0.0  T
   2    -23.0727347 -0.596634E-01  0.217E+00    2.55       1.0  T
   3    -23.0640279  0.870682E-02  0.151E+00    2.62       1.0  T
   4    -23.0833103 -0.192825E-01  0.580E-01    2.58       1.0  T
   5    -23.0854948 -0.218447E-02  0.101E-01    2.60       1.0  T
   6    -23.0855251 -0.303401E-04  0.663E-02    2.59       1.0  T
   7    -23.0855367 -0.115638E-04  0.176E-02    2.60       1.5  T
   8    -23.0855396 -0.289811E-05  0.626E-03    2.60       4.1  T
   9    -23.0855397 -0.125910E-06  0.276E-03    2.59       9.4  T
  10    -23.0855397 -0.606640E-08  0.128E-03    2.60      20.1  T
  11    -23.0855398 -0.138209E-07  0.530E-04    2.60      48.8  T
  12    -23.0855398 -0.267871E-08  0.201E-04    2.60     128.3  T

   *** convergence criteria satisfied after 12 iterations ***

         #    Occupation            Energy/Eh            Energy/eV
      -------------------------------------------------------------
         1        2.0000           -0.4629593             -12.5978
       ...           ...                  ...                  ...
        15        2.0000           -0.2799311              -7.6173
        16        2.0000           -0.2519576              -6.8561
        17        2.0000           -0.2397363              -6.5236
        18        2.0000           -0.2348642              -6.3910
        19        2.0000           -0.2006131              -5.4590
        20        2.0000           -0.1525376              -4.1508
        21        2.0000           -0.1426020              -3.8804 (HOMO)
        22                         -0.0472173              -1.2848 (LUMO)
        23                         -0.0145159              -0.3950
        24                          0.0879707               2.3938
        25                          0.2351483               6.3987
        26                          0.2767151               7.5298
       ...                                ...                  ...
        39                          0.8121827              22.1006
      -------------------------------------------------------------
                  HL-Gap            0.0953847 Eh            2.5955 eV
             Fermi-level           -0.0949097 Eh           -2.5826 eV

 SCC (total)                   0 d,  0 h,  0 min,  0.037 sec
 SCC setup                      ...        0 min,  0.000 sec (  0.469%)
 Dispersion                     ...        0 min,  0.000 sec (  0.337%)
 classical contributions        ...        0 min,  0.000 sec (  0.083%)
 integral evaluation            ...        0 min,  0.001 sec (  2.852%)
 iterations                     ...        0 min,  0.033 sec ( 89.184%)
 molecular gradient             ...        0 min,  0.002 sec (  6.641%)
 printout                       ...        0 min,  0.000 sec (  0.351%)

         :::::::::::::::::::::::::::::::::::::::::::::::::::::
         ::                     SUMMARY                     ::
         :::::::::::::::::::::::::::::::::::::::::::::::::::::
         :: total energy             -22.788755624604 Eh    ::
         :: gradient norm              0.160529335548 Eh/a0 ::
         :: HOMO-LUMO gap              2.595549122193 eV    ::
         ::.................................................::
         :: SCC energy               -23.085519860864 Eh    ::
         :: -> isotropic ES            0.151102151574 Eh    ::
         :: -> anisotropic ES          0.018803928328 Eh    ::
         :: -> anisotropic XC          0.008614573984 Eh    ::
         :: -> dispersion             -0.012237161132 Eh    ::
         :: repulsion energy           0.296764236260 Eh    ::
         :: add. restraining           0.000000000000 Eh    ::
         :: total charge              -1.000000000000 e     ::
         :::::::::::::::::::::::::::::::::::::::::::::::::::::

      ----------------------------------------------------------- 
     |                   =====================                   |
     |                        A N C O P T                        |
     |                   =====================                   |
     |               Approximate Normal Coordinate               |
     |                Rational Function Optimizer                |
      ----------------------------------------------------------- 
      ----------------------------------------------------------- 
     |                   =====================                   |
     |                        A N C O P T                        |
     |                   =====================                   |
     |               Approximate Normal Coordinate               |
     |                Rational Function Optimizer                |
      ----------------------------------------------------------- 

          ...................................................
          :                      SETUP                      :
          :.................................................:
          :   optimization level            normal          :
          :   max. optcycles                   200          :
          :   ANC micro-cycles                  20          :
          :   degrees of freedom                39          :
          :.................................................:
          :   RF solver                   davidson          :
          :   write xtbopt.log                true          :
          :   linear?                        false          :
          :   energy convergence         0.5000000E-05 Eh   :
          :   grad. convergence          0.1000000E-02 Eh/α :
          :   maxmium RF displ.          1.0000000          :
          :   Hlow (freq-cutoff)         0.1000000E-01      :
          :   Hmax (freq-cutoff)         5.0000000          :
          :   S6 in model hess.         20.0000000          :
          ...................................................

generating ANC from exact Hessian ...
Using Lindh-Hessian (1995)
 Shifting diagonal of input Hessian by   6.119928870589221E-003
 Lowest  eigenvalues of input Hessian
    0.000000    0.000000    0.000000    0.000000    0.000000    0.000000
    0.010000    0.013123    0.016819    0.020420    0.020816    0.025930
    0.043184    0.044129    0.062469    0.072982    0.082119    0.083879
 Highest eigenvalues
    1.323530    1.398755    1.547917    1.572377    1.712497    2.089504
 

........................................................................
.............................. CYCLE    1 ..............................
........................................................................

 iter      E             dE          RMSdq      gap      omega  full diag
   1    -23.0855398 -0.230855E+02  0.791E-05    2.60       0.0  T
   2    -23.0855398 -0.299814E-10  0.409E-05    2.60     631.6  T
   3    -23.0855398 -0.128040E-10  0.267E-05    2.60     966.4  T
     SCC iter.                  ...        0 min,  0.001 sec
     gradient                   ...        0 min,  0.002 sec
 * total energy  :   -22.7887556 Eh     change       -0.4119478E-09 Eh
   gradient norm :     0.1605299 Eh/α   predicted     0.0000000E+00 (-100.00%)
   displ. norm   :     0.3287740 α      lambda       -0.3515061E-01
   maximum displ.:     0.1930333 α      in ANC's #20, #24, #14, ...

........................................................................
.............................. CYCLE    2 ..............................
........................................................................

 iter      E             dE          RMSdq      gap      omega  full diag
   1    -23.1447079 -0.231447E+02  0.434E-01    3.11       0.0  T
   2    -23.1452989 -0.591003E-03  0.326E-01    2.98       1.0  T
   3    -23.1454998 -0.200855E-03  0.171E-01    3.02       1.0  T
   4    -23.1455838 -0.840294E-04  0.490E-02    3.02       1.0  T
   5    -23.1456174 -0.336417E-04  0.822E-03    3.01       3.1  T
   6    -23.1456177 -0.232974E-06  0.451E-03    3.01       5.7  T
   7    -23.1456177 -0.229733E-07  0.111E-03    3.01      23.3  T
   8    -23.1456177 -0.190801E-08  0.480E-04    3.01      53.8  T
   9    -23.1456177 -0.190369E-08  0.181E-04    3.01     142.6  T
     SCC iter.                  ...        0 min,  0.003 sec
     gradient                   ...        0 min,  0.002 sec
 * total energy  :   -22.8121532 Eh     change       -0.2339755E-01 Eh
   gradient norm :     0.0489300 Eh/α   predicted    -0.1947506E-01 ( -16.76%)
   displ. norm   :     0.1634290 α      lambda       -0.4915411E-02
   maximum displ.:     0.1119968 α      in ANC's #20, #14, #24, ...

........................................................................
.............................. CYCLE    3 ..............................
........................................................................

 iter      E             dE          RMSdq      gap      omega  full diag
   1    -23.1685713 -0.231686E+02  0.236E-01    3.26       0.0  T
   2    -23.1686336 -0.623694E-04  0.156E-01    3.22       1.0  T
   3    -23.1686036  0.300292E-04  0.770E-02    3.24       1.0  T
   4    -23.1686675 -0.639251E-04  0.123E-02    3.23       2.1  T
   5    -23.1686695 -0.195830E-05  0.386E-03    3.23       6.7  T
   6    -23.1686695 -0.331502E-07  0.193E-03    3.23      13.4  T
   7    -23.1686695 -0.153378E-07  0.802E-04    3.23      32.2  T
   8    -23.1686695 -0.759144E-09  0.255E-04    3.23     101.1  T
     SCC iter.                  ...        0 min,  0.003 sec
     gradient                   ...        0 min,  0.002 sec
 * total energy  :   -22.8142242 Eh     change       -0.2071068E-02 Eh
   gradient norm :     0.0126860 Eh/α   predicted    -0.2523348E-02 (  21.84%)
   displ. norm   :     0.0495766 α      lambda       -0.3065349E-03
   maximum displ.:     0.0275824 α      in ANC's #5, #7, #11, ...

........................................................................
.............................. CYCLE    4 ..............................
........................................................................

 iter      E             dE          RMSdq      gap      omega  full diag
   1    -23.1647543 -0.231648E+02  0.664E-02    3.19       0.0  T
   2    -23.1647584 -0.414244E-05  0.416E-02    3.20       1.0  T
   3    -23.1647555  0.290276E-05  0.172E-02    3.20       1.5  T
   4    -23.1647593 -0.380874E-05  0.394E-03    3.20       6.5  T
   5    -23.1647596 -0.282955E-06  0.765E-04    3.20      33.8  T
   6    -23.1647596 -0.111926E-08  0.389E-04    3.20      66.3  T
     SCC iter.                  ...        0 min,  0.002 sec
     gradient                   ...        0 min,  0.002 sec
 * total energy  :   -22.8143547 Eh     change       -0.1304802E-03 Eh
   gradient norm :     0.0038513 Eh/α   predicted    -0.1536451E-03 (  17.75%)
   displ. norm   :     0.0200250 α      lambda       -0.4571151E-04
   maximum displ.:     0.0127721 α      in ANC's #7, #21, #11, ...

........................................................................
.............................. CYCLE    5 ..............................
........................................................................

 iter      E             dE          RMSdq      gap      omega  full diag
   1    -23.1643328 -0.231643E+02  0.275E-02    3.19       0.0  T
   2    -23.1643342 -0.143681E-05  0.173E-02    3.20       1.5  T
   3    -23.1643341  0.138746E-06  0.901E-03    3.20       2.9  T
   4    -23.1643347 -0.591609E-06  0.208E-03    3.20      12.4  T
   5    -23.1643348 -0.681038E-07  0.380E-04    3.20      67.9  T
   6    -23.1643348 -0.948372E-09  0.192E-04    3.20     134.8  T
     SCC iter.                  ...        0 min,  0.002 sec
     gradient                   ...        0 min,  0.002 sec
 * total energy  :   -22.8143720 Eh     change       -0.1729517E-04 Eh
   gradient norm :     0.0018375 Eh/α   predicted    -0.2286427E-04 (  32.20%)
   displ. norm   :     0.0112349 α      lambda       -0.6861917E-05
   maximum displ.:     0.0046891 α      in ANC's #5, #4, #11, ...

........................................................................
.............................. CYCLE    6 ..............................
........................................................................

 iter      E             dE          RMSdq      gap      omega  full diag
   1    -23.1652217 -0.231652E+02  0.135E-02    3.21       0.0  T
   2    -23.1652218 -0.106455E-06  0.801E-03    3.21       3.2  T
   3    -23.1652217  0.522965E-07  0.395E-03    3.21       6.5  T
   4    -23.1652218 -0.957639E-07  0.423E-04    3.21      61.0  T
   5    -23.1652218 -0.521176E-09  0.141E-04    3.21     183.7  T
     SCC iter.                  ...        0 min,  0.002 sec
     gradient                   ...        0 min,  0.002 sec
 * total energy  :   -22.8143754 Eh     change       -0.3377854E-05 Eh
   gradient norm :     0.0009278 Eh/α   predicted    -0.3429826E-05 (   1.54%)
   displ. norm   :     0.0029413 α      lambda       -0.8875667E-06
   maximum displ.:     0.0014947 α      in ANC's #4, #8, #7, ...

   *** GEOMETRY OPTIMIZATION CONVERGED AFTER 6 ITERATIONS ***

------------------------------------------------------------------------
 total energy gain   :        -0.0256198 Eh      -16.0766 kcal/mol
 total RMSD          :         0.1243805 a0        0.0658 Å
 total power (kW/mol):       -11.2107820 (step)-1942.7800 (real)
------------------------------------------------------------------------

 ANCopt (total)                0 d,  0 h,  0 min,  0.035 sec
 optimizer setup                ...        0 min,  0.000 sec (  0.551%)
 model hessian                  ...        0 min,  0.002 sec (  5.246%)
 ANC generation                 ...        0 min,  0.000 sec (  0.725%)
 coordinate transformation      ...        0 min,  0.000 sec (  0.123%)
 single point calculation       ...        0 min,  0.031 sec ( 88.620%)
 optimization log               ...        0 min,  0.000 sec (  0.989%)
 hessian update                 ...        0 min,  0.000 sec (  0.148%)
 rational function              ...        0 min,  0.001 sec (  2.827%)

================
 final structure:
================
15
 xtb: 6.7.1 (edcfbbe)
C           -5.17753022369058       -6.29792185620372        2.94308641563066
C           -4.98905776605780       -5.04292558786185        3.51365389458369
C           -6.10417250589355       -7.31680097954435        3.55211086077668
C           -4.46976537063907       -6.58030618137219        1.77602116588016
C           -4.14415130557517       -4.11412619108736        2.95863325659859
H           -5.52975944504152       -4.79427591074870        4.42650487446501
C           -3.40124957684492       -4.36607865135641        1.76187276080039
H           -4.02202328612326       -3.14492613820095        3.43204420108651
C           -3.62085175043330       -5.66708297860768        1.20507595674132
O           -2.62206517429376       -3.51986702856109        1.24431231103045
H           -4.60025994708989       -7.55621804087668        1.30969720180026
H           -6.57533823961476       -6.91954060897440        4.45162115120754
H           -6.89573946081392       -7.60221849473023        2.85254366813256
H           -5.56632850448889       -8.22957147891535        3.82630302869084
H           -3.08544544339962       -5.92175687295903        0.29569625257535
 
 Bond Distances (Angstroems)
 ---------------------------
C1-C2=1.3914         C1-C3=1.5059         C1-C4=1.3938         C2-C1=1.3914         C2-C5=1.3728         C2-H6=1.0897         
C3-C1=1.5059         C3-H12=1.0904        C3-H13=1.0943        C3-H14=1.0944        C4-C1=1.3938         C4-C9=1.3714         
C4-H11=1.0894        C5-C2=1.3728         C5-C7=1.4310         C5-H8=1.0855         H6-C2=1.0897         C7-C5=1.4310         
C7-C9=1.4321         C7-O10=1.2614        H8-C5=1.0855         C9-C4=1.3714         C9-C7=1.4321         C9-H15=1.0856        
O10-C7=1.2614        H11-C4=1.0894        H12-C3=1.0904        H13-C3=1.0943        H14-C3=1.0944        H15-C9=1.0856        
 C  H  Rav=1.0899 sigma=0.0033  Rmin=1.0855  Rmax=1.0944     7
 C  C  Rav=1.4140 sigma=0.0439  Rmin=1.3714  Rmax=1.5059     7
 O  C  Rav=1.2614 sigma=0.0000  Rmin=1.2614  Rmax=1.2614     1
 
 selected bond angles (degree)
 --------------------
C3-C1-C2=121.85                C4-C1-C2=117.21                C4-C1-C3=120.93                C5-C2-C1=121.86                
H6-C2-C1=118.82                H6-C2-C5=119.32                H12-C3-C1=110.67               H13-C3-C1=111.29               
H13-C3-H12=108.05              H14-C3-C1=111.30               H14-C3-H12=108.03              H14-C3-H13=107.35              
C9-C4-C1=121.87                H11-C4-C1=118.62               H11-C4-C9=119.50               C7-C5-C2=122.58                
H8-C5-C2=119.80                H8-C5-C7=117.62                C9-C7-C5=113.92                O10-C7-C5=123.08               
O10-C7-C9=123.00               C7-C9-C4=122.55                H15-C9-C4=119.86               H15-C9-C7=117.59               
 
 selected dihedral angles (degree)
 ---------------------------------
C5-C2-C1-C3=179.99            C5-C2-C1-C4=  0.00            H6-C2-C1-C3=359.96            H6-C2-C1-C4=179.98            
H12-C3-C1-C2=  0.52           H12-C3-C1-C4=180.49           H13-C3-C1-C2=120.68           H13-C3-C1-C4=300.65           
H14-C3-C1-C2=240.37           H14-C3-C1-C4= 60.34           C9-C4-C1-C2=  0.00            C9-C4-C1-C3=180.01            
H11-C4-C1-C2=180.01           H11-C4-C1-C3=  0.04           C7-C5-C2-C1=  0.00            C7-C5-C2-H6=180.05            
H8-C5-C2-C1=180.01            H8-C5-C2-H6=  0.04            C9-C7-C5-C2=359.96            C9-C7-C5-H8=179.96            
O10-C7-C5-C2=180.03           O10-C7-C5-H8=  0.04           C7-C9-C4-C1=  0.00            C7-C9-C4-H11=179.96           
H15-C9-C4-C1=179.98           H15-C9-C4-H11=359.95          C4-C9-C7-C5=  0.04            C4-C9-C7-O10=179.96           
H15-C9-C7-C5=180.05           H15-C9-C7-O10=359.97          
           -------------------------------------------------
          |                Final Singlepoint                |
           -------------------------------------------------

          ...................................................
          :                      SETUP                      :
          :.................................................:
          :  # basis functions                  39          :
          :  # atomic orbitals                  39          :
          :  # shells                           23          :
          :  # electrons                        42          :
          :  max. iterations                   250          :
          :  Hamiltonian                  GFN2-xTB          :
          :  restarted?                      false          :
          :  GBSA solvation                  false          :
          :  PC potential                    false          :
          :  electronic temp.          300.0000000     K    :
          :  accuracy                    1.0000000          :
          :  -> integral cutoff          0.2500000E+02      :
          :  -> integral neglect         0.1000000E-07      :
          :  -> SCF convergence          0.1000000E-05 Eh   :
          :  -> wf. convergence          0.1000000E-03 e    :
          :  Broyden damping             0.4000000          :
          :  net charge                         -1          :
          :  unpaired electrons                  0          :
          ...................................................

 iter      E             dE          RMSdq      gap      omega  full diag
   1    -23.1652218 -0.231652E+02  0.698E-05    3.21       0.0  T
   2    -23.1652218 -0.204068E-10  0.486E-05    3.21     531.2  T
   3    -23.1652218 -0.266773E-10  0.256E-05    3.21    1007.5  T

   *** convergence criteria satisfied after 3 iterations ***

         #    Occupation            Energy/Eh            Energy/eV
      -------------------------------------------------------------
         1        2.0000           -0.4656819             -12.6718
       ...           ...                  ...                  ...
        15        2.0000           -0.2824041              -7.6846
        16        2.0000           -0.2461429              -6.6979
        17        2.0000           -0.2454462              -6.6789
        18        2.0000           -0.2450488              -6.6681
        19        2.0000           -0.2132535              -5.8029
        20        2.0000           -0.1529899              -4.1631
        21        2.0000           -0.1459925              -3.9727 (HOMO)
        22                         -0.0281432              -0.7658 (LUMO)
        23                         -0.0039977              -0.1088
        24                          0.1091904               2.9712
        25                          0.2599473               7.0735
        26                          0.2789508               7.5906
       ...                                ...                  ...
        39                          0.8745247              23.7970
      -------------------------------------------------------------
                  HL-Gap            0.1178494 Eh            3.2068 eV
             Fermi-level           -0.0870678 Eh           -2.3692 eV

 SCC (total)                   0 d,  0 h,  0 min,  0.004 sec
 SCC setup                      ...        0 min,  0.000 sec (  1.840%)
 Dispersion                     ...        0 min,  0.000 sec (  1.361%)
 classical contributions        ...        0 min,  0.000 sec (  0.313%)
 integral evaluation            ...        0 min,  0.001 sec ( 19.229%)
 iterations                     ...        0 min,  0.001 sec ( 25.369%)
 molecular gradient             ...        0 min,  0.002 sec ( 49.359%)
 printout                       ...        0 min,  0.000 sec (  1.937%)

         :::::::::::::::::::::::::::::::::::::::::::::::::::::
         ::                     SUMMARY                     ::
         :::::::::::::::::::::::::::::::::::::::::::::::::::::
         :: total energy             -22.814375392921 Eh    ::
         :: gradient norm              0.000926679999 Eh/a0 ::
         :: HOMO-LUMO gap              3.206844431452 eV    ::
         ::.................................................::
         :: SCC energy               -23.165205710434 Eh    ::
         :: -> isotropic ES            0.151275934293 Eh    ::
         :: -> anisotropic ES          0.017304008019 Eh    ::
         :: -> anisotropic XC          0.007246524791 Eh    ::
         :: -> dispersion             -0.012491467761 Eh    ::
         :: repulsion energy           0.350830317513 Eh    ::
         :: add. restraining           0.000000000000 Eh    ::
         :: total charge              -1.000000000000 e     ::
         :::::::::::::::::::::::::::::::::::::::::::::::::::::

           ------------------------------------------------- 
          |                Numerical Hessian                |
           ------------------------------------------------- 
step length          :   0.00500
SCC accuracy         :   0.30000
Hessian scale factor :   1.00000
frozen atoms in %    :   0.00000    0
RMS gradient         :   0.00093
estimated CPU  time      0.02 min
estimated wall time      0.01 min

writing file <hessian>.

 projected vibrational frequencies (cm⁻¹)
eigval :       -0.00    -0.00    -0.00    -0.00     0.00     0.00
eigval :       -8.27   127.33   299.21   304.39   373.37   440.31
eigval :      444.17   466.18   615.54   652.16   759.80   775.52
eigval :      833.95   863.25   892.16   904.36   989.22   997.13
eigval :     1033.46  1124.12  1199.25  1234.70  1239.98  1320.34
eigval :     1399.83  1416.41  1454.81  1504.34  1506.16  1528.87
eigval :     1567.88  1635.14  2919.35  2939.04  2944.09  2953.73
eigval :     2993.93  3006.24  3014.24
           -------------------------------------------------
          |                Property Printout                |
           -------------------------------------------------

    * Orbital Energies and Occupations

         #    Occupation            Energy/Eh            Energy/eV
      -------------------------------------------------------------
         1        2.0000           -0.4656818             -12.6718
       ...           ...                  ...                  ...
         9        2.0000           -0.3435030              -9.3472
        10        2.0000           -0.3412570              -9.2861
        11        2.0000           -0.3178213              -8.6484
        12        2.0000           -0.2991588              -8.1405
        13        2.0000           -0.2942649              -8.0074
        14        2.0000           -0.2886364              -7.8542
        15        2.0000           -0.2824040              -7.6846
        16        2.0000           -0.2461428              -6.6979
        17        2.0000           -0.2454461              -6.6789
        18        2.0000           -0.2450487              -6.6681
        19        2.0000           -0.2132534              -5.8029
        20        2.0000           -0.1529898              -4.1631
        21        2.0000           -0.1459925              -3.9727 (HOMO)
        22                         -0.0281431              -0.7658 (LUMO)
        23                         -0.0039976              -0.1088
        24                          0.1091905               2.9712
        25                          0.2599474               7.0735
        26                          0.2789509               7.5906
        27                          0.3025250               8.2321
        28                          0.3209349               8.7331
        29                          0.3439599               9.3596
        30                          0.3454590               9.4004
        31                          0.3524073               9.5895
        32                          0.3944823              10.7344
       ...                                ...                  ...
        39                          0.8745248              23.7970
      -------------------------------------------------------------
                  HL-Gap            0.1178494 Eh            3.2068 eV
             Fermi-level           -0.0870678 Eh           -2.3692 eV

     #   Z          covCN         q      C6AA      α(0)
     1   6 C        2.964    -0.053    29.321     8.882
     2   6 C        2.917    -0.055    29.360     8.885
     3   6 C        3.754    -0.080    22.087     6.701
     4   6 C        2.918    -0.055    29.375     8.888
     5   6 C        2.916    -0.101    30.551     9.064
     6   1 H        0.925    -0.038     3.801     3.049
     7   6 C        2.829     0.180    24.146     8.052
     8   1 H        0.925    -0.023     3.481     2.918
     9   6 C        2.916    -0.100    30.517     9.059
    10   8 O        0.857    -0.615    26.497     6.901
    11   1 H        0.925    -0.037     3.777     3.039
    12   1 H        0.924     0.002     3.025     2.720
    13   1 H        0.924    -0.001     3.080     2.745
    14   1 H        0.924    -0.001     3.082     2.745
    15   1 H        0.925    -0.022     3.475     2.915

 Mol. C6AA /au·bohr⁶  :       3007.082148
 Mol. C8AA /au·bohr⁸  :      70735.488187
 Mol. α(0) /au        :         86.563052


Wiberg/Mayer (AO) data.
largest (>0.10) Wiberg bond orders for each atom

 ---------------------------------------------------------------------------
     #   Z sym  total        # sym  WBO       # sym  WBO       # sym  WBO
 ---------------------------------------------------------------------------
     1   6 C    3.962 --     2 C    1.374     4 C    1.364     3 C    1.009
     2   6 C    3.985 --     5 C    1.510     1 C    1.374     6 H    0.966
     3   6 C    3.993 --     1 C    1.009    12 H    0.988    13 H    0.981
                            14 H    0.981
     4   6 C    3.985 --     9 C    1.520     1 C    1.364    11 H    0.968
     5   6 C    3.975 --     2 C    1.510     7 C    1.208     8 H    0.972
                            10 O    0.106
     6   1 H    0.999 --     2 C    0.966
     7   6 C    3.972 --    10 O    1.465     5 C    1.208     9 C    1.203
     8   1 H    0.999 --     5 C    0.972
     9   6 C    3.976 --     4 C    1.520     7 C    1.203    15 H    0.972
                            10 O    0.104
    10   8 O    1.782 --     7 C    1.465     5 C    0.106     9 C    0.104
    11   1 H    0.999 --     4 C    0.968
    12   1 H    1.000 --     3 C    0.988
    13   1 H    0.998 --     3 C    0.981
    14   1 H    0.998 --     3 C    0.981
    15   1 H    0.999 --     9 C    0.972
 ---------------------------------------------------------------------------

Topologies differ in total number of bonds
Writing topology from bond orders to xtbtopo.mol

molecular dipole:
                 x           y           z       tot (Debye)
 q only:        6.819       8.680      -3.590
   full:        6.557       8.388      -3.420      28.422
molecular quadrupole (traceless):
                xx          xy          yy          xz          yz          zz
 q only:       -1.887     -97.008     -48.691      42.998      50.182      50.578
  q+dip:       -3.072     -89.600     -44.857      37.762      48.157      47.929
   full:       -2.267     -90.283     -45.472      38.968      47.369      47.739

           -------------------------------------------------
          |                Geometry Summary                 |
           -------------------------------------------------

      molecular mass/u    :      107.1301415
   center of mass at/Å    :       -4.3100893      -5.3568300       2.3652020
  moments of inertia/u·Å² :        0.9014648E+02   0.3343776E+03   0.4213903E+03
rotational constants/cm⁻¹ :        0.1870027E+00   0.5041496E-01   0.4000480E-01

 * 13 selected distances

     #   Z          #   Z                                           value/Å
     1   6 C        2   6 C                                       1.3914328
     1   6 C        4   6 C                                       1.3938126
     2   6 C        5   6 C                                       1.3728013
     2   6 C        6   1 H                                       1.0897165
     5   6 C        7   6 C                                       1.4309504
     5   6 C        8   1 H                                       1.0855331 (min)
     4   6 C        9   6 C                                       1.3713532
     7   6 C        9   6 C                                       1.4320826 (max)
     4   6 C       11   1 H                                       1.0894453
     3   6 C       12   1 H                                       1.0903816
     3   6 C       13   1 H                                       1.0942741
     3   6 C       14   1 H                                       1.0943526
     9   6 C       15   1 H                                       1.0855830

 * 2 distinct bonds (by element types)

   Z      Z             #   av. dist./Å        max./Å        min./Å
   1 H    6 C           7     1.0898980     1.0943526     1.0855331
   6 C    6 C           6     1.3987388     1.4320826     1.3713532

           -------------------------------------------------
          |               Frequency Printout                |
           -------------------------------------------------
 projected vibrational frequencies (cm⁻¹)
eigval :       -0.00    -0.00    -0.00    -0.00     0.00     0.00
eigval :       -8.27   127.33   299.21   304.39   373.37   440.31
eigval :      444.17   466.18   615.54   652.16   759.80   775.52
eigval :      833.95   863.25   892.16   904.36   989.22   997.13
eigval :     1033.46  1124.12  1199.25  1234.70  1239.98  1320.34
eigval :     1399.83  1416.41  1454.81  1504.34  1506.16  1528.87
eigval :     1567.88  1635.14  2919.35  2939.04  2944.09  2953.73
eigval :     2993.93  3006.24  3014.24
 reduced masses (amu)
   1: 10.73   2: 11.75   3: 11.64   4: 11.64   5: 10.92   6: 12.05   7:  1.44   8: 11.53
   9: 10.23  10:  9.47  11:  9.47  12: 12.16  13: 12.00  14:  8.54  15: 11.53  16:  9.84
  17: 10.94  18:  6.78  19:  3.29  20: 11.66  21:  2.43  22:  3.58  23:  8.39  24:  4.34
  25:  4.12  26:  4.20  27:  1.85  28:  7.81  29:  6.72  30:  6.14  31:  3.56  32:  9.41
  33: 10.84  34:  1.60  35:  6.23  36:  6.85  37: 11.72  38: 11.71  39:  1.92  40:  1.74
  41:  1.63  42:  1.73  43:  1.61  44:  1.83  45:  1.83
 IR intensities (km·mol⁻¹)
   1:  1.92   2:  6.56   3:  8.13   4:  8.16   5:  4.49   6:  7.92   7:  0.10   8:  3.54
   9:  5.26  10:  0.53  11:  0.05  12:  4.70  13:  5.93  14:  0.01  15:  0.81  16:  6.37
  17: 14.77  18: 37.26  19:  0.00  20:  1.98  21:  0.01  22:  0.11  23:  2.30  24:  9.20
  25:  3.16  26:  0.39  27: 13.17  28: 12.65  29:  3.63  30:  6.17  31: 32.62  32: 50.55
  33: 62.45  34:  0.01  35: 14.31  36: 10.45  37:280.34  38:509.99  39: 99.05  40: 91.78
  41:113.87  42:233.21  43:100.45  44:280.16  45: 39.18
 Raman intensities (Ä⁴*amu⁻¹)
   1:  0.00   2:  0.00   3:  0.00   4:  0.00   5:  0.00   6:  0.00   7:  0.00   8:  0.00
   9:  0.00  10:  0.00  11:  0.00  12:  0.00  13:  0.00  14:  0.00  15:  0.00  16:  0.00
  17:  0.00  18:  0.00  19:  0.00  20:  0.00  21:  0.00  22:  0.00  23:  0.00  24:  0.00
  25:  0.00  26:  0.00  27:  0.00  28:  0.00  29:  0.00  30:  0.00  31:  0.00  32:  0.00
  33:  0.00  34:  0.00  35:  0.00  36:  0.00  37:  0.00  38:  0.00  39:  0.00  40:  0.00
  41:  0.00  42:  0.00  43:  0.00  44:  0.00  45:  0.00
 output can be read by thermo (or use thermo option).
 writing <g98.out> molden fake output.
 recommended (thermochemical) frequency scaling factor: 1.0
           -------------------------------------------------
          |             Thermodynamic Functions             |
           -------------------------------------------------

Refinement of some symmetry elements was terminated before convergence was reached.
Some symmetry elements may remain unidentified.
Molecule has the following symmetry elements: (sigma) 
It seems to be the Cs point group
cs  symmetry found (for desy threshold:  0.10E+00) used in thermo
 inverting freq            1   8.26571510214801     

          ...................................................
          :                      SETUP                      :
          :.................................................:
          :  # frequencies                          39      :
          :  # imaginary freq.                       0      :
          :  linear?                             false      :
          :  only rotor calc.                    false      :
          :  symmetry                               cs      :
          :  rotational number                       1      :
          :  scaling factor                  1.0000000      :
          :  rotor cutoff                   50.0000000 cm⁻¹ :
          :  imag. cutoff                  -20.0000000 cm⁻¹ :
          :.................................................:

    mode    ω/cm⁻¹     T·S(HO)/kcal·mol⁻¹    T·S(FR)/kcal·mol⁻¹   T·S(vib)
   ------------------------------------------------------------------------
       1      8.27    -2.50132 (  0.07%)    -1.58762 ( 99.93%)    -1.58831
       2    127.33    -0.89027 ( 97.68%)    -0.77949 (  2.32%)    -0.88769
       3    299.21    -0.42376 ( 99.92%)    -0.52648 (  0.08%)    -0.42384
   ------------------------------------------------------------------------

   temp. (K)  partition function   enthalpy   heat capacity  entropy
                                   cal/mol     cal/K/mol   cal/K/mol   J/K/mol
 298.15  VIB   210.                 2824.773     20.027     17.026
         ROT  0.272E+06              888.752      2.981     27.850
         INT  0.571E+08             3713.525     23.008     44.877
         TR   0.107E+28             1481.254      4.968     39.905
         TOT                        5194.7790    27.9765    84.7819   354.7275

       T/K    H(0)-H(T)+PV         H(T)/Eh          T*S/Eh         G(T)/Eh
   ------------------------------------------------------------------------
    298.15    0.827841E-02    0.123741E+00    0.402826E-01    0.834584E-01
   ------------------------------------------------------------------------

         :::::::::::::::::::::::::::::::::::::::::::::::::::::
         ::                  THERMODYNAMIC                  ::
         :::::::::::::::::::::::::::::::::::::::::::::::::::::
         :: total free energy         -22.730916999557 Eh   ::
         ::.................................................::
         :: total energy              -22.814375392922 Eh   ::
         :: zero point energy           0.115462609929 Eh   ::
         :: G(RRHO) w/o ZPVE           -0.032004216564 Eh   ::
         :: G(RRHO) contrib.            0.083458393365 Eh   ::
         :::::::::::::::::::::::::::::::::::::::::::::::::::::
imag cut-off (cm-1) :    5.00
 found            1  significant imaginary frequency
 writing imag mode distorted coords to xtbhess.xyz
 for further optimization.

optimized geometry written to: xtbopt.xyz


           -------------------------------------------------
          | TOTAL ENERGY              -22.814375392922 Eh   |
          | TOTAL ENTHALPY            -22.690634375793 Eh   |
          | TOTAL FREE ENERGY         -22.730916999557 Eh   |
          | GRADIENT NORM               0.000926618947 Eh/α |
          | HOMO-LUMO GAP               3.206844213556 eV   |
           -------------------------------------------------

------------------------------------------------------------------------
 * finished run on 2025/10/18 at 02:51:33.700     
------------------------------------------------------------------------
 total:
 * wall-time:     0 d,  0 h,  0 min,  0.597 sec
 *  cpu-time:     0 d,  0 h,  0 min,  0.986 sec
 * ratio c/w:     1.650 speedup
 SCF:
 * wall-time:     0 d,  0 h,  0 min,  0.037 sec
 *  cpu-time:     0 d,  0 h,  0 min,  0.051 sec
 * ratio c/w:     1.349 speedup
 ANC optimizer:
 * wall-time:     0 d,  0 h,  0 min,  0.082 sec
 *  cpu-time:     0 d,  0 h,  0 min,  0.121 sec
 * ratio c/w:     1.486 speedup
 analytical hessian:
 * wall-time:     0 d,  0 h,  0 min,  0.407 sec
 *  cpu-time:     0 d,  0 h,  0 min,  0.741 sec
 * ratio c/w:     1.819 speedup

