15
 energy: -22.788755625016 gnorm: 0.160529887292 xtb: 6.7.1 (edcfbbe)
C           -5.19623600000000       -6.32654400000000        2.96550700000000
C           -5.01720800000000       -5.01519000000000        3.58720200000000
C           -6.11801600000000       -7.33091100000000        3.56176400000000
C           -4.46440700000000       -6.65471700000000        1.74188500000000
C           -4.11227700000000       -4.03898200000000        2.98832700000000
H           -5.56299200000000       -4.73943100000000        4.47783800000000
C           -3.39492100000000       -4.39058000000000        1.78325000000000
H           -3.99732200000000       -3.05700800000000        3.42724600000000
C           -3.56610000000000       -5.67439800000000        1.14106700000000
O           -2.64663400000000       -3.54307200000000        1.25452400000000
H           -4.58930100000000       -7.61331500000000        1.25981100000000
H           -6.60612200000000       -6.95326000000000        4.46615600000000
H           -6.90357000000000       -7.60248100000000        2.84883800000000
H           -5.57118400000000       -8.23979900000000        3.83371500000000
H           -3.05744800000000       -5.89392900000000        0.21204700000000
15
 energy: -22.812153171223 gnorm: 0.048929977935 xtb: 6.7.1 (edcfbbe)
C           -5.17355397418304       -6.30064564723790        2.95155972608948
C           -4.99539290872188       -5.03174299126199        3.53717732990562
C           -6.10367502139085       -7.31808190865301        3.55238272450380
C           -4.46534808291799       -6.60281603057052        1.76913914615343
C           -4.13181358436003       -4.09157576960574        2.97386839020323
H           -5.54264535417903       -4.77022540750900        4.43821592598787
C           -3.40788311927812       -4.37893758379399        1.76995336077059
H           -4.01257677663029       -3.11463985602331        3.42661867109632
C           -3.60379856735275       -5.67440487435362        1.18642099695286
O           -2.62896174196183       -3.53209666965629        1.25002556738428
H           -4.59583280261241       -7.57177103042106        1.29598533582743
H           -6.59064393289995       -6.94000017440561        4.45491167272865
H           -6.89509344677505       -7.60217360500849        2.84977455411666
H           -5.57193284101667       -8.23553577722583        3.82833352633128
H           -3.08458584572011       -5.90896967427364        0.26481007194851
15
 energy: -22.814224239607 gnorm: 0.012685992028 xtb: 6.7.1 (edcfbbe)
C           -5.17183105184288       -6.29385589863338        2.94455687124560
C           -4.98821922535468       -5.04163282066665        3.51261624514449
C           -6.10072959481031       -7.31464984100199        3.55016548534850
C           -4.46999326575789       -6.57810008136523        1.77902563748544
C           -4.14552523179430       -4.11571808485780        2.96102219544723
H           -5.52976507510762       -4.79241834718572        4.42482941001234
C           -3.39655363180324       -4.37535415294565        1.77085005800382
H           -4.02466324968839       -3.14223729699467        3.42445166630754
C           -3.62408801579835       -5.67038953731336        1.20667726667281
O           -2.62266462033702       -3.52452154765787        1.24630119794573
H           -4.59990109840612       -7.55501001105292        1.31481793665544
H           -6.57798169058702       -6.92394065735280        4.45078419435491
H           -6.89134943164785       -7.59932824747914        2.84761497032539
H           -5.56521717194930       -8.22999334740884        3.82388922885824
H           -3.09525564511504       -5.91646712808396        0.29157463619251
15
 energy: -22.814354719817 gnorm: 0.003851386587 xtb: 6.7.1 (edcfbbe)
C           -5.17611165599801       -6.29742498500155        2.94494381544966
C           -4.98906207521398       -5.04226814982030        3.51470138986208
C           -6.10328368359419       -7.31722707936771        3.55197201688391
C           -4.47020249748639       -6.58054953785484        1.77730024551296
C           -4.14461813318064       -4.11277686755018        2.95896863757355
H           -5.53095988905637       -4.79328427731829        4.42668683692819
C           -3.40620458799709       -4.36570758838945        1.75978173262339
H           -4.01870680597611       -3.14326197480304        3.43002409424757
C           -3.62143717644912       -5.66776078973876        1.20447554688279
O           -2.61949764926982       -3.52176008916009        1.24572834840833
H           -4.60240281250522       -7.55624730293655        1.31133152860296
H           -6.57698913325915       -6.92254243263236        4.45197255175622
H           -6.89393081638874       -7.60172716852351        2.85030946329386
H           -5.56588262617726       -8.23086702609336        3.82551796176993
H           -3.08444845744791       -5.92021173081002        0.29546283020459
15
 energy: -22.814372014989 gnorm: 0.001837454211 xtb: 6.7.1 (edcfbbe)
C           -5.17795252147944       -6.29804477268846        2.94384664027740
C           -4.98954967841585       -5.04237825542263        3.51451726285044
C           -6.10438821252921       -7.31734572400594        3.55213761165696
C           -4.47017730858766       -6.58092625987266        1.77613169488445
C           -4.14367363655801       -4.11302046815233        2.95877211123262
H           -5.52970299003997       -4.79399412563928        4.42774744863830
C           -3.39941842955787       -4.36724445147942        1.76331114269456
H           -4.02183792727847       -3.14290234056655        3.42964332291985
C           -3.62024824133161       -5.66712112680888        1.20459278007262
O           -2.62178755737314       -3.52006829452213        1.24414981070154
H           -4.60069072626470       -7.55706903929333        1.31049562138850
H           -6.57636586747259       -6.92100843509563        4.45184268249751
H           -6.89551790543600       -7.60236268665521        2.85173609202517
H           -5.56643423818326       -8.23025205433946        3.82593356904420
H           -3.08599275949220       -5.91987896545811        0.29431920911589
15
 energy: -22.814375392842 gnorm: 0.000927835759 xtb: 6.7.1 (edcfbbe)
C           -5.17753022369058       -6.29792185620372        2.94308641563066
C           -4.98905776605780       -5.04292558786185        3.51365389458369
C           -6.10417250589355       -7.31680097954435        3.55211086077668
C           -4.46976537063907       -6.58030618137219        1.77602116588016
C           -4.14415130557517       -4.11412619108736        2.95863325659859
H           -5.52975944504152       -4.79427591074870        4.42650487446501
C           -3.40124957684492       -4.36607865135641        1.76187276080039
H           -4.02202328612326       -3.14492613820095        3.43204420108651
C           -3.62085175043330       -5.66708297860768        1.20507595674132
O           -2.62206517429376       -3.51986702856109        1.24431231103045
H           -4.60025994708989       -7.55621804087668        1.30969720180026
H           -6.57533823961476       -6.91954060897440        4.45162115120754
H           -6.89573946081392       -7.60221849473023        2.85254366813256
H           -5.56632850448889       -8.22957147891535        3.82630302869084
H           -3.08544544339962       -5.92175687295903        0.29569625257535
