15
 energy: -22.814375392921 gnorm: 0.000926679999 xtb: 6.7.1 (edcfbbe)
C           -5.17755292605490       -6.29788961002192        2.94311548054539
C           -4.98907190562697       -5.04289333272096        3.51368011121940
C           -6.10419841717001       -7.31676281852234        3.55214493855807
C           -4.46979362541346       -6.58027967792599        1.77604825309200
C           -4.14416251937703       -4.11409932856411        2.95865490289784
H           -5.52976909621545       -4.79423923129539        4.42653254452312
C           -3.40126628737310       -4.36605776737291        1.76189225363252
H           -4.02202777269358       -3.14489908890396        3.43206372950174
C           -3.62087721658452       -5.66706191655364        1.20509848681479
O           -2.62207926072034       -3.51985112769439        1.24432760708196
H           -4.60029493950027       -7.55619166802793        1.30972644781517
H           -6.57535893094240       -6.91949841101525        4.45165618031062
H           -6.89576930847215       -7.60217741003128        2.85258100715675
H           -5.56635823791187       -8.22953565547344        3.82633682212546
H           -3.08547541737159       -5.92174020143236        0.29571735822497
