 Entering Gaussian System
 *********************************************
 Gaussian 98:
 frequency output generated by the xtb code
 *********************************************
                         Standard orientation:
 --------------------------------------------------------------------
  Center     Atomic     Atomic              Coordinates (Angstroms)
  Number     Number      Type              X           Y           Z
 --------------------------------------------------------------------
    1          6             0       -6.319869   -3.538293    2.056189
    2          6             0       -5.988786   -4.016137    0.747552
    3          8             0       -9.408866   -5.338216    2.933638
    4          1             0       -7.641832   -3.583958    3.743828
    5          6             0       -6.908441   -4.981954    0.230262
    6          8             0       -4.976329   -3.621082    0.107058
    7          6             0       -8.010695   -5.407508    0.935784
    8          1             0       -9.861393   -5.980346    2.376904
    9          6             0       -8.282157   -4.909455    2.201172
   10          1             0       -8.685340   -6.146990    0.500221
   11          6             0       -7.423529   -3.969427    2.753492
   12          1             0       -5.659753   -2.803117    2.503414
   13          1             0       -6.716840   -5.385984   -0.757925
 --------------------------------------------------------------------
     1 basis functions        1 primitive gaussians
     1 alpha electrons        1 beta electrons
 
 Harmonic frequencies (cm**-1), IR intensities (km*mol⁻¹),
 Raman scattering activities (A**4/amu), Raman depolarization ratios,
 reduced masses (AMU), force constants (mDyne/A) and normal coordinates:
                      1                      2                      3
                        a                      a                      a 
 Frequencies --   135.1743               299.0074               335.4932
 Red. masses --    13.6163                 2.4106                13.0509
 Frc consts  --     0.0000                 0.0000                 0.0000
 IR Inten    --     5.6540               131.3065                 9.7580
 Raman Activ --     0.0000                 0.0000                 0.0000
 Depolar     --     0.0000                 0.0000                 0.0000
 Atom AN      X      Y      Z        X      Y      Z        X      Y      Z
   1   6     0.16  -0.22   0.12    -0.10   0.13  -0.07    -0.10  -0.10  -0.05
   2   6     0.01  -0.01   0.00    -0.02   0.02  -0.01    -0.03  -0.03  -0.03
   3   8    -0.28   0.38  -0.21     0.08  -0.11   0.06     0.21   0.40   0.45
   4   1     0.04  -0.06   0.03    -0.00   0.00  -0.00    -0.07  -0.08  -0.06
   5   6     0.17  -0.23   0.13    -0.03   0.04  -0.02     0.03  -0.06  -0.15
   6   8    -0.32   0.43  -0.24     0.04  -0.06   0.03     0.09   0.24   0.33
   7   6     0.14  -0.19   0.11     0.04  -0.06   0.03    -0.06  -0.18  -0.24
   8   1    -0.10   0.13  -0.07    -0.51   0.69  -0.38    -0.10   0.07   0.26
   9   6     0.03  -0.04   0.02     0.12  -0.16   0.09    -0.04  -0.17  -0.24
  10   1     0.05  -0.06   0.03    -0.00   0.01  -0.00     0.00  -0.05  -0.09
  11   6     0.14  -0.19   0.10     0.01  -0.02   0.01    -0.09  -0.18  -0.20
  12   1     0.06  -0.08   0.04    -0.06   0.08  -0.04    -0.04  -0.03  -0.00
  13   1     0.06  -0.08   0.05    -0.03   0.03  -0.02     0.03  -0.00  -0.05
                      4                      5                      6
                        a                      a                      a 
 Frequencies --   341.5872               375.2131               435.2769
 Red. masses --    11.9378                 9.5367                13.6777
 Frc consts  --     0.0000                 0.0000                 0.0000
 IR Inten    --    12.1038                 0.5754                 1.0291
 Raman Activ --     0.0000                 0.0000                 0.0000
 Depolar     --     0.0000                 0.0000                 0.0000
 Atom AN      X      Y      Z        X      Y      Z        X      Y      Z
   1   6     0.17  -0.23   0.13    -0.24   0.33  -0.18     0.03   0.16   0.25
   2   6     0.12  -0.17   0.09    -0.01   0.01  -0.00    -0.28  -0.06   0.27
   3   8     0.24  -0.32   0.18    -0.01   0.01  -0.00     0.42   0.17  -0.26
   4   1    -0.06   0.08  -0.04     0.14  -0.19   0.11    -0.08  -0.04   0.04
   5   6     0.19  -0.26   0.14     0.24  -0.33   0.18    -0.05  -0.07  -0.05
   6   8    -0.14   0.18  -0.10     0.00  -0.00   0.00    -0.42  -0.25   0.10
   7   6    -0.16   0.21  -0.12    -0.23   0.32  -0.18    -0.02  -0.12  -0.18
   8   1    -0.11   0.15  -0.08     0.03  -0.04   0.02     0.09   0.04  -0.05
   9   6    -0.25   0.34  -0.19    -0.01   0.01  -0.00     0.27   0.08  -0.22
  10   1    -0.06   0.08  -0.05    -0.13   0.18  -0.10    -0.04  -0.03  -0.00
  11   6    -0.16   0.22  -0.12     0.24  -0.32   0.18     0.03   0.08   0.11
  12   1     0.07  -0.09   0.05    -0.11   0.15  -0.09     0.03   0.04   0.03
  13   1     0.07  -0.10   0.05     0.12  -0.16   0.09     0.08   0.05  -0.02
                      7                      8                      9
                        a                      a                      a 
 Frequencies --   443.4459               470.8866               618.0342
 Red. masses --    11.9005                 8.5306                11.6567
 Frc consts  --     0.0000                 0.0000                 0.0000
 IR Inten    --     5.4036                 4.6015                 1.6558
 Raman Activ --     0.0000                 0.0000                 0.0000
 Depolar     --     0.0000                 0.0000                 0.0000
 Atom AN      X      Y      Z        X      Y      Z        X      Y      Z
   1   6     0.06   0.17   0.22    -0.04   0.05  -0.03    -0.37  -0.24   0.07
   2   6     0.17   0.24   0.21    -0.23   0.30  -0.17    -0.01  -0.04  -0.06
   3   8    -0.07   0.04   0.18     0.06  -0.08   0.05     0.05   0.10   0.11
   4   1    -0.09  -0.09  -0.04     0.16  -0.22   0.12    -0.08   0.00   0.11
   5   6     0.13   0.25   0.29    -0.04   0.06  -0.03     0.27   0.02  -0.32
   6   8    -0.02  -0.27  -0.47     0.10  -0.14   0.07    -0.05  -0.15  -0.21
   7   6     0.00  -0.08  -0.14     0.14  -0.18   0.10     0.38   0.27  -0.03
   8   1    -0.08  -0.00   0.11    -0.05   0.06  -0.03    -0.03   0.02   0.07
   9   6    -0.13  -0.17  -0.13    -0.31   0.42  -0.23     0.01   0.03   0.04
  10   1     0.06  -0.02  -0.13     0.17  -0.23   0.13     0.10   0.07  -0.00
  11   6    -0.11  -0.17  -0.16     0.12  -0.17   0.09    -0.29   0.01   0.39
  12   1    -0.06   0.05   0.18     0.14  -0.19   0.11    -0.10  -0.06   0.02
  13   1     0.12   0.13   0.07     0.14  -0.19   0.11     0.07  -0.00  -0.09
                     10                     11                     12
                        a                      a                      a 
 Frequencies --   644.9306               748.7359               768.8920
 Red. masses --    10.2250                12.7612                 7.0004
 Frc consts  --     0.0000                 0.0000                 0.0000
 IR Inten    --     0.7349                75.4264                52.6586
 Raman Activ --     0.0000                 0.0000                 0.0000
 Depolar     --     0.0000                 0.0000                 0.0000
 Atom AN      X      Y      Z        X      Y      Z        X      Y      Z
   1   6     0.12  -0.16   0.09     0.27   0.22   0.04    -0.15   0.21  -0.12
   2   6    -0.30   0.41  -0.23    -0.16  -0.06   0.10     0.28  -0.38   0.21
   3   8    -0.02   0.03  -0.01    -0.45  -0.17   0.29    -0.01   0.02  -0.01
   4   1     0.03  -0.04   0.02     0.09   0.04  -0.03     0.11  -0.15   0.08
   5   6     0.11  -0.15   0.08     0.18  -0.05  -0.33    -0.17   0.23  -0.13
   6   8     0.08  -0.10   0.06    -0.27  -0.11   0.17    -0.08   0.12  -0.06
   7   6    -0.18   0.24  -0.13     0.24   0.09  -0.16    -0.08   0.11  -0.06
   8   1    -0.00   0.00  -0.00    -0.09  -0.04   0.06    -0.00   0.00  -0.00
   9   6     0.25  -0.33   0.18    -0.02  -0.01   0.01     0.10  -0.13   0.07
  10   1     0.04  -0.06   0.03     0.08   0.02  -0.07     0.14  -0.19   0.11
  11   6    -0.17   0.23  -0.13     0.23   0.09  -0.13    -0.06   0.08  -0.05
  12   1     0.15  -0.21   0.11     0.13   0.06  -0.07     0.21  -0.28   0.16
  13   1     0.16  -0.21   0.12     0.13   0.04  -0.10     0.24  -0.33   0.18
                     13                     14                     15
                        a                      a                      a 
 Frequencies --   828.4958               861.7250               873.9045
 Red. masses --     3.3070                11.9030                 2.4494
 Frc consts  --     0.0000                 0.0000                 0.0000
 IR Inten    --     0.7111                18.2877                 0.5012
 Raman Activ --     0.0000                 0.0000                 0.0000
 Depolar     --     0.0000                 0.0000                 0.0000
 Atom AN      X      Y      Z        X      Y      Z        X      Y      Z
   1   6    -0.14   0.19  -0.10    -0.08  -0.23  -0.30     0.02  -0.02   0.01
   2   6     0.01  -0.02   0.01    -0.14  -0.05   0.10     0.05  -0.07   0.04
   3   8    -0.00   0.01  -0.00     0.17   0.07  -0.09    -0.01   0.02  -0.01
   4   1     0.21  -0.29   0.16     0.12   0.02  -0.12     0.21  -0.29   0.16
   5   6     0.11  -0.15   0.08     0.11   0.24   0.28     0.10  -0.14   0.08
   6   8    -0.00   0.01  -0.00    -0.31  -0.12   0.19    -0.00   0.00  -0.00
   7   6     0.12  -0.16   0.09     0.25   0.30   0.20    -0.14   0.20  -0.11
   8   1     0.01  -0.01   0.01     0.04   0.02  -0.02    -0.01   0.01  -0.00
   9   6     0.01  -0.02   0.01    -0.10  -0.04   0.06    -0.00   0.00  -0.00
  10   1    -0.22   0.30  -0.16     0.13   0.08  -0.03     0.36  -0.49   0.27
  11   6    -0.12   0.17  -0.09     0.04  -0.19  -0.40    -0.06   0.09  -0.05
  12   1     0.29  -0.39   0.22    -0.04  -0.07  -0.07    -0.10   0.14  -0.08
  13   1    -0.24   0.32  -0.18     0.02   0.06   0.08    -0.26   0.36  -0.20
                     16                     17                     18
                        a                      a                      a 
 Frequencies --   892.2491               984.3982              1099.3697
 Red. masses --     3.3674                 8.8095                 4.7993
 Frc consts  --     0.0000                 0.0000                 0.0000
 IR Inten    --     0.3800                 4.1493                19.4294
 Raman Activ --     0.0000                 0.0000                 0.0000
 Depolar     --     0.0000                 0.0000                 0.0000
 Atom AN      X      Y      Z        X      Y      Z        X      Y      Z
   1   6     0.13  -0.18   0.10     0.12   0.24   0.29     0.13   0.14   0.09
   2   6     0.02  -0.02   0.01     0.02   0.00  -0.01    -0.08  -0.20  -0.25
   3   8    -0.01   0.01  -0.01     0.13   0.05  -0.08     0.02  -0.03  -0.08
   4   1     0.35  -0.47   0.26    -0.16  -0.16  -0.07    -0.34  -0.21   0.07
   5   6    -0.09   0.12  -0.07    -0.08  -0.23  -0.31    -0.01   0.11   0.22
   6   8    -0.00   0.00  -0.00     0.04   0.02  -0.03    -0.00   0.01   0.03
   7   6     0.10  -0.13   0.07     0.12   0.25   0.29     0.11   0.13   0.09
   8   1     0.00  -0.01   0.00     0.03   0.01  -0.02    -0.24  -0.05   0.23
   9   6     0.00  -0.00   0.00    -0.15  -0.06   0.09    -0.03  -0.13  -0.20
  10   1    -0.15   0.20  -0.11    -0.06   0.07   0.21     0.20   0.03  -0.21
  11   6    -0.17   0.23  -0.13    -0.08  -0.23  -0.32    -0.01   0.07   0.15
  12   1    -0.27   0.36  -0.20    -0.11   0.07   0.28     0.27   0.03  -0.30
  13   1     0.14  -0.19   0.11    -0.23  -0.20  -0.06    -0.30  -0.18   0.09
                     19                     20                     21
                        a                      a                      a 
 Frequencies --  1149.4101              1183.1422              1215.1291
 Red. masses --     2.7515                 1.7282                 8.4768
 Frc consts  --     0.0000                 0.0000                 0.0000
 IR Inten    --   141.0881                 6.5649               188.4119
 Raman Activ --     0.0000                 0.0000                 0.0000
 Depolar     --     0.0000                 0.0000                 0.0000
 Atom AN      X      Y      Z        X      Y      Z        X      Y      Z
   1   6     0.01   0.01  -0.00    -0.06   0.01   0.09     0.12   0.15   0.11
   2   6     0.01   0.04   0.07     0.02  -0.00  -0.03    -0.05  -0.03   0.01
   3   8     0.12  -0.06  -0.26     0.01   0.01   0.00     0.26   0.12  -0.13
   4   1     0.31   0.22  -0.00     0.40   0.29  -0.01     0.21   0.17   0.02
   5   6     0.01  -0.01  -0.04    -0.07  -0.03   0.04     0.04  -0.05  -0.15
   6   8     0.00  -0.00  -0.01    -0.05  -0.02   0.03     0.06   0.02  -0.04
   7   6    -0.02   0.03   0.07     0.06  -0.02  -0.13    -0.10  -0.06   0.03
   8   1    -0.56  -0.12   0.54    -0.00   0.00   0.00     0.11   0.03  -0.09
   9   6    -0.08  -0.10  -0.07     0.02  -0.01  -0.05    -0.53  -0.22   0.31
  10   1    -0.17   0.02   0.26     0.28  -0.02  -0.40     0.16  -0.03  -0.28
  11   6     0.04   0.05   0.05     0.08   0.08   0.04    -0.12  -0.04   0.09
  12   1    -0.03   0.00   0.05    -0.23   0.01   0.34     0.23   0.03  -0.25
  13   1     0.09   0.05  -0.02    -0.44  -0.30   0.05     0.17   0.10  -0.06
                     22                     23                     24
                        a                      a                      a 
 Frequencies --  1234.8188              1321.2885              1405.4950
 Red. masses --     6.7901                 6.4988                 9.7645
 Frc consts  --     0.0000                 0.0000                 0.0000
 IR Inten    --     1.8713                37.2911                 4.7744
 Raman Activ --     0.0000                 0.0000                 0.0000
 Depolar     --     0.0000                 0.0000                 0.0000
 Atom AN      X      Y      Z        X      Y      Z        X      Y      Z
   1   6     0.00  -0.08  -0.14     0.15  -0.07  -0.33    -0.21  -0.00   0.28
   2   6     0.16   0.38   0.48     0.06   0.17   0.22    -0.19  -0.08   0.11
   3   8    -0.01   0.00   0.02     0.05  -0.03  -0.12    -0.09  -0.04   0.05
   4   1     0.07   0.04  -0.01    -0.30  -0.21   0.03     0.20   0.11  -0.07
   5   6    -0.08  -0.10  -0.08    -0.25  -0.23  -0.08    -0.36  -0.23   0.07
   6   8    -0.01  -0.04  -0.05    -0.00   0.00   0.01     0.27   0.11  -0.17
   7   6     0.10  -0.00  -0.15     0.01  -0.00  -0.01     0.12   0.17   0.14
   8   1     0.01   0.00  -0.01    -0.21  -0.04   0.20    -0.03  -0.01   0.02
   9   6     0.03   0.02   0.00     0.05   0.21   0.31     0.29   0.12  -0.18
  10   1    -0.08   0.00   0.12     0.26  -0.01  -0.37     0.18   0.05  -0.16
  11   6    -0.15  -0.11   0.00     0.00   0.02   0.03    -0.06  -0.15  -0.18
  12   1     0.26  -0.03  -0.41    -0.14  -0.01   0.17     0.13  -0.01  -0.20
  13   1    -0.38  -0.27   0.01     0.15   0.09  -0.04     0.22   0.16   0.00
                     25                     26                     27
                        a                      a                      a 
 Frequencies --  1445.2661              1541.3446              1557.2750
 Red. masses --    10.8249                11.2731                11.8246
 Frc consts  --     0.0000                 0.0000                 0.0000
 IR Inten    --    98.7189                 7.0248               444.1878
 Raman Activ --     0.0000                 0.0000                 0.0000
 Depolar     --     0.0000                 0.0000                 0.0000
 Atom AN      X      Y      Z        X      Y      Z        X      Y      Z
   1   6    -0.38  -0.16   0.22    -0.05   0.07   0.21    -0.08  -0.07  -0.01
   2   6     0.02   0.10   0.15    -0.04  -0.14  -0.21    -0.48  -0.20   0.28
   3   8    -0.00  -0.03  -0.05     0.01  -0.03  -0.07     0.04   0.01  -0.02
   4   1    -0.11  -0.11  -0.05     0.05   0.00  -0.06    -0.12  -0.09   0.00
   5   6     0.32   0.10  -0.24     0.17   0.16   0.06    -0.02   0.05   0.11
   6   8     0.01  -0.03  -0.06    -0.02  -0.00   0.02     0.33   0.13  -0.21
   7   6    -0.36  -0.11   0.29    -0.02  -0.18  -0.30     0.22  -0.02  -0.33
   8   1    -0.06  -0.02   0.06    -0.13  -0.03   0.12     0.01   0.00  -0.01
   9   6     0.03   0.04   0.04     0.20   0.42   0.50    -0.23  -0.07   0.18
  10   1     0.08  -0.04  -0.18    -0.05  -0.04  -0.00    -0.10  -0.00   0.13
  11   6     0.39   0.17  -0.22    -0.21  -0.27  -0.20     0.29   0.19  -0.05
  12   1     0.03  -0.05  -0.14     0.08   0.01  -0.09    -0.08  -0.02   0.07
  13   1    -0.07  -0.08  -0.06    -0.09  -0.06   0.02    -0.11  -0.05   0.05
                     28                     29                     30
                        a                      a                      a 
 Frequencies --  1638.6892              2923.3525              3004.4053
 Red. masses --    11.8433                 1.7871                 1.7604
 Frc consts  --     0.0000                 0.0000                 0.0000
 IR Inten    --   313.5580               182.6026                90.2901
 Raman Activ --     0.0000                 0.0000                 0.0000
 Depolar     --     0.0000                 0.0000                 0.0000
 Atom AN      X      Y      Z        X      Y      Z        X      Y      Z
   1   6    -0.29  -0.07   0.27    -0.00  -0.00  -0.00    -0.08  -0.08  -0.05
   2   6     0.40   0.15  -0.26     0.00   0.00   0.00    -0.01  -0.01  -0.00
   3   8     0.04   0.01  -0.03     0.00   0.00  -0.00     0.00  -0.00  -0.00
   4   1    -0.07  -0.05  -0.01    -0.01   0.02   0.05     0.16  -0.30  -0.77
   5   6    -0.32  -0.17   0.13    -0.01   0.00   0.02     0.00   0.00  -0.00
   6   8    -0.19  -0.07   0.12    -0.00  -0.00   0.00     0.00   0.00   0.00
   7   6     0.26   0.04  -0.28    -0.16  -0.18  -0.11    -0.00  -0.01  -0.01
   8   1    -0.00   0.00   0.01     0.01   0.00  -0.00     0.00   0.00   0.00
   9   6    -0.19  -0.06   0.14    -0.02  -0.01   0.01    -0.01  -0.00   0.01
  10   1    -0.04   0.01   0.07     0.58   0.65   0.39     0.02   0.03   0.02
  11   6     0.31   0.17  -0.10     0.01  -0.00  -0.01    -0.04   0.08   0.21
  12   1     0.05  -0.02  -0.10     0.01   0.01   0.00     0.29   0.32   0.19
  13   1     0.08   0.07   0.01     0.02  -0.04  -0.10    -0.00  -0.00  -0.00
                     31                     32                     33
                        a                      a                      a 
 Frequencies --  3018.5887              3029.0568              3550.1327
 Red. masses --     1.8311                 1.8534                 1.8715
 Frc consts  --     0.0000                 0.0000                 0.0000
 IR Inten    --   237.8770                58.6903                 4.6693
 Raman Activ --     0.0000                 0.0000                 0.0000
 Depolar     --     0.0000                 0.0000                 0.0000
 Atom AN      X      Y      Z        X      Y      Z        X      Y      Z
   1   6    -0.06  -0.07  -0.04     0.13   0.15   0.09    -0.00  -0.00   0.00
   2   6     0.01   0.00  -0.01     0.02   0.01  -0.01     0.00  -0.00  -0.00
   3   8     0.00  -0.00  -0.00     0.00   0.00  -0.00     0.11   0.16   0.14
   4   1    -0.04   0.07   0.18     0.08  -0.15  -0.39     0.00  -0.00  -0.00
   5   6     0.05  -0.09  -0.22     0.02  -0.04  -0.10     0.00   0.00   0.00
   6   8    -0.00   0.00   0.00    -0.01  -0.00   0.00    -0.00  -0.00   0.00
   7   6    -0.02  -0.02  -0.02    -0.01  -0.02  -0.01    -0.00  -0.00  -0.00
   8   1    -0.00  -0.00  -0.00     0.00   0.00   0.00    -0.46  -0.65  -0.56
   9   6     0.00   0.00   0.00    -0.01  -0.00   0.00     0.01   0.01   0.00
  10   1     0.05   0.06   0.04     0.05   0.05   0.03     0.00   0.00  -0.00
  11   6     0.01  -0.02  -0.05    -0.02   0.05   0.12     0.00   0.00  -0.00
  12   1     0.22   0.24   0.14    -0.46  -0.52  -0.31     0.00   0.00  -0.00
  13   1    -0.16   0.32   0.79    -0.07   0.15   0.36    -0.00  -0.00   0.00
