13
 energy: -23.714941674474 gnorm: 0.075440775828 xtb: 6.7.1 (edcfbbe)
C           -6.32095800000000       -3.54648800000000        2.04286000000000
C           -6.00247700000000       -4.02195100000000        0.75541100000000
O           -9.37971400000000       -5.32152700000000        2.92490000000000
H           -7.63528800000000       -3.57442800000000        3.75239200000000
C           -6.90392200000000       -4.97282200000000        0.24081600000000
O           -4.98016100000000       -3.62421300000000        0.10655200000000
C           -8.03256000000000       -5.42042300000000        0.94175700000000
H           -9.84762300000000       -5.97025200000000        2.37680700000000
C           -8.29232100000000       -4.91425400000000        2.20616800000000
H           -8.67621700000000       -6.15456600000000        0.47437000000000
C           -7.44296100000000       -3.97717100000000        2.76556000000000
H           -5.66041200000000       -2.80803100000000        2.49543800000000
H           -6.70896500000000       -5.37687100000000       -0.75188400000000
13
 energy: -23.717884013887 gnorm: 0.030460258563 xtb: 6.7.1 (edcfbbe)
C           -6.32054743349310       -3.54142716111532        2.05147555989820
C           -5.99552868407298       -4.01867571747102        0.75203949540486
O           -9.39497451192640       -5.33032431066637        2.92940523439932
H           -7.63343101407193       -3.57794707620907        3.74352767789855
C           -6.90661062346327       -4.97829599596219        0.23450412035412
O           -4.97759181441467       -3.62214548008068        0.10685963968164
C           -8.01818160676132       -5.41265944436674        0.93656099210091
H           -9.86119973708621       -5.97637214751261        2.38391197483989
C           -8.28610216055533       -4.91218308282278        2.20158889571754
H           -8.67581684632179       -6.14953369449792        0.48294927436037
C           -7.43044494498903       -3.97306795993264        2.75622525161686
H           -5.66517887371768       -2.80521056131934        2.50693122514522
H           -6.71797074912630       -5.38515436804332       -0.75483234141747
13
 energy: -23.718467387049 gnorm: 0.003600056019 xtb: 6.7.1 (edcfbbe)
C           -6.32005926197449       -3.53868023362841        2.05579664388638
C           -5.98938213382955       -4.01616769847291        0.74835033941916
O           -9.40641102373681       -5.33681647948182        2.93296506299194
H           -7.63776764562696       -3.58254611066600        3.74100255205884
C           -6.90765171897848       -4.98127801583946        0.23049647644273
O           -4.97581577254195       -3.62088427676672        0.10677050310912
C           -8.00976246642472       -5.40745888452217        0.93470188272659
H           -9.86647763251096       -5.98016011726836        2.38412714228588
C           -8.28282225566102       -4.91061324318899        2.20003870057050
H           -8.68067581380281       -6.14678704772003        0.49442962433442
C           -7.42346803178800       -3.97054479172385        2.75144924412758
H           -5.66410191525891       -2.80372577887949        2.50817901871100
H           -6.71918332786532       -5.38733432184177       -0.75716019066413
13
 energy: -23.718484926602 gnorm: 0.001297687211 xtb: 6.7.1 (edcfbbe)
C           -6.31973950771901       -3.53835581473394        2.05595590536977
C           -5.98848801616961       -4.01591890306168        0.74760513799579
O           -9.40818686451595       -5.33779891968021        2.93356389738681
H           -7.64013296620738       -3.58358583253292        3.74228621765878
C           -6.90775769909064       -4.98158557318844        0.23008117900127
O           -4.97563650449142       -3.62081038215146        0.10666643609868
C           -8.00987488658385       -5.40727725677299        0.93518074178101
H           -9.86495050513113       -5.98057169984060        2.38134043179740
C           -8.28265503445429       -4.91019614126742        2.20056937184789
H           -8.68313521309051       -6.14683919008278        0.49762756674508
C           -7.42338368264254       -3.97009650304696        2.75214691784393
H           -5.66184226678853       -2.80330456678643        2.50591545909349
H           -6.71779585311514       -5.38665621685418       -0.75779226261989
13
 energy: -23.718488688804 gnorm: 0.000738228781 xtb: 6.7.1 (edcfbbe)
C           -6.31985689046492       -3.53832929792317        2.05616081166119
C           -5.98876659776038       -4.01616945432978        0.74752407083123
O           -9.40884790242363       -5.33826964841526        2.93359604135591
H           -7.64182539426833       -3.58400375110860        3.74379465498130
C           -6.90841500854334       -4.98198963547574        0.23022889202142
O           -4.97631026224292       -3.62110754269904        0.10703393961255
C           -8.01066877623996       -5.40755115830468        0.93574655182389
H           -9.86136874236297       -5.98040078441766        2.37685852480156
C           -8.28213837116046       -4.90950170054417        2.20113401242872
H           -8.68530848747393       -6.14703568335192        0.50017997801200
C           -7.42351675559996       -3.96947027763519        2.75345849431626
H           -5.65974680855048       -2.80315043998486        2.50338869661498
H           -6.71680900290873       -5.38601762580991       -0.75795766846100
