7
 energy: -21.932884889579 gnorm: 0.150261308931 xtb: 6.7.1 (edcfbbe)
C           -0.28889400000000       -0.90459000000000        0.89015300000000
C           -0.37035700000000       -0.80591000000000       -0.64906900000000
Cl          -1.89682500000000       -1.22989100000000        1.60036300000000
H            0.36344600000000       -1.73194900000000        1.18470000000000
Cl           0.40387400000000        0.58215300000000        1.60065200000000
O           -1.06968400000000        0.12836500000000       -1.14094700000000
O            0.29115400000000       -1.69708300000000       -1.27008000000000
7
 energy: -21.945358984990 gnorm: 0.091143558691 xtb: 6.7.1 (edcfbbe)
C           -0.28101126799716       -0.91341325276498        0.91074196363135
C           -0.37347357111003       -0.80113367562799       -0.65509184773705
Cl          -1.90422796935763       -1.22645151252146        1.55211285442563
H            0.37535636526253       -1.74743436009627        1.17019189243344
Cl           0.40310911697042        0.59013968708384        1.55470726959956
O           -1.06197936657410        0.11537914088131       -1.09045901012944
O            0.27494069280597       -1.67599102695447       -1.22643112222348
7
 energy: -21.954188359763 gnorm: 0.053081435784 xtb: 6.7.1 (edcfbbe)
C           -0.28256476579501       -0.91127122395919        0.93923751059296
C           -0.38419363274427       -0.79412170849702       -0.70836158039381
Cl          -1.89030582459053       -1.22304974632911        1.53260082600985
H            0.37792891252501       -1.75123523395183        1.15932041516460
Cl           0.39759359931888        0.57733930392679        1.53505232977664
O           -1.05819839467296        0.11174062393647       -1.06286263400821
O            0.27245410595888       -1.66830701512612       -1.17921486714203
7
 energy: -21.959203943244 gnorm: 0.034684145143 xtb: 6.7.1 (edcfbbe)
C           -0.27736247644256       -0.91167552335239        0.97878887401558
C           -0.37710293257715       -0.78154006252419       -0.75824035187759
Cl          -1.88878125171775       -1.22005516641229        1.50898302846802
H            0.38462089478195       -1.75830040574437        1.16832630820430
Cl           0.39718613887416        0.57498272556146        1.52683467696575
O           -1.07962523193988        0.12185206876118       -1.04282511344057
O            0.27377885902123       -1.68416863628940       -1.16609542233550
7
 energy: -21.964784826447 gnorm: 0.046016170069 xtb: 6.7.1 (edcfbbe)
C           -0.28820908135276       -0.92095555947510        1.06798394341508
C           -0.42966405799923       -0.81076392773244       -0.88224302708279
Cl          -1.87872482268671       -1.21924345524155        1.54426223522194
H            0.38654060104361       -1.76776478941422        1.20038542512767
Cl           0.38967044488318        0.56933419828848        1.50501893880686
O           -1.06423470697038        0.16708361610085       -1.04258119301000
O            0.31733562308229       -1.67659508252601       -1.17705432247876
7
 energy: -21.972232646845 gnorm: 0.062844951043 xtb: 6.7.1 (edcfbbe)
C           -0.26983509404487       -0.91101960346841        1.20578520873818
C           -0.38613548607896       -0.76829637559826       -1.06651682480015
Cl          -1.87328788505696       -1.21339559334030        1.53666283423120
H            0.39832964112274       -1.77146374423474        1.26078544568256
Cl           0.38888298457990        0.56373386306300        1.57324812335202
O           -1.10887776882121        0.15242889951869       -1.07128169404043
O            0.28363760829935       -1.71089244593998       -1.22291109316339
7
 energy: -21.977272122859 gnorm: 0.029350791080 xtb: 6.7.1 (edcfbbe)
C           -0.26322449532439       -0.92810322672872        1.28052312071406
C           -0.39171271726610       -0.76418725183525       -1.13574729264940
Cl          -1.89529681320045       -1.22609276757416        1.55857942721928
H            0.40590489465819       -1.78263780432462        1.31099556708837
Cl           0.40222183303609        0.58350164398379        1.57917460531786
O           -1.09522855217753        0.14600308534897       -1.10579959501800
O            0.27004985027418       -1.68738867887002       -1.27195383267218
7
 energy: -21.979486232995 gnorm: 0.038661267686 xtb: 6.7.1 (edcfbbe)
C           -0.25609056068667       -0.94767552245656        1.36847842196440
C           -0.41070246727195       -0.75572888217422       -1.25881794658285
Cl          -1.89693744037046       -1.22629848638862        1.61713333062570
H            0.41253164889164       -1.79123083953239        1.36759446624780
Cl           0.39710323494474        0.58720823084599        1.61720003472613
O           -1.08393610990658        0.15272457088866       -1.17156643715166
O            0.27074569439928       -1.67790407118285       -1.32424986982952
7
 energy: -21.978608096635 gnorm: 0.093459280387 xtb: 6.7.1 (edcfbbe)
C           -0.23297285200478       -0.98186428230233        1.42317184467450
C           -0.41051924636949       -0.76772786340249       -1.33847483069379
Cl          -1.90235454514043       -1.20025167950237        1.64188331176364
H            0.42556313182711       -1.80632991917420        1.45264953026655
Cl           0.37046744772227        0.59917936127032        1.63057324986815
O           -1.08359405400090        0.16413614868975       -1.18274072381660
O            0.26612411796623       -1.66604676557868       -1.41129038206244
7
 energy: -21.980769704515 gnorm: 0.020559070700 xtb: 6.7.1 (edcfbbe)
C           -0.24195272039800       -0.96417678470411        1.39275900019746
C           -0.41053693790288       -0.75877263443990       -1.30500535733607
Cl          -1.89807226544325       -1.21164309863789        1.65283152789747
H            0.41847815405532       -1.79684199676820        1.43024348698284
Cl           0.38481109151947        0.58954506614542        1.65433729995347
O           -1.08724861376073        0.15484673780473       -1.21505505838465
O            0.26723529193008       -1.67186228940005       -1.39433889931052
7
 energy: -21.981301455523 gnorm: 0.013594544569 xtb: 6.7.1 (edcfbbe)
C           -0.24610474460299       -0.95655138205073        1.40059790084987
C           -0.41218319609207       -0.75720150182340       -1.32564380627604
Cl          -1.89663254657401       -1.21927263959378        1.67363739634904
H            0.41721951264055       -1.79533278517095        1.44765995625319
Cl           0.39129138189128        0.58758408790546        1.67780871445454
O           -1.08917547029941        0.15768047165662       -1.24579705904293
O            0.26829906303665       -1.67581125092322       -1.41249110258768
7
 energy: -21.981929756665 gnorm: 0.013998297790 xtb: 6.7.1 (edcfbbe)
C           -0.24879132575183       -0.94975141734536        1.41367372464604
C           -0.41268136393455       -0.75714621819854       -1.37319094482333
Cl          -1.88875063018976       -1.22187138984352        1.73082751870653
H            0.41492638922250       -1.79313305338568        1.50422123822718
Cl           0.39238550688865        0.58025738992351        1.73874191504881
O           -1.09154815721764        0.15891740310967       -1.32200078228947
O            0.26717358098262       -1.67617771426008       -1.47650066951575
7
 energy: -21.982176826063 gnorm: 0.008838951106 xtb: 6.7.1 (edcfbbe)
C           -0.24791825889779       -0.95022284015849        1.44497891379513
C           -0.41470701228156       -0.75525580069752       -1.42764230940560
Cl          -1.88912815690429       -1.22561353245339        1.76362456412991
H            0.41583846477228       -1.79408038639814        1.54993950589127
Cl           0.39763039874338        0.57910392548635        1.77331363476686
O           -1.09496606894654        0.16088449329718       -1.36833008200580
O            0.26596463351452       -1.67372085907599       -1.52011222717177
7
 energy: -21.982298226360 gnorm: 0.002105134901 xtb: 6.7.1 (edcfbbe)
C           -0.24467617659671       -0.95503605096575        1.47773093862883
C           -0.41684984565455       -0.75353435199703       -1.48452131581177
Cl          -1.88723049216031       -1.22339908727501        1.79913133746414
H            0.41775417117973       -1.79713428885419        1.59680733697288
Cl           0.39657546908344        0.57742354096350        1.80868994002586
O           -1.09743964261164        0.16228974011205       -1.41532326270483
O            0.26458051676004       -1.66951450198358       -1.56674297457512
7
 energy: -21.982314949373 gnorm: 0.001682363602 xtb: 6.7.1 (edcfbbe)
C           -0.24326355645557       -0.95710350991428        1.49105033178979
C           -0.41775422764239       -0.75218388512839       -1.50614422244062
Cl          -1.88713097077983       -1.22449761730549        1.81291547411291
H            0.41822521843794       -1.79780048506107        1.61829364017179
Cl           0.39816076441306        0.57704213673900        1.82282349543718
O           -1.09905448663843        0.16348754243293       -1.43641082834401
O            0.26353125866523       -1.66784918176270       -1.58675589072705
7
 energy: -21.982322659946 gnorm: 0.001518564028 xtb: 6.7.1 (edcfbbe)
C           -0.24197273381065       -0.95930487039720        1.50324436998309
C           -0.41910909328588       -0.75063753595357       -1.52361523033065
Cl          -1.88603079561934       -1.22465194753296        1.82343039244877
H            0.41917593866930       -1.79904731587840        1.63560510829452
Cl           0.39846167858001        0.57591931465558        1.83322884315883
O           -1.10048133326357        0.16496757301004       -1.45417757563177
O            0.26267033873012       -1.66615021790349       -1.60194390792280
7
 energy: -21.982331699357 gnorm: 0.001076934429 xtb: 6.7.1 (edcfbbe)
C           -0.24045169842928       -0.96138788271034        1.51272094229734
C           -0.42045166765463       -0.74869143433911       -1.53174561504991
Cl          -1.88575743622954       -1.22558697166130        1.82576707058226
H            0.42064664028410       -1.80073480543639        1.64699442461660
Cl           0.39969181974912        0.57531016632162        1.83610051788355
O           -1.10232940522184        0.16663749459801       -1.46469359543303
O            0.26136574750208       -1.66445156677249       -1.60937174489682
7
 energy: -21.982343272979 gnorm: 0.000698305099 xtb: 6.7.1 (edcfbbe)
C           -0.23709548431672       -0.96573194770919        1.52695947308429
C           -0.42353762813830       -0.74525466872695       -1.53919292230380
Cl          -1.88429087956645       -1.22636025551925        1.82316770194208
H            0.42346439307287       -1.80467233277379        1.66281162719574
Cl           0.40081890819438        0.57361995546722        1.83394060714359
O           -1.10580898899433        0.17015213316118       -1.47656942842281
O            0.25916367974856       -1.66065788389922       -1.61534505863910
7
 energy: -21.982346935055 gnorm: 0.000770438371 xtb: 6.7.1 (edcfbbe)
C           -0.23500286415981       -0.96774480098512        1.53052034057789
C           -0.42493347762564       -0.74336725895159       -1.53796872580231
Cl          -1.88448664182743       -1.22745371379305        1.81719314449317
H            0.42495548254918       -1.80661007322228        1.66823022128167
Cl           0.40239361015710        0.57337471153445        1.82908561408633
O           -1.10790727648458        0.17171863626229       -1.47741993740330
O            0.25769516739119       -1.65882250084469       -1.61386865723347
