 Entering Gaussian System
 *********************************************
 Gaussian 98:
 frequency output generated by the xtb code
 *********************************************
                         Standard orientation:
 --------------------------------------------------------------------
  Center     Atomic     Atomic              Coordinates (Angstroms)
  Number     Number      Type              X           Y           Z
 --------------------------------------------------------------------
    1          6             0       -3.777702   -1.767544    1.766905
    2         16             0       -5.267419   -2.415187    2.559455
    3          1             0       -4.023106   -1.405528    0.766384
    4          1             0       -3.375322   -0.944335    2.360817
    5          1             0       -3.029085   -2.558884    1.691702
 --------------------------------------------------------------------
     1 basis functions        1 primitive gaussians
     1 alpha electrons        1 beta electrons
 
 Harmonic frequencies (cm**-1), IR intensities (km*mol⁻¹),
 Raman scattering activities (A**4/amu), Raman depolarization ratios,
 reduced masses (AMU), force constants (mDyne/A) and normal coordinates:
                      1                      2                      3
                        a                      a                      a 
 Frequencies --   727.4191               937.6316               937.8793
 Red. masses --    17.5653                 3.0272                 3.0265
 Frc consts  --     0.0000                 0.0000                 0.0000
 IR Inten    --     1.7689                 0.2329                 0.2334
 Raman Activ --     0.0000                 0.0000                 0.0000
 Depolar     --     0.0000                 0.0000                 0.0000
 Atom AN      X      Y      Z        X      Y      Z        X      Y      Z
   1   6     0.65   0.28  -0.34     0.13  -0.35  -0.04    -0.17  -0.02  -0.33
   2  16    -0.46  -0.20   0.25    -0.04   0.12   0.01     0.06   0.01   0.11
   3   1     0.12   0.06  -0.07    -0.24   0.13   0.14     0.61   0.27  -0.15
   4   1     0.13   0.06  -0.06    -0.47   0.01   0.20    -0.33  -0.21   0.39
   5   1     0.13   0.05  -0.07     0.52   0.39  -0.27    -0.03  -0.03   0.27
                      4                      5                      6
                        a                      a                      a 
 Frequencies --  1316.0470              1485.1930              1485.5149
 Red. masses --     2.4120                 1.6911                 1.6902
 Frc consts  --     0.0000                 0.0000                 0.0000
 IR Inten    --    73.2915                 1.6843                 1.6897
 Raman Activ --     0.0000                 0.0000                 0.0000
 Depolar     --     0.0000                 0.0000                 0.0000
 Atom AN      X      Y      Z        X      Y      Z        X      Y      Z
   1   6     0.28   0.12  -0.15    -0.14   0.13  -0.16     0.00  -0.19  -0.15
   2  16     0.05   0.02  -0.03    -0.01   0.01  -0.01     0.00  -0.01  -0.01
   3   1    -0.51  -0.15   0.09    -0.24  -0.29  -0.05    -0.23   0.59   0.27
   4   1    -0.41  -0.07   0.35     0.44  -0.45   0.33     0.15   0.12  -0.28
   5   1    -0.35  -0.34   0.24     0.32   0.28   0.32     0.07   0.01   0.58
                      7                      8                      9
                        a                      a                      a 
 Frequencies --  2915.4754              2915.5979              2946.5147
 Red. masses --     1.9560                 1.9561                 1.1572
 Frc consts  --     0.0000                 0.0000                 0.0000
 IR Inten    --    99.9188                99.8449                69.9715
 Raman Activ --     0.0000                 0.0000                 0.0000
 Depolar     --     0.0000                 0.0000                 0.0000
 Atom AN      X      Y      Z        X      Y      Z        X      Y      Z
   1   6     0.01   0.22   0.19     0.17  -0.16   0.18     0.09   0.04  -0.05
   2  16     0.00   0.00   0.00     0.00  -0.00   0.00     0.01   0.00  -0.01
   3   1    -0.08   0.15  -0.25    -0.17   0.21  -0.66     0.17  -0.18   0.52
   4   1    -0.28  -0.58  -0.43    -0.00  -0.12  -0.03    -0.18  -0.43  -0.34
   5   1     0.34  -0.34   0.01    -0.40   0.47   0.07    -0.37   0.44   0.02
