      -----------------------------------------------------------      
     |                   =====================                   |     
     |                           x T B                           |     
     |                   =====================                   |     
     |                         S. Grimme                         |     
     |          Mulliken Center for Theoretical Chemistry        |     
     |                    University of Bonn                     |     
      -----------------------------------------------------------      

   * xtb version 6.7.1 (edcfbbe) compiled by 'albert@albert-system' on 2024-07-22

   xtb is free software: you can redistribute it and/or modify it under
   the terms of the GNU Lesser General Public License as published by
   the Free Software Foundation, either version 3 of the License, or
   (at your option) any later version.
   
   xtb is distributed in the hope that it will be useful,
   but WITHOUT ANY WARRANTY; without even the implied warranty of
   MERCHANTABILITY or FITNESS FOR A PARTICULAR PURPOSE.  See the
   GNU Lesser General Public License for more details.
   
   Cite this work as:
   * C. Bannwarth, E. Caldeweyher, S. Ehlert, A. Hansen, P. Pracht,
     J. Seibert, S. Spicher, S. Grimme, WIREs Comput. Mol. Sci., 2020, 11,
     e01493. DOI: 10.1002/wcms.1493
   
   for GFN2-xTB:
   * C. Bannwarth, S. Ehlert and S. Grimme., J. Chem. Theory Comput., 2019,
     15, 1652-1671. DOI: 10.1021/acs.jctc.8b01176
   for GFN1-xTB:
   * S. Grimme, C. Bannwarth, P. Shushkov, J. Chem. Theory Comput., 2017,
     13, 1989-2009. DOI: 10.1021/acs.jctc.7b00118
   for GFN0-xTB:
   * P. Pracht, E. Caldeweyher, S. Ehlert, S. Grimme, ChemRxiv, 2019, preprint.
     DOI: 10.26434/chemrxiv.8326202.v1
   for GFN-FF:
   * S. Spicher and S. Grimme, Angew. Chem. Int. Ed., 2020, 59, 15665-15673.
     DOI: 10.1002/anie.202004239
   
   for ALPB and GBSA implicit solvation:
   * S. Ehlert, M. Stahn, S. Spicher, S. Grimme, J. Chem. Theory Comput.,
     2021, 17, 4250-4261. DOI: 10.1021/acs.jctc.1c00471
   
   for ddCOSMO and CPCM-X implicit solvation:
   * M. Stahn, S. Ehlert, S. Grimme, J. Phys. Chem. A,
     2023, XX, XXXX-XXXX. DOI: 10.1021/acs.jpca.3c04382
   
   for DFT-D4:
   * E. Caldeweyher, C. Bannwarth and S. Grimme, J. Chem. Phys., 2017,
     147, 034112. DOI: 10.1063/1.4993215
   * E. Caldeweyher, S. Ehlert, A. Hansen, H. Neugebauer, S. Spicher,
     C. Bannwarth and S. Grimme, J. Chem. Phys., 2019, 150, 154122.
     DOI: 10.1063/1.5090222
   * E. Caldeweyher, J.-M. Mewes, S. Ehlert and S. Grimme, Phys. Chem. Chem. Phys.
     2020, 22, 8499-8512. DOI: 10.1039/D0CP00502A
   
   for sTDA-xTB:
   * S. Grimme and C. Bannwarth, J. Chem. Phys., 2016, 145, 054103.
     DOI: 10.1063/1.4959605
   
   in the mass-spec context:
   * V. Asgeirsson, C. Bauer and S. Grimme, Chem. Sci., 2017, 8, 4879.
     DOI: 10.1039/c7sc00601b
   * J. Koopman and S. Grimme, ACS Omega 2019, 4, 12, 15120-15133.
     DOI: 10.1021/acsomega.9b02011
   
   for metadynamics refer to:
   * S. Grimme, J. Chem. Theory Comput., 2019, 155, 2847-2862
     DOI: 10.1021/acs.jctc.9b00143
   
   for SPH calculations refer to:
   * S. Spicher and S. Grimme, J. Chem. Theory Comput., 2021, 17, 1701-1714
     DOI: 10.1021/acs.jctc.0c01306
   
   for ONIOM refer to:
   * C. Plett, A. Katbashev, S. Ehlert, S. Grimme, M. Bursch,
     Phys. Chem. Chem. Phys., 2023, 25, 17860-17868. DOI: 10.1039/D3CP02178E
   
   for DIPRO refer to:
   * J. Kohn, N. Gildemeister, S. Grimme, D. Fazzi, A. Hansen,
     J. Chem. Phys., 2023, just accepted.
   
   for PTB refer to:
   * S. Grimme, M. Mueller, A. Hansen, J. Chem. Phys., 2023, 158, 124111.
     DOI: 10.1063/5.0137838
   
   with help from (in alphabetical order)
   P. Atkinson, C. Bannwarth, F. Bohle, G. Brandenburg, E. Caldeweyher
   M. Checinski, S. Dohm, S. Ehlert, S. Ehrlich, I. Gerasimov, C. Hölzer
   A. Katbashev, J. Kohn, J. Koopman, C. Lavigne, S. Lehtola, F. März, M. Müller,
   F. Musil, H. Neugebauer, J. Pisarek, C. Plett, P. Pracht, F. Pultar,
   J. Seibert, P. Shushkov, S. Spicher, M. Stahn, M. Steiner, T. Strunk,
   J. Stückrath, T. Rose, and J. Unsleber
   
 * started run on 2025/10/18 at 05:34:37.837     
   ID    Z sym.   atoms
    1    6 C      1
    2   16 S      2
    3    1 H      3-5

           -------------------------------------------------
          |                Calculation Setup                |
           -------------------------------------------------

          program call               : xtb xyz.xyz --alpb water --charge -1 --ohess
          hostname                   : m003
          coordinate file            : xyz.xyz
          omp threads                :                     2


           -------------------------------------------------
          |                 G F N 2 - x T B                 |
           -------------------------------------------------

        Reference                      10.1021/acs.jctc.8b01176
      * Hamiltonian:
        H0-scaling (s, p, d)           1.850000    2.230000    2.230000
        zeta-weighting                 0.500000
      * Dispersion:
        s8                             2.700000
        a1                             0.520000
        a2                             5.000000
        s9                             5.000000
      * Repulsion:
        kExp                           1.500000    1.000000
        rExp                           1.000000
      * Coulomb:
        alpha                          2.000000
        third order                    shell-resolved
        anisotropic                    true
        a3                             3.000000
        a5                             4.000000
        cn-shift                       1.200000
        cn-exp                         4.000000
        max-rad                        5.000000

      * Solvation model:               ALPB
        Solvent                        water
        Parameter file                 internal GFN2-xTB/ALPB
        Dielectric constant                8.0200E+01
        Reference state                gsolv [1 M gas/solution]
        Free energy shift                  1.0808E-03 Eh       6.7819E-01 kcal/mol
        Temperature                        2.9815E+02 K
        Density                            1.0000E+00 kg/L
        Solvent mass                       1.8000E+01 g/mol
        Interaction kernel             P16
        Born radius scaling (c1)           1.4744E+00
        Born radii integrator          GBOBC
        Born offset                        0.0000E+00 a0       0.0000E+00 AA
        H-bond correction              true
        Ion screening                  false
        Surface tension                    1.0000E-05 Eh       1.5569E+01 dyn/cm
        Grid points                               230 per atom

          ...................................................
          :                      SETUP                      :
          :.................................................:
          :  # basis functions                  17          :
          :  # atomic orbitals                  16          :
          :  # shells                            8          :
          :  # electrons                        14          :
          :  max. iterations                   250          :
          :  Hamiltonian                  GFN2-xTB          :
          :  restarted?                      false          :
          :  GBSA solvation                   true          :
          :  PC potential                    false          :
          :  electronic temp.          300.0000000     K    :
          :  accuracy                    1.0000000          :
          :  -> integral cutoff          0.2500000E+02      :
          :  -> integral neglect         0.1000000E-07      :
          :  -> SCF convergence          0.1000000E-05 Eh   :
          :  -> wf. convergence          0.1000000E-03 e    :
          :  Broyden damping             0.4000000          :
          :  net charge                         -1          :
          :  unpaired electrons                  0          :
          ...................................................

 iter      E             dE          RMSdq      gap      omega  full diag
   1     -7.1630870 -0.716309E+01  0.699E+00    5.92       0.0  T
   2     -7.2527071 -0.896200E-01  0.411E+00    4.65       1.0  T
   3     -7.2551910 -0.248389E-02  0.184E+00    4.52       1.0  T
   4     -7.2555651 -0.374146E-03  0.396E-01    4.27       1.0  T
   5     -7.2555728 -0.765950E-05  0.115E-01    4.25       1.0  T
   6     -7.2555782 -0.540464E-05  0.900E-02    4.25       1.0  T
   7     -7.2555873 -0.912847E-05  0.244E-02    4.25       1.8  T
   8     -7.2555879 -0.583190E-06  0.544E-03    4.25       8.2  T
   9     -7.2555879 -0.224492E-07  0.425E-04    4.25     105.2  T
  10     -7.2555879 -0.486713E-10  0.215E-05    4.25    2078.8  T

   *** convergence criteria satisfied after 10 iterations ***

         #    Occupation            Energy/Eh            Energy/eV
      -------------------------------------------------------------
         1        2.0000           -0.6313106             -17.1788
         2        2.0000           -0.5784258             -15.7398
         3        2.0000           -0.4741469             -12.9022
         4        2.0000           -0.4741453             -12.9022
         5        2.0000           -0.4189420             -11.4000
         6        2.0000           -0.2888432              -7.8598
         7        2.0000           -0.2888431              -7.8598 (HOMO)
         8                         -0.1325757              -3.6076 (LUMO)
         9                          0.0399844               1.0880
        10                          0.0399848               1.0880
        11                          0.0611117               1.6629
        12                          0.0611117               1.6629
       ...                                ...                  ...
        16                          0.3288568               8.9486
      -------------------------------------------------------------
                  HL-Gap            0.1562674 Eh            4.2523 eV
             Fermi-level           -0.2107094 Eh           -5.7337 eV

 SCC (total)                   0 d,  0 h,  0 min,  0.031 sec
 SCC setup                      ...        0 min,  0.000 sec (  0.982%)
 Dispersion                     ...        0 min,  0.000 sec (  0.193%)
 classical contributions        ...        0 min,  0.000 sec (  0.086%)
 integral evaluation            ...        0 min,  0.029 sec ( 91.708%)
 iterations                     ...        0 min,  0.002 sec (  5.346%)
 molecular gradient             ...        0 min,  0.000 sec (  1.338%)
 printout                       ...        0 min,  0.000 sec (  0.247%)

         :::::::::::::::::::::::::::::::::::::::::::::::::::::
         ::                     SUMMARY                     ::
         :::::::::::::::::::::::::::::::::::::::::::::::::::::
         :: total energy              -7.200231145338 Eh    ::
         :: total w/o Gsasa/hb        -7.203723019399 Eh    ::
         :: gradient norm              0.021060254420 Eh/a0 ::
         :: HOMO-LUMO gap              4.252252004976 eV    ::
         ::.................................................::
         :: SCC energy                -7.255587859135 Eh    ::
         :: -> isotropic ES            0.151461379443 Eh    ::
         :: -> anisotropic ES          0.004017307760 Eh    ::
         :: -> anisotropic XC          0.006523591001 Eh    ::
         :: -> dispersion             -0.001871669222 Eh    ::
         :: -> Gsolv                  -0.098901366465 Eh    ::
         ::    -> Gelec               -0.102393240526 Eh    ::
         ::    -> Gsasa                0.002561353520 Eh    ::
         ::    -> Ghb                 -0.000150239157 Eh    ::
         ::    -> Gshift               0.001080759698 Eh    ::
         :: repulsion energy           0.055356713796 Eh    ::
         :: add. restraining           0.000000000000 Eh    ::
         :: total charge              -1.000000000000 e     ::
         :::::::::::::::::::::::::::::::::::::::::::::::::::::

      ----------------------------------------------------------- 
     |                   =====================                   |
     |                        A N C O P T                        |
     |                   =====================                   |
     |               Approximate Normal Coordinate               |
     |                Rational Function Optimizer                |
      ----------------------------------------------------------- 
      ----------------------------------------------------------- 
     |                   =====================                   |
     |                        A N C O P T                        |
     |                   =====================                   |
     |               Approximate Normal Coordinate               |
     |                Rational Function Optimizer                |
      ----------------------------------------------------------- 

          ...................................................
          :                      SETUP                      :
          :.................................................:
          :   optimization level            normal          :
          :   max. optcycles                   200          :
          :   ANC micro-cycles                  20          :
          :   degrees of freedom                 9          :
          :.................................................:
          :   RF solver                   davidson          :
          :   write xtbopt.log                true          :
          :   linear?                        false          :
          :   energy convergence         0.5000000E-05 Eh   :
          :   grad. convergence          0.1000000E-02 Eh/α :
          :   maxmium RF displ.          1.0000000          :
          :   Hlow (freq-cutoff)         0.1000000E-01      :
          :   Hmax (freq-cutoff)         5.0000000          :
          :   S6 in model hess.         20.0000000          :
          ...................................................

generating ANC from exact Hessian ...
Using Lindh-Hessian (1995)
 Shifting diagonal of input Hessian by   0.000000000000000E+000
 Lowest  eigenvalues of input Hessian
    0.000000    0.000000    0.000000    0.000000    0.000000    0.000000
    0.058764    0.058764    0.105814    0.105815    0.121825    0.390525
    1.026218    1.026221    1.055513
 Highest eigenvalues
    0.105815    0.121825    0.390525    1.026218    1.026221    1.055513
 

........................................................................
.............................. CYCLE    1 ..............................
........................................................................

 iter      E             dE          RMSdq      gap      omega  full diag
   1     -7.2555879 -0.725559E+01  0.423E-06    4.25       0.0  T
   2     -7.2555879  0.532907E-14  0.248E-06    4.25   18039.1  T
   3     -7.2555879 -0.355271E-14  0.759E-07    4.25   58944.4  T
     SCC iter.                  ...        0 min,  0.000 sec
     gradient                   ...        0 min,  0.000 sec
 * total energy  :    -7.2002311 Eh     change       -0.3863576E-12 Eh
   gradient norm :     0.0210602 Eh/α   predicted     0.0000000E+00 (-100.00%)
   displ. norm   :     0.1557081 α      lambda       -0.3144837E-02
   maximum displ.:     0.1543957 α      in ANC's #5, #6, #9, ...

........................................................................
.............................. CYCLE    2 ..............................
........................................................................

 iter      E             dE          RMSdq      gap      omega  full diag
   1     -7.2578506 -0.725785E+01  0.578E-01    4.45       0.0  T
   2     -7.2579002 -0.495358E-04  0.347E-01    4.42       1.0  T
   3     -7.2579013 -0.111605E-05  0.732E-02    4.42       1.0  T
   4     -7.2579050 -0.375316E-05  0.273E-02    4.41       1.6  T
   5     -7.2579051 -0.104787E-06  0.639E-03    4.41       7.0  T
   6     -7.2579052 -0.856238E-08  0.730E-04    4.41      61.3  T
   7     -7.2579052 -0.125048E-09  0.377E-04    4.41     118.7  T
     SCC iter.                  ...        0 min,  0.001 sec
     gradient                   ...        0 min,  0.000 sec
 * total energy  :    -7.2017841 Eh     change       -0.1552928E-02 Eh
   gradient norm :     0.0057330 Eh/α   predicted    -0.1610542E-02 (   3.71%)
   displ. norm   :     0.0106887 α      lambda       -0.5289036E-04
   maximum displ.:     0.0087985 α      in ANC's #6, #9, #5, ...

........................................................................
.............................. CYCLE    3 ..............................
........................................................................

 iter      E             dE          RMSdq      gap      omega  full diag
   1     -7.2592018 -0.725920E+01  0.294E-02    4.41       0.0  T
   2     -7.2592021 -0.291587E-06  0.149E-02    4.42       3.0  T
   3     -7.2592021 -0.326165E-07  0.719E-03    4.41       6.2  T
   4     -7.2592022 -0.896173E-08  0.292E-03    4.41      15.3  T
   5     -7.2592022 -0.457145E-09  0.582E-04    4.41      76.9  T
   6     -7.2592022 -0.710765E-10  0.131E-04    4.41     341.0  T
     SCC iter.                  ...        0 min,  0.000 sec
     gradient                   ...        0 min,  0.000 sec
 * total energy  :    -7.2018173 Eh     change       -0.3324682E-04 Eh
   gradient norm :     0.0022489 Eh/α   predicted    -0.2644867E-04 ( -20.45%)
   displ. norm   :     0.0037551 α      lambda       -0.7722819E-05
   maximum displ.:     0.0030915 α      in ANC's #9, #6, #5, ...

........................................................................
.............................. CYCLE    4 ..............................
........................................................................

 iter      E             dE          RMSdq      gap      omega  full diag
   1     -7.2596256 -0.725963E+01  0.136E-02    4.41       0.0  T
   2     -7.2596257 -0.138774E-06  0.691E-03    4.41       6.5  T
   3     -7.2596258 -0.909633E-08  0.453E-03    4.41       9.9  T
   4     -7.2596258 -0.328914E-08  0.163E-03    4.41      27.5  T
   5     -7.2596258 -0.284606E-09  0.339E-04    4.41     132.0  T
   6     -7.2596258 -0.276268E-10  0.584E-05    4.41     765.8  T
     SCC iter.                  ...        0 min,  0.000 sec
     gradient                   ...        0 min,  0.000 sec
 * total energy  :    -7.2018220 Eh     change       -0.4665880E-05 Eh
   gradient norm :     0.0008487 Eh/α   predicted    -0.3863205E-05 ( -17.20%)
   displ. norm   :     0.0024996 α      lambda       -0.1351985E-05
   maximum displ.:     0.0021840 α      in ANC's #9, #5, #6, ...

   *** GEOMETRY OPTIMIZATION CONVERGED AFTER 4 ITERATIONS ***

------------------------------------------------------------------------
 total energy gain   :        -0.0015908 Eh       -0.9983 kcal/mol
 total RMSD          :         0.0687427 a0        0.0364 Å
 total power (kW/mol):        -1.0441880 (step) -696.3695 (real)
------------------------------------------------------------------------

 ANCopt (total)                0 d,  0 h,  0 min,  0.006 sec
 optimizer setup                ...        0 min,  0.000 sec (  3.693%)
 model hessian                  ...        0 min,  0.000 sec (  2.110%)
 ANC generation                 ...        0 min,  0.000 sec (  1.146%)
 coordinate transformation      ...        0 min,  0.000 sec (  0.432%)
 single point calculation       ...        0 min,  0.005 sec ( 83.583%)
 optimization log               ...        0 min,  0.000 sec (  2.344%)
 hessian update                 ...        0 min,  0.000 sec (  0.361%)
 rational function              ...        0 min,  0.000 sec (  3.026%)

================
 final structure:
================
5
 xtb: 6.7.1 (edcfbbe)
C           -3.77769856366293       -1.76756658838269        1.76688903895617
S           -5.26741487340286       -2.41521905622570        2.55943209462823
H           -4.02310050404048       -1.40555043506372        0.76636707906013
H           -3.37532496815871       -0.94435622868529        2.36080360008952
H           -3.02907709073503       -2.55890269164260        1.69168718726594
 
 Bond Distances (Angstroems)
 ---------------------------
C1-S2=1.8074         C1-H3=1.0919         C1-H4=1.0919         C1-H5=1.0919         S2-C1=1.8074         H3-C1=1.0919         
H4-C1=1.0919         H5-C1=1.0919         
 C  H  Rav=1.0919 sigma=0.0000  Rmin=1.0919  Rmax=1.0919     3
 S  C  Rav=1.8074 sigma=0.0000  Rmin=1.8074  Rmax=1.8074     1
 
 selected bond angles (degree)
 --------------------
H3-C1-S2=109.59                H4-C1-S2=109.59                H4-C1-H3=109.34                H5-C1-S2=109.61                
H5-C1-H3=109.34                H5-C1-H4=109.34                
 
 selected dihedral angles (degree)
 ---------------------------------

           -------------------------------------------------
          |                Final Singlepoint                |
           -------------------------------------------------

          ...................................................
          :                      SETUP                      :
          :.................................................:
          :  # basis functions                  17          :
          :  # atomic orbitals                  16          :
          :  # shells                            8          :
          :  # electrons                        14          :
          :  max. iterations                   250          :
          :  Hamiltonian                  GFN2-xTB          :
          :  restarted?                      false          :
          :  GBSA solvation                   true          :
          :  PC potential                    false          :
          :  electronic temp.          300.0000000     K    :
          :  accuracy                    1.0000000          :
          :  -> integral cutoff          0.2500000E+02      :
          :  -> integral neglect         0.1000000E-07      :
          :  -> SCF convergence          0.1000000E-05 Eh   :
          :  -> wf. convergence          0.1000000E-03 e    :
          :  Broyden damping             0.4000000          :
          :  net charge                         -1          :
          :  unpaired electrons                  0          :
          ...................................................

 iter      E             dE          RMSdq      gap      omega  full diag
   1     -7.2596258 -0.725963E+01  0.418E-06    4.41       0.0  T
   2     -7.2596258 -0.150990E-13  0.193E-06    4.41   23180.8  T
   3     -7.2596258  0.888178E-15  0.119E-06    4.41   37604.2  T

   *** convergence criteria satisfied after 3 iterations ***

         #    Occupation            Energy/Eh            Energy/eV
      -------------------------------------------------------------
         1        2.0000           -0.6323534             -17.2072
         2        2.0000           -0.5776304             -15.7181
         3        2.0000           -0.4774918             -12.9932
         4        2.0000           -0.4774884             -12.9931
         5        2.0000           -0.4169787             -11.3466
         6        2.0000           -0.2872812              -7.8173
         7        2.0000           -0.2872793              -7.8173 (HOMO)
         8                         -0.1252622              -3.4086 (LUMO)
         9                          0.0432238               1.1762
        10                          0.0432321               1.1764
        11                          0.0611103               1.6629
        12                          0.0611121               1.6629
       ...                                ...                  ...
        16                          0.3544444               9.6449
      -------------------------------------------------------------
                  HL-Gap            0.1620171 Eh            4.4087 eV
             Fermi-level           -0.2062708 Eh           -5.6129 eV

 SCC (total)                   0 d,  0 h,  0 min,  0.001 sec
 SCC setup                      ...        0 min,  0.000 sec (  9.455%)
 Dispersion                     ...        0 min,  0.000 sec (  1.238%)
 classical contributions        ...        0 min,  0.000 sec (  0.675%)
 integral evaluation            ...        0 min,  0.000 sec ( 27.015%)
 iterations                     ...        0 min,  0.000 sec ( 26.069%)
 molecular gradient             ...        0 min,  0.000 sec ( 27.960%)
 printout                       ...        0 min,  0.000 sec (  5.380%)

         :::::::::::::::::::::::::::::::::::::::::::::::::::::
         ::                     SUMMARY                     ::
         :::::::::::::::::::::::::::::::::::::::::::::::::::::
         :: total energy              -7.201821986165 Eh    ::
         :: total w/o Gsasa/hb        -7.205290286960 Eh    ::
         :: gradient norm              0.000850366550 Eh/a0 ::
         :: HOMO-LUMO gap              4.408709420999 eV    ::
         ::.................................................::
         :: SCC energy                -7.259625718737 Eh    ::
         :: -> isotropic ES            0.153717160254 Eh    ::
         :: -> anisotropic ES          0.002356386999 Eh    ::
         :: -> anisotropic XC          0.006960757558 Eh    ::
         :: -> dispersion             -0.001858321543 Eh    ::
         :: -> Gsolv                  -0.099611671730 Eh    ::
         ::    -> Gelec               -0.103079972525 Eh    ::
         ::    -> Gsasa                0.002513497030 Eh    ::
         ::    -> Ghb                 -0.000125955933 Eh    ::
         ::    -> Gshift               0.001080759698 Eh    ::
         :: repulsion energy           0.057803732573 Eh    ::
         :: add. restraining           0.000000000000 Eh    ::
         :: total charge              -1.000000000000 e     ::
         :::::::::::::::::::::::::::::::::::::::::::::::::::::

           ------------------------------------------------- 
          |                Numerical Hessian                |
           ------------------------------------------------- 
step length          :   0.00500
SCC accuracy         :   0.30000
Hessian scale factor :   1.00000
frozen atoms in %    :   0.00000    0
RMS gradient         :   0.00085
estimated CPU  time      0.00 min
estimated wall time      0.00 min

writing file <hessian>.

 projected vibrational frequencies (cm⁻¹)
eigval :       -0.00    -0.00     0.00     0.00     0.00     0.00
eigval :      727.42   937.63   937.88  1316.05  1485.19  1485.51
eigval :     2915.48  2915.60  2946.51
           -------------------------------------------------
          |                Property Printout                |
           -------------------------------------------------

    * Orbital Energies and Occupations

         #    Occupation            Energy/Eh            Energy/eV
      -------------------------------------------------------------
         1        2.0000           -0.6323534             -17.2072
         2        2.0000           -0.5776304             -15.7181
         3        2.0000           -0.4774918             -12.9932
         4        2.0000           -0.4774884             -12.9931
         5        2.0000           -0.4169787             -11.3466
         6        2.0000           -0.2872812              -7.8173
         7        2.0000           -0.2872793              -7.8173 (HOMO)
         8                         -0.1252622              -3.4086 (LUMO)
         9                          0.0432238               1.1762
        10                          0.0432321               1.1764
        11                          0.0611103               1.6629
        12                          0.0611121               1.6629
        13                          0.1516398               4.1263
        14                          0.2334667               6.3530
        15                          0.2334827               6.3534
        16                          0.3544444               9.6449
      -------------------------------------------------------------
                  HL-Gap            0.1620171 Eh            4.4087 eV
             Fermi-level           -0.2062708 Eh           -5.6129 eV

     #   Z          covCN         q      C6AA      α(0)
     1   6 C        3.743     0.043    19.921     6.367
     2  16 S        0.970    -0.978   187.074    23.134
     3   1 H        0.924    -0.022     3.464     2.911
     4   1 H        0.924    -0.022     3.464     2.911
     5   1 H        0.924    -0.022     3.464     2.911

 Mol. C6AA /au·bohr⁶  :        560.539881
 Mol. C8AA /au·bohr⁸  :      19285.936021
 Mol. α(0) /au        :         38.232846


Wiberg/Mayer (AO) data.
largest (>0.10) Wiberg bond orders for each atom

 ---------------------------------------------------------------------------
     #   Z sym  total        # sym  WBO       # sym  WBO       # sym  WBO
 ---------------------------------------------------------------------------
     1   6 C    3.994 --     2 S    1.028     3 H    0.989     4 H    0.989
                             5 H    0.989
     2  16 S    1.060 --     1 C    1.028
     3   1 H    1.000 --     1 C    0.989
     4   1 H    1.000 --     1 C    0.989
     5   1 H    1.000 --     1 C    0.989
 ---------------------------------------------------------------------------

Topologies differ in total number of bonds
Writing topology from bond orders to xtbtopo.mol

molecular dipole:
                 x           y           z       tot (Debye)
 q only:        9.854       4.521      -4.784
   full:       10.321       4.724      -5.032      31.558
molecular quadrupole (traceless):
                xx          xy          yy          xz          yz          zz
 q only:      -75.689     -67.029      39.702      70.962      32.548      35.987
  q+dip:      -82.990     -73.370      43.777      78.198      35.782      39.213
   full:      -82.374     -72.845      43.412      77.555      35.502      38.962

           -------------------------------------------------
          |                Geometry Summary                 |
           -------------------------------------------------

      molecular mass/u    :       47.0993456
   center of mass at/Å    :       -4.7725073      -2.2000241       2.2961547
  moments of inertia/u·Å² :        0.3199684E+01   0.3814232E+02   0.3814243E+02
rotational constants/cm⁻¹ :        0.5268530E+01   0.4419666E+00   0.4419653E+00

 * 3 selected distances

     #   Z          #   Z                                           value/Å
     1   6 C        3   1 H                                       1.0919351 (max)
     1   6 C        4   1 H                                       1.0919316
     1   6 C        5   1 H                                       1.0919260 (min)

 * 1 distinct bonds (by element types)

   Z      Z             #   av. dist./Å        max./Å        min./Å
   1 H    6 C           3     1.0919309     1.0919351     1.0919260

           -------------------------------------------------
          |               Frequency Printout                |
           -------------------------------------------------
 projected vibrational frequencies (cm⁻¹)
eigval :       -0.00    -0.00     0.00     0.00     0.00     0.00
eigval :      727.42   937.63   937.88  1316.05  1485.19  1485.51
eigval :     2915.48  2915.60  2946.51
 reduced masses (amu)
   1: 17.62   2: 14.51   3: 25.46   4: 25.91   5: 15.20   6:  8.12   7: 17.57   8:  3.03
   9:  3.03  10:  2.41  11:  1.69  12:  1.69  13:  1.96  14:  1.96  15:  1.16
 IR intensities (km·mol⁻¹)
   1: 18.48   2: 14.39   3: 23.73   4: 27.00   5: 10.65   6:  3.64   7:  1.77   8:  0.23
   9:  0.23  10: 73.29  11:  1.68  12:  1.69  13: 99.92  14: 99.84  15: 69.97
 Raman intensities (Ä⁴*amu⁻¹)
   1:  0.00   2:  0.00   3:  0.00   4:  0.00   5:  0.00   6:  0.00   7:  0.00   8:  0.00
   9:  0.00  10:  0.00  11:  0.00  12:  0.00  13:  0.00  14:  0.00  15:  0.00
 output can be read by thermo (or use thermo option).
 writing <g98.out> molden fake output.
 recommended (thermochemical) frequency scaling factor: 1.0
           -------------------------------------------------
          |             Thermodynamic Functions             |
           -------------------------------------------------

Refinement of some symmetry elements was terminated before convergence was reached.
Some symmetry elements may remain unidentified.
Molecule has the following symmetry elements: (C3) 3*(sigma) 
It seems to be the C3v point group
c3v symmetry found (for desy threshold:  0.10E+00) used in thermo

          ...................................................
          :                      SETUP                      :
          :.................................................:
          :  # frequencies                           9      :
          :  # imaginary freq.                       0      :
          :  linear?                             false      :
          :  only rotor calc.                    false      :
          :  symmetry                              c3v      :
          :  rotational number                       3      :
          :  scaling factor                  1.0000000      :
          :  rotor cutoff                   50.0000000 cm⁻¹ :
          :  imag. cutoff                  -20.0000000 cm⁻¹ :
          :.................................................:

    mode    ω/cm⁻¹     T·S(HO)/kcal·mol⁻¹    T·S(FR)/kcal·mol⁻¹   T·S(vib)
   ------------------------------------------------------------------------
   ------------------------------------------------------------------------

   temp. (K)  partition function   enthalpy   heat capacity  entropy
                                   cal/mol     cal/K/mol   cal/K/mol   J/K/mol
 298.15  VIB   1.06                  135.948      1.978      0.566
         ROT  0.174E+04              888.752      2.981     17.806
         INT  0.184E+04             1024.701      4.959     18.372
         TR   0.313E+27             1481.254      4.968     37.457
         TOT                        2505.9545     9.9267    55.8289   233.5882

       T/K    H(0)-H(T)+PV         H(T)/Eh          T*S/Eh         G(T)/Eh
   ------------------------------------------------------------------------
    298.15    0.399349E-02    0.396862E-01    0.265261E-01    0.131600E-01
   ------------------------------------------------------------------------

         :::::::::::::::::::::::::::::::::::::::::::::::::::::
         ::                  THERMODYNAMIC                  ::
         :::::::::::::::::::::::::::::::::::::::::::::::::::::
         :: total free energy          -7.188661937750 Eh   ::
         ::.................................................::
         :: total energy               -7.201821987046 Eh   ::
         :: zero point energy           0.035692673816 Eh   ::
         :: G(RRHO) w/o ZPVE           -0.022532624520 Eh   ::
         :: G(RRHO) contrib.            0.013160049296 Eh   ::
         :::::::::::::::::::::::::::::::::::::::::::::::::::::

optimized geometry written to: xtbopt.xyz


           -------------------------------------------------
          | TOTAL ENERGY               -7.201821987046 Eh   |
          | TOTAL ENTHALPY             -7.162135820581 Eh   |
          | TOTAL FREE ENERGY          -7.188661937750 Eh   |
          | GRADIENT NORM               0.000850375565 Eh/α |
          | HOMO-LUMO GAP               4.408709443146 eV   |
           -------------------------------------------------

------------------------------------------------------------------------
 * finished run on 2025/10/18 at 05:34:38.128     
------------------------------------------------------------------------
 total:
 * wall-time:     0 d,  0 h,  0 min,  0.290 sec
 *  cpu-time:     0 d,  0 h,  0 min,  0.336 sec
 * ratio c/w:     1.158 speedup
 SCF:
 * wall-time:     0 d,  0 h,  0 min,  0.031 sec
 *  cpu-time:     0 d,  0 h,  0 min,  0.037 sec
 * ratio c/w:     1.169 speedup
 ANC optimizer:
 * wall-time:     0 d,  0 h,  0 min,  0.021 sec
 *  cpu-time:     0 d,  0 h,  0 min,  0.028 sec
 * ratio c/w:     1.379 speedup
 analytical hessian:
 * wall-time:     0 d,  0 h,  0 min,  0.132 sec
 *  cpu-time:     0 d,  0 h,  0 min,  0.160 sec
 * ratio c/w:     1.211 speedup

