5
 energy: -7.200231145339 gnorm: 0.021060249017 xtb: 6.7.1 (edcfbbe)
C           -3.80325600000000       -1.77863300000000        1.78047900000000
S           -5.30859300000000       -2.43320800000000        2.58137100000000
H           -3.99123600000000       -1.39987700000000        0.76918600000000
H           -3.35480900000000       -0.94672800000000        2.33575800000000
H           -3.01472200000000       -2.53314900000000        1.67838500000000
5
 energy: -7.201784073461 gnorm: 0.005733272071 xtb: 6.7.1 (edcfbbe)
C           -3.77942734581552       -1.76831893646030        1.76779764383757
S           -5.26776975818194       -2.41536360036727        2.55960445984994
H           -4.02455268835114       -1.40436367255204        0.76275692624228
H           -3.37421873079487       -0.94142680240395        2.36334253484032
H           -3.02664747685653       -2.56212198821644        1.69167743522988
5
 energy: -7.201817320283 gnorm: 0.002249512868 xtb: 6.7.1 (edcfbbe)
C           -3.77876349417478       -1.76803181319201        1.76745954020953
S           -5.26739392570104       -2.41520803079801        2.55941503946613
H           -4.02316249548384       -1.40523116508051        0.76556489948421
H           -3.37489948542427       -0.94369050174351        2.36117557458486
H           -3.02839659921607       -2.55943348918596        1.69156394625527
5
 energy: -7.201821986164 gnorm: 0.000850170045 xtb: 6.7.1 (edcfbbe)
C           -3.77769856366293       -1.76756658838269        1.76688903895617
S           -5.26741487340286       -2.41521905622570        2.55943209462823
H           -4.02310050404048       -1.40555043506372        0.76636707906013
H           -3.37532496815871       -0.94435622868529        2.36080360008952
H           -3.02907709073503       -2.55890269164260        1.69168718726594
