5
 energy: -7.201821986165 gnorm: 0.000850366550 xtb: 6.7.1 (edcfbbe)
C           -3.77770165091198       -1.76754372460151        1.76690531058401
S           -5.26741858521446       -2.41518700906421        2.55945469670773
H           -4.02310518826436       -1.40552803258846        0.76638357547257
H           -3.37532167194303       -0.94433443517426        2.36081703039090
H           -3.02908458392490       -2.55888387887285        1.69170222685448
