 Entering Gaussian System
 *********************************************
 Gaussian 98:
 frequency output generated by the xtb code
 *********************************************
                         Standard orientation:
 --------------------------------------------------------------------
  Center     Atomic     Atomic              Coordinates (Angstroms)
  Number     Number      Type              X           Y           Z
 --------------------------------------------------------------------
    1          6             0       -3.596595    0.777120   -0.000002
    2          6             0       -3.671572   -0.570518   -0.000028
    3          1             0       -0.204502    1.155680   -0.000072
    4          8             0       -2.273898    2.740423   -0.000018
    5          6             0       -2.493912   -1.430576   -0.000019
    6          1             0       -4.633559   -1.072653    0.000010
    7          6             0       -1.232259   -0.699171   -0.000011
    8          7             0       -2.562292   -2.699293   -0.000026
    9          6             0       -1.165030    0.648877   -0.000037
   10          1             0       -0.328484   -1.299770   -0.000050
   11          6             0       -2.339795    1.490721   -0.000019
   12          1             0       -4.498476    1.382149    0.000034
 --------------------------------------------------------------------
     1 basis functions        1 primitive gaussians
     1 alpha electrons        1 beta electrons
 
 Harmonic frequencies (cm**-1), IR intensities (km*mol⁻¹),
 Raman scattering activities (A**4/amu), Raman depolarization ratios,
 reduced masses (AMU), force constants (mDyne/A) and normal coordinates:
                      1                      2                      3
                        a                      a                      a 
 Frequencies --    98.9388               254.4232               294.3264
 Red. masses --    13.3198                11.6409                 9.7588
 Frc consts  --     0.0000                 0.0000                 0.0000
 IR Inten    --    25.1811                 0.0048                 0.0001
 Raman Activ --     0.0000                 0.0000                 0.0000
 Depolar     --     0.0000                 0.0000                 0.0000
 Atom AN      X      Y      Z        X      Y      Z        X      Y      Z
   1   6     0.00   0.00   0.25     0.00  -0.00   0.39     0.00  -0.00   0.43
   2   6    -0.00   0.00   0.31     0.00  -0.00  -0.32    -0.00  -0.00  -0.45
   3   1     0.00  -0.00   0.09     0.00   0.00   0.18     0.00  -0.00  -0.25
   4   8    -0.00   0.00  -0.52    -0.00   0.00  -0.36    -0.00   0.00   0.00
   5   6    -0.00   0.00   0.03     0.00  -0.00  -0.34    -0.00   0.00   0.00
   6   1    -0.00   0.00   0.12     0.00  -0.00  -0.13    -0.00  -0.00  -0.20
   7   6    -0.00  -0.00   0.31     0.00  -0.00  -0.31    -0.00   0.00   0.46
   8   7     0.00   0.00  -0.60    -0.00  -0.00   0.31    -0.00   0.00  -0.00
   9   6     0.00  -0.00   0.25     0.00   0.00   0.38     0.00   0.00  -0.44
  10   1    -0.00  -0.00   0.12     0.00   0.00  -0.13    -0.00   0.00   0.20
  11   6     0.00  -0.00  -0.01     0.00   0.00   0.25     0.00   0.00  -0.00
  12   1     0.00   0.00   0.09     0.00  -0.00   0.18     0.00  -0.00   0.25
                      4                      5                      6
                        a                      a                      a 
 Frequencies --   374.0460               434.8406               441.5615
 Red. masses --    13.6209                13.1782                11.6488
 Frc consts  --     0.0000                 0.0000                 0.0000
 IR Inten    --    31.3973                 0.3333                 0.6500
 Raman Activ --     0.0000                 0.0000                 0.0000
 Depolar     --     0.0000                 0.0000                 0.0000
 Atom AN      X      Y      Z        X      Y      Z        X      Y      Z
   1   6    -0.19   0.07   0.00     0.21   0.01  -0.00    -0.35   0.02   0.00
   2   6    -0.26   0.02  -0.00     0.22  -0.04   0.00     0.25  -0.04  -0.00
   3   1    -0.05  -0.02   0.00    -0.02  -0.07   0.00    -0.15   0.11  -0.00
   4   8     0.49  -0.03  -0.00     0.03   0.48   0.00     0.47  -0.03  -0.00
   5   6    -0.21   0.01  -0.00    -0.02  -0.42  -0.00     0.30  -0.01   0.00
   6   1    -0.09   0.03  -0.00     0.02   0.06   0.00     0.12  -0.11  -0.00
   7   6    -0.26   0.01  -0.00    -0.22  -0.02  -0.00     0.26   0.01   0.00
   8   7     0.68  -0.04   0.00    -0.02  -0.47   0.00    -0.27   0.02  -0.00
   9   6    -0.19  -0.05  -0.00    -0.21   0.04   0.00    -0.34   0.02  -0.00
  10   1    -0.09  -0.02   0.00    -0.01   0.07  -0.00     0.13   0.09   0.00
  11   6    -0.10   0.00   0.00     0.02   0.39  -0.00    -0.35   0.02   0.00
  12   1    -0.05   0.02   0.00     0.01  -0.07  -0.00    -0.17  -0.10   0.00
                      7                      8                      9
                        a                      a                      a 
 Frequencies --   467.2702               598.5615               693.0869
 Red. masses --     7.3874                11.7788                11.6121
 Frc consts  --     0.0000                 0.0000                 0.0000
 IR Inten    --     1.5352                 0.0773                 0.1675
 Raman Activ --     0.0000                 0.0000                 0.0000
 Depolar     --     0.0000                 0.0000                 0.0000
 Atom AN      X      Y      Z        X      Y      Z        X      Y      Z
   1   6     0.00   0.00  -0.01     0.13  -0.41  -0.00    -0.00   0.00  -0.24
   2   6     0.00   0.00  -0.09    -0.22  -0.40  -0.00    -0.00   0.00   0.28
   3   1    -0.00  -0.00  -0.31     0.04   0.12  -0.00    -0.00  -0.00  -0.15
   4   8    -0.00   0.00  -0.19     0.30  -0.02  -0.00    -0.00  -0.00  -0.13
   5   6    -0.00  -0.00   0.49    -0.06   0.00   0.00    -0.00  -0.00  -0.58
   6   1    -0.00   0.00  -0.35    -0.06  -0.11   0.00    -0.00  -0.00   0.05
   7   6    -0.00  -0.00  -0.09    -0.17   0.42   0.00     0.00   0.00   0.29
   8   7     0.00  -0.00  -0.16    -0.22   0.01  -0.00     0.00  -0.00   0.14
   9   6     0.00  -0.00  -0.01     0.17   0.40   0.00    -0.00  -0.00  -0.24
  10   1    -0.00  -0.00  -0.35    -0.05   0.12  -0.00     0.00   0.00   0.04
  11   6     0.00   0.00   0.49     0.05  -0.00   0.00     0.00   0.00   0.55
  12   1    -0.00   0.00  -0.31     0.03  -0.12   0.00    -0.00   0.00  -0.14
                     10                     11                     12
                        a                      a                      a 
 Frequencies --   735.3263               772.1467               809.7024
 Red. masses --     3.2615                11.6675                 6.9454
 Frc consts  --     0.0000                 0.0000                 0.0000
 IR Inten    --     0.0005                58.7131                49.7883
 Raman Activ --     0.0000                 0.0000                 0.0000
 Depolar     --     0.0000                 0.0000                 0.0000
 Atom AN      X      Y      Z        X      Y      Z        X      Y      Z
   1   6    -0.00   0.00   0.23     0.17  -0.31   0.00    -0.00  -0.00   0.26
   2   6    -0.00   0.00   0.22    -0.04  -0.30   0.00    -0.00  -0.00   0.21
   3   1    -0.00   0.00   0.39    -0.01  -0.17   0.00    -0.00  -0.00  -0.35
   4   8     0.00  -0.00  -0.00     0.02   0.36  -0.00     0.00   0.00   0.12
   5   6    -0.00  -0.00  -0.00     0.02   0.34  -0.00    -0.00   0.00  -0.31
   6   1    -0.00   0.00  -0.50     0.03  -0.15  -0.00    -0.00  -0.00  -0.33
   7   6     0.00   0.00  -0.22     0.01  -0.30  -0.00     0.00  -0.00   0.21
   8   7    -0.00  -0.00   0.00     0.02   0.41   0.00     0.00  -0.00   0.08
   9   6     0.00   0.00  -0.23    -0.20  -0.29  -0.00     0.00   0.00   0.26
  10   1     0.00   0.00   0.50    -0.05  -0.15   0.00    -0.00   0.00  -0.33
  11   6     0.00  -0.00   0.00     0.01   0.21   0.00    -0.00   0.00  -0.44
  12   1     0.00   0.00  -0.39    -0.01  -0.17  -0.00    -0.00   0.00  -0.35
                     13                     14                     15
                        a                      a                      a 
 Frequencies --   826.1257               906.2856               909.7802
 Red. masses --    11.9205                 2.6950                 3.2877
 Frc consts  --     0.0000                 0.0000                 0.0000
 IR Inten    --     7.6184                 0.0822                 0.0000
 Raman Activ --     0.0000                 0.0000                 0.0000
 Depolar     --     0.0000                 0.0000                 0.0000
 Atom AN      X      Y      Z        X      Y      Z        X      Y      Z
   1   6     0.35  -0.02   0.00     0.00  -0.00   0.18     0.00  -0.00  -0.25
   2   6     0.50   0.09   0.00    -0.00   0.00  -0.20     0.00  -0.00   0.21
   3   1    -0.08  -0.04   0.00    -0.00  -0.00  -0.46    -0.00   0.00  -0.48
   4   8    -0.02  -0.34   0.00     0.00  -0.00   0.01     0.00   0.00  -0.00
   5   6     0.01   0.16  -0.00     0.00   0.00  -0.02    -0.00   0.00   0.00
   6   1     0.13   0.06  -0.00     0.00   0.00   0.47    -0.00   0.00  -0.41
   7   6    -0.48   0.14  -0.00    -0.00  -0.00  -0.20     0.00  -0.00  -0.20
   8   7     0.01   0.17   0.00    -0.00   0.00  -0.01    -0.00   0.00   0.00
   9   6    -0.35   0.02  -0.00     0.00  -0.00   0.19    -0.00  -0.00   0.25
  10   1    -0.12   0.07   0.00     0.00  -0.00   0.48    -0.00  -0.00   0.39
  11   6    -0.01  -0.18  -0.00    -0.00   0.00   0.04    -0.00   0.00  -0.00
  12   1     0.07  -0.05  -0.00    -0.00   0.00  -0.44     0.00  -0.00   0.49
                     16                     17                     18
                        a                      a                      a 
 Frequencies --   939.3086              1062.0081              1174.9222
 Red. masses --     8.5659                 7.2588                 1.6193
 Frc consts  --     0.0000                 0.0000                 0.0000
 IR Inten    --     0.3388                 3.6103                20.0372
 Raman Activ --     0.0000                 0.0000                 0.0000
 Depolar     --     0.0000                 0.0000                 0.0000
 Atom AN      X      Y      Z        X      Y      Z        X      Y      Z
   1   6     0.46  -0.04  -0.00    -0.19   0.06  -0.00     0.04   0.08   0.00
   2   6    -0.35   0.03  -0.00    -0.26  -0.02   0.00     0.02  -0.09  -0.00
   3   1    -0.22   0.18  -0.00     0.12  -0.34   0.00    -0.23   0.44  -0.00
   4   8    -0.00  -0.09  -0.00    -0.03   0.00   0.00     0.00   0.09   0.00
   5   6    -0.00  -0.05   0.00     0.50  -0.03   0.00     0.00   0.03   0.00
   6   1    -0.19   0.20   0.00     0.07  -0.28  -0.00     0.21  -0.42   0.00
   7   6     0.35  -0.01   0.00    -0.25   0.05  -0.00    -0.04  -0.08   0.00
   8   7    -0.00  -0.00   0.00    -0.04   0.00  -0.00    -0.01  -0.10  -0.00
   9   6    -0.46   0.01   0.00    -0.19  -0.04   0.00    -0.03   0.08  -0.00
  10   1     0.21   0.18  -0.00     0.10   0.27   0.00    -0.26  -0.40  -0.00
  11   6    -0.00  -0.05   0.00     0.33  -0.02  -0.00    -0.00  -0.03   0.00
  12   1     0.23   0.16   0.00     0.15   0.33  -0.00     0.27   0.42   0.00
                     19                     20                     21
                        a                      a                      a 
 Frequencies --  1200.3799              1238.6312              1340.9641
 Red. masses --     6.0713                 6.5380                 5.9240
 Frc consts  --     0.0000                 0.0000                 0.0000
 IR Inten    --     1.6816                11.7596                 2.5116
 Raman Activ --     0.0000                 0.0000                 0.0000
 Depolar     --     0.0000                 0.0000                 0.0000
 Atom AN      X      Y      Z        X      Y      Z        X      Y      Z
   1   6    -0.05   0.05  -0.00    -0.15  -0.03   0.00    -0.24  -0.17   0.00
   2   6     0.14  -0.02   0.00    -0.11   0.13  -0.00     0.23  -0.18   0.00
   3   1    -0.04   0.03   0.00    -0.25   0.42  -0.00    -0.15   0.34   0.00
   4   8    -0.03   0.00  -0.00    -0.07   0.00   0.00     0.01   0.22   0.00
   5   6    -0.59   0.03   0.00     0.17  -0.01   0.00    -0.00  -0.01  -0.00
   6   1     0.27  -0.45  -0.00    -0.04   0.06   0.00    -0.15   0.36  -0.00
   7   6     0.14   0.00  -0.00    -0.12  -0.11   0.00    -0.24  -0.15  -0.00
   8   7     0.05  -0.00   0.00    -0.01   0.00   0.00     0.01   0.16   0.00
   9   6    -0.06  -0.04   0.00    -0.14   0.04   0.00     0.22  -0.20  -0.00
  10   1     0.31   0.41   0.00    -0.05  -0.05  -0.00     0.19   0.34   0.00
  11   6     0.25  -0.01  -0.00     0.61  -0.03  -0.00    -0.01  -0.10   0.00
  12   1    -0.04  -0.03  -0.00    -0.30  -0.39   0.00     0.18   0.32  -0.00
                     22                     23                     24
                        a                      a                      a 
 Frequencies --  1358.1121              1509.9813              1523.8715
 Red. masses --     8.5654                12.3689                11.5139
 Frc consts  --     0.0000                 0.0000                 0.0000
 IR Inten    --     1.9214                13.3874                46.3964
 Raman Activ --     0.0000                 0.0000                 0.0000
 Depolar     --     0.0000                 0.0000                 0.0000
 Atom AN      X      Y      Z        X      Y      Z        X      Y      Z
   1   6    -0.35  -0.19   0.00    -0.01  -0.13  -0.00     0.03   0.48   0.00
   2   6     0.26  -0.14  -0.00    -0.01   0.18   0.00     0.02  -0.49  -0.00
   3   1     0.08  -0.24  -0.00    -0.02   0.01   0.00    -0.10   0.04  -0.00
   4   8    -0.01   0.00   0.00    -0.00  -0.02  -0.00    -0.05   0.00   0.00
   5   6    -0.23   0.01  -0.00    -0.04  -0.72  -0.00     0.00  -0.00  -0.00
   6   1    -0.11   0.28   0.00     0.07  -0.10  -0.00    -0.10   0.05   0.00
   7   6     0.28   0.11   0.00     0.03   0.17  -0.00     0.07   0.49   0.00
   8   7     0.00  -0.00   0.00     0.03   0.58   0.00    -0.03   0.00  -0.00
   9   6    -0.32   0.23   0.00    -0.00  -0.13   0.00    -0.02  -0.48   0.00
  10   1    -0.13  -0.27  -0.00    -0.08  -0.09   0.00    -0.10  -0.04  -0.00
  11   6     0.38  -0.02  -0.00     0.00   0.07  -0.00     0.10  -0.01  -0.00
  12   1     0.11   0.24   0.00     0.02   0.01  -0.00    -0.10  -0.03   0.00
                     25                     26                     27
                        a                      a                      a 
 Frequencies --  1560.3682              1622.8570              2993.8981
 Red. masses --    12.9341                11.8561                 1.7626
 Frc consts  --     0.0000                 0.0000                 0.0000
 IR Inten    --   387.9691               397.8697                36.0067
 Raman Activ --     0.0000                 0.0000                 0.0000
 Depolar     --     0.0000                 0.0000                 0.0000
 Atom AN      X      Y      Z        X      Y      Z        X      Y      Z
   1   6     0.03  -0.14  -0.00     0.10   0.45   0.00     0.14  -0.10  -0.00
   2   6    -0.03   0.26  -0.00     0.01  -0.38  -0.00    -0.07  -0.04  -0.00
   3   1    -0.00  -0.08  -0.00     0.09  -0.07  -0.00    -0.54  -0.29   0.00
   4   8     0.03   0.54   0.00     0.01   0.15   0.00    -0.00   0.00   0.00
   5   6     0.00   0.03   0.00    -0.01  -0.21  -0.00    -0.01   0.00  -0.00
   6   1     0.06  -0.04   0.00    -0.06   0.01   0.00     0.27   0.15  -0.00
   7   6     0.06   0.25   0.00    -0.05  -0.37   0.00    -0.06   0.05   0.00
   8   7    -0.01  -0.10  -0.00     0.01   0.25   0.00     0.00  -0.00   0.00
   9   6    -0.05  -0.13   0.00    -0.05   0.46  -0.00     0.15   0.08  -0.00
  10   1    -0.06  -0.03  -0.00     0.06   0.01  -0.00     0.25  -0.17  -0.00
  11   6    -0.04  -0.71   0.00    -0.02  -0.36   0.00     0.01  -0.00  -0.00
  12   1    -0.00  -0.08   0.00    -0.09  -0.06   0.00    -0.51   0.34   0.00
                     28                     29                     30
                        a                      a                      a 
 Frequencies --  2996.8825              3014.8025              3021.9640
 Red. masses --     1.7438                 1.8636                 1.8663
 Frc consts  --     0.0000                 0.0000                 0.0000
 IR Inten    --    53.5952               279.3816                 6.7516
 Raman Activ --     0.0000                 0.0000                 0.0000
 Depolar     --     0.0000                 0.0000                 0.0000
 Atom AN      X      Y      Z        X      Y      Z        X      Y      Z
   1   6    -0.13   0.09   0.00    -0.08   0.05   0.00     0.09  -0.06  -0.00
   2   6     0.08   0.05  -0.00    -0.15  -0.08  -0.00     0.15   0.08  -0.00
   3   1    -0.52  -0.27   0.00     0.27   0.14  -0.00     0.30   0.16  -0.00
   4   8    -0.00  -0.00  -0.00    -0.00   0.00   0.00     0.00   0.01   0.00
   5   6     0.00   0.00  -0.00    -0.00   0.00   0.00     0.00   0.01   0.00
   6   1    -0.30  -0.16   0.00     0.54   0.28  -0.00    -0.52  -0.27   0.00
   7   6    -0.07   0.05   0.00    -0.14   0.10   0.00    -0.14   0.10   0.00
   8   7     0.00   0.00   0.00     0.00  -0.00   0.00    -0.00  -0.00  -0.00
   9   6     0.14   0.07  -0.00    -0.08  -0.04   0.00    -0.09  -0.05   0.00
  10   1     0.29  -0.19  -0.00     0.50  -0.34  -0.00     0.49  -0.33  -0.00
  11   6     0.00   0.02   0.00     0.00  -0.00  -0.00    -0.00  -0.01  -0.00
  12   1     0.49  -0.33  -0.00     0.25  -0.17  -0.00    -0.28   0.19   0.00
