12
 energy: -21.974162854957 gnorm: 0.000366075501 xtb: 6.7.1 (edcfbbe)
C           -3.59659427761934        0.77711967802311       -0.00000159854801
C           -3.67157124934520       -0.57051811872176       -0.00002794359587
H           -0.20450221102268        1.15567954851855       -0.00007178510890
O           -2.27389733341978        2.74042249918950       -0.00001823285983
C           -2.49391136261148       -1.43057546312361       -0.00001855275482
H           -4.63355834442188       -1.07265250459779        0.00000956502150
C           -1.23225885489489       -0.69917124844438       -0.00001137382923
N           -2.56229133778566       -2.69929233200426       -0.00002581372051
C           -1.16502959101896        0.64887717523613       -0.00003743888565
H           -0.32848406411663       -1.29977009054875       -0.00004985027144
C           -2.33979470648650        1.49072100359301       -0.00001947389782
H           -4.49847559689410        1.38214869981101        0.00003399093562
