12
 energy: -21.874094132326 gnorm: 0.178070295474 xtb: 6.7.1 (edcfbbe)
C           -3.58853147281371        0.82265411468437       -0.00001157575149
C           -3.66245115312302       -0.56819544644181       -0.00001560543595
H           -0.18862811407766        1.18040687431011       -0.00005107618440
O           -2.26862930414677        2.82461874586643       -0.00002012672604
C           -2.48868782775728       -1.32819561754097       -0.00003213111107
H           -4.63361421487219       -1.06839190174433       -0.00000562832882
C           -1.24156073120913       -0.69599456815612       -0.00004482607236
N           -2.58170533421761       -3.09073468111379       -0.00003718845767
C           -1.16883594997575        0.69481304879679       -0.00004074664524
H           -0.32830346944735       -1.29543449242595       -0.00005802851460
C           -2.33742679088835        1.53821475779673       -0.00002366215899
H           -4.51199678046597        1.40907616790918        0.00000159546929
12
 energy: -21.942673401174 gnorm: 0.172272336127 xtb: 6.7.1 (edcfbbe)
C           -3.58566500116811        0.79493962934266       -0.00001162137505
C           -3.65602856878062       -0.58415425035940       -0.00001563895579
H           -0.20264217107565        1.16059890473921       -0.00005090210084
O           -2.27145865959637        2.77619636774444       -0.00002021725251
C           -2.49057591372795       -1.36332316087997       -0.00003224096179
H           -4.62688811695652       -1.07003353900028       -0.00000576144556
C           -1.24957653334389       -0.71128716950326       -0.00004480913845
N           -2.56897193357515       -2.84864330043910       -0.00003650188036
C           -1.17444261159914        0.66750519087708       -0.00004082132080
H           -0.33517840869994       -1.29652509914046       -0.00005793089867
C           -2.33887469700666        1.50978164613318       -0.00002393130072
H           -4.50006852746480        1.38778178242654        0.00000137671321
12
 energy: -21.654398815175 gnorm: 2.001652845081 xtb: 6.7.1 (edcfbbe)
C           -3.58151607633008        0.75223158841165       -0.00001178771255
C           -3.64584881249377       -0.61051195811606       -0.00001583521531
H           -0.22120319901820        1.13843400001717       -0.00005073671668
O           -2.27436647713955        2.72646910038336       -0.00002037434555
C           -2.49890882516349       -1.52031796087491       -0.00003270488375
H           -4.62485863198833       -1.06635477462814       -0.00000577233416
C           -1.26243941341496       -0.73652615616108       -0.00004476083546
N           -2.54766953222225       -2.44432243814183       -0.00003534784828
C           -1.18288573979280        0.62538413845238       -0.00004091414413
H           -0.33683012052307       -1.29277671559585       -0.00005787694918
C           -2.33996567307561        1.48746039193489       -0.00002396563975
H           -4.48387864183268        1.36366778625906        0.00000107670747
12
 energy: -21.967923059363 gnorm: 0.086137467434 xtb: 6.7.1 (edcfbbe)
C           -3.58507997584548        0.75981923562161       -0.00001172230246
C           -3.65922357536254       -0.58851341986124       -0.00001560462682
H           -0.21916711182948        1.13800961854483       -0.00005076241233
O           -2.27406489097608        2.73193053854204       -0.00002036191693
C           -2.49015813028516       -1.35477253960125       -0.00003222901570
H           -4.62627667888745       -1.06945106224394       -0.00000576443477
C           -1.24682585080863       -0.71603806860722       -0.00004487603404
N           -2.55899988048571       -2.65887157260896       -0.00003596145398
C           -1.17855602256227        0.63258483811159       -0.00004094269351
H           -0.33574411848570       -1.29601790966035       -0.00005790104427
C           -2.34034058322466        1.48069211877035       -0.00002397626997
H           -4.48593432424163        1.36346522493318        0.00000110228746
12
 energy: -21.973002866159 gnorm: 0.043354538292 xtb: 6.7.1 (edcfbbe)
C           -3.59075161524801        0.77319567018770       -0.00001156385935
C           -3.66311292488699       -0.57959380971107       -0.00001543574599
H           -0.21236879455393        1.15421803285609       -0.00005066144096
O           -2.27414358740229        2.73329458707538       -0.00002034224287
C           -2.49298369024761       -1.40887353590108       -0.00003239917063
H           -4.62928497924037       -1.06316168896890       -0.00000574346022
C           -1.24194600356644       -0.70757315976558       -0.00004494345142
N           -2.56145321507605       -2.70238950256292       -0.00003610338733
C           -1.17142150032350        0.64532383499553       -0.00004104332967
H           -0.33205726837491       -1.29014921171318       -0.00005788143138
C           -2.33992323524110        1.48834720583524       -0.00002417779586
H           -4.49092432883360        1.38019857961343        0.00000129539836
12
 energy: -21.973912473887 gnorm: 0.021678567473 xtb: 6.7.1 (edcfbbe)
C           -3.59520664007103        0.77750770226462       -0.00001156411332
C           -3.66771393190656       -0.57221911396365       -0.00001544620928
H           -0.20578466413643        1.15445006623567       -0.00005085404503
O           -2.27379702333010        2.73991168822035       -0.00002036045274
C           -2.49404941507526       -1.42781757574606       -0.00003244530741
H           -4.63304769174988       -1.06565560436189       -0.00000557811045
C           -1.23671679667915       -0.70073782229548       -0.00004499196525
N           -2.56162067859870       -2.71149484058210       -0.00003619019061
C           -1.16655273239171        0.64912099258510       -0.00004108934642
H           -0.32874978308855       -1.29314283487642       -0.00005786104307
C           -2.33973996476378        1.49167303996842       -0.00002390529852
H           -4.49739182120365        1.38124130449209        0.00000128616477
12
 energy: -21.974081504766 gnorm: 0.012031579369 xtb: 6.7.1 (edcfbbe)
C           -3.59683303795229        0.77829111948713       -0.00001150780162
C           -3.67068014651652       -0.56976943287101       -0.00001682143264
H           -0.20338392071845        1.15450855163102       -0.00005183798539
O           -2.27376694767625        2.74203680259363       -0.00002030287470
C           -2.49407081604770       -1.43138643317752       -0.00003255965971
H           -4.63428344924246       -1.07011508709589       -0.00000601907048
C           -1.23325534267568       -0.69843245095614       -0.00004356476260
N           -2.56218765102141       -2.70811670628540       -0.00003600993018
C           -1.16474767103968        0.64991074079671       -0.00004108165009
H           -0.32770578581349       -1.29747080066508       -0.00005770062607
C           -2.33972279894640        1.49209600653134       -0.00002418238871
H           -4.49973357534445        1.38128469195184        0.00000258826486
12
 energy: -21.974144070019 gnorm: 0.005119966965 xtb: 6.7.1 (edcfbbe)
C           -3.59734496826125        0.77828146520455       -0.00001103254071
C           -3.67274799883331       -0.56906816041987       -0.00001513305951
H           -0.20326008795533        1.15476786372583       -0.00005158875465
O           -2.27351049213817        2.74180416367551       -0.00002055041787
C           -2.49451111759217       -1.43128408571116       -0.00003213285152
H           -4.63466089072447       -1.07296443711580       -0.00000646183396
C           -1.23186609654899       -0.69833938043758       -0.00004509629817
N           -2.55980462432851       -2.70267247589421       -0.00003660012979
C           -1.16454659039993        0.64943194411254       -0.00004163113825
H           -0.32849769968103       -1.30096915158116       -0.00005677628101
C           -2.33975575246617        1.49149233404477       -0.00002386050559
H           -4.49986482406545        1.38235692233721        0.00000186389370
12
 energy: -21.974158044654 gnorm: 0.001768644493 xtb: 6.7.1 (edcfbbe)
C           -3.59671367279956        0.77710051029443       -0.00001143585721
C           -3.67198899736892       -0.57028707039904       -0.00001567956667
H           -0.20394610322174        1.15637093749554       -0.00005053358682
O           -2.27420990478852        2.74078624094958       -0.00001995204728
C           -2.49332563441903       -1.43043949705268       -0.00003351204106
H           -4.63310261169935       -1.07457533015038       -0.00000603756319
C           -1.23088472063023       -0.69844403070362       -0.00004521699670
N           -2.56490073338055       -2.69895103586290       -0.00003483014849
C           -1.16453722325668        0.64941503627592       -0.00004097558961
H           -0.32805493835263       -1.30080408954344       -0.00005836653174
C           -2.33980492636730        1.49078687571914       -0.00002414615010
H           -4.49890167671027        1.38187845491810        0.00000168616153
12
 energy: -21.974153370929 gnorm: 0.002261858611 xtb: 6.7.1 (edcfbbe)
C           -3.59682751497513        0.77758379166893       -0.00001212756161
C           -3.67293903340303       -0.57004137804790       -0.00000960941396
H           -0.20535000771900        1.15485096591985       -0.00004667965755
O           -2.27304437899407        2.73960804225162       -0.00002149080943
C           -2.49544681080032       -1.42958920635941       -0.00003000664549
H           -4.63438846451204       -1.07207197053468       -0.00000289520852
C           -1.23344923047384       -0.70030447619884       -0.00004926624314
N           -2.55474596042689       -2.69770952494112       -0.00003925668450
C           -1.16584344146223        0.64777579160317       -0.00004085003096
H           -0.33060092806406       -1.30152783882368       -0.00005896457574
C           -2.33982018370326        1.49022331906179       -0.00002444088473
H           -4.49791518846092        1.38403948634090       -0.00000341220170
12
 energy: -21.974162018355 gnorm: 0.000688768701 xtb: 6.7.1 (edcfbbe)
C           -3.59667508871370        0.77730802292134       -0.00001211970497
C           -3.67213922252353       -0.57034690978041       -0.00001133253389
H           -0.20491787488367        1.15536677885255       -0.00004704319911
O           -2.27353318317817        2.74002136974833       -0.00002061009860
C           -2.49457283731403       -1.43007062170192       -0.00003225730076
H           -4.63385736035924       -1.07240486473871       -0.00000344697331
C           -1.23280689263645       -0.69968364679868       -0.00004887006401
N           -2.55900349131450       -2.69872145173681       -0.00003658684385
C           -1.16540673993868        0.64839693173136       -0.00004049203093
H           -0.32946570432919       -1.30051543359216       -0.00005973836714
C           -2.33980945273219        1.49048582804922       -0.00002388734061
H           -4.49818329507144        1.38300099898654       -0.00000261546014
12
 energy: -21.974162854089 gnorm: 0.000366886375 xtb: 6.7.1 (edcfbbe)
C           -3.59659834653166        0.77710084631237       -0.00001279674778
C           -3.67156826194907       -0.57053734294403       -0.00004175556236
H           -0.20450826189202        1.15567847785641       -0.00007048193795
O           -2.27391168212977        2.74041059309484       -0.00002138739021
C           -2.49390387202173       -1.43058852114361       -0.00002975496957
H           -4.63355272796815       -1.07267676582467       -0.00000848130287
C           -1.23225519397870       -0.69917770049865       -0.00001689550659
N           -2.56227720418322       -2.69930574802856       -0.00003946893251
C           -1.16503298837815        0.64887107521802       -0.00004037312429
H           -0.32847725835584       -1.29977181037848       -0.00005326540314
C           -2.33980251176912        1.49070875248211       -0.00002503957176
H           -4.49848283383735        1.38212514579489        0.00002070053171
