 Entering Gaussian System
 *********************************************
 Gaussian 98:
 frequency output generated by the xtb code
 *********************************************
                         Standard orientation:
 --------------------------------------------------------------------
  Center     Atomic     Atomic              Coordinates (Angstroms)
  Number     Number      Type              X           Y           Z
 --------------------------------------------------------------------
    1          7             0       -8.588582   -3.299523   -1.827757
    2          6             0       -7.623485   -2.631469   -1.768248
    3          7             0       -6.673937   -1.795193   -1.802698
    4          1             0       -5.839176   -2.097842   -1.314136
 --------------------------------------------------------------------
     1 basis functions        1 primitive gaussians
     1 alpha electrons        1 beta electrons
 
 Harmonic frequencies (cm**-1), IR intensities (km*mol⁻¹),
 Raman scattering activities (A**4/amu), Raman depolarization ratios,
 reduced masses (AMU), force constants (mDyne/A) and normal coordinates:
                      1                      2                      3
                        a                      a                      a 
 Frequencies --   448.0042               491.1013              1057.5439
 Red. masses --    10.8381                11.6947                 3.9352
 Frc consts  --     0.0000                 0.0000                 0.0000
 IR Inten    --    50.8325                35.6160               177.7539
 Raman Activ --     0.0000                 0.0000                 0.0000
 Depolar     --     0.0000                 0.0000                 0.0000
 Atom AN      X      Y      Z        X      Y      Z        X      Y      Z
   1   7    -0.17   0.31  -0.22    -0.14   0.17   0.35    -0.04  -0.08   0.03
   2   6     0.38  -0.53   0.42     0.28  -0.34  -0.69    -0.15   0.21  -0.17
   3   7    -0.22   0.08  -0.13    -0.09   0.12   0.24     0.07  -0.31   0.18
   4   1     0.11   0.35  -0.12    -0.09   0.11   0.23     0.41   0.74  -0.20
                      4                      5                      6
                        a                      a                      a 
 Frequencies --  1288.0662              2345.0202              3348.8242
 Red. masses --    13.6434                12.5615                 1.8871
 Frc consts  --     0.0000                 0.0000                 0.0000
 IR Inten    --    67.6523              1273.2401               151.7838
 Raman Activ --     0.0000                 0.0000                 0.0000
 Depolar     --     0.0000                 0.0000                 0.0000
 Atom AN      X      Y      Z        X      Y      Z        X      Y      Z
   1   7    -0.51  -0.35  -0.03     0.43   0.30   0.03    -0.01  -0.00   0.00
   2   6    -0.10  -0.17   0.04    -0.66  -0.48  -0.03     0.01   0.02  -0.01
   3   7     0.57   0.49  -0.01     0.17   0.13  -0.00    -0.22   0.05  -0.12
   4   1     0.13   0.06   0.02     0.08   0.05   0.01     0.81  -0.26   0.46
