      -----------------------------------------------------------      
     |                   =====================                   |     
     |                           x T B                           |     
     |                   =====================                   |     
     |                         S. Grimme                         |     
     |          Mulliken Center for Theoretical Chemistry        |     
     |                    University of Bonn                     |     
      -----------------------------------------------------------      

   * xtb version 6.7.1 (edcfbbe) compiled by 'albert@albert-system' on 2024-07-22

   xtb is free software: you can redistribute it and/or modify it under
   the terms of the GNU Lesser General Public License as published by
   the Free Software Foundation, either version 3 of the License, or
   (at your option) any later version.
   
   xtb is distributed in the hope that it will be useful,
   but WITHOUT ANY WARRANTY; without even the implied warranty of
   MERCHANTABILITY or FITNESS FOR A PARTICULAR PURPOSE.  See the
   GNU Lesser General Public License for more details.
   
   Cite this work as:
   * C. Bannwarth, E. Caldeweyher, S. Ehlert, A. Hansen, P. Pracht,
     J. Seibert, S. Spicher, S. Grimme, WIREs Comput. Mol. Sci., 2020, 11,
     e01493. DOI: 10.1002/wcms.1493
   
   for GFN2-xTB:
   * C. Bannwarth, S. Ehlert and S. Grimme., J. Chem. Theory Comput., 2019,
     15, 1652-1671. DOI: 10.1021/acs.jctc.8b01176
   for GFN1-xTB:
   * S. Grimme, C. Bannwarth, P. Shushkov, J. Chem. Theory Comput., 2017,
     13, 1989-2009. DOI: 10.1021/acs.jctc.7b00118
   for GFN0-xTB:
   * P. Pracht, E. Caldeweyher, S. Ehlert, S. Grimme, ChemRxiv, 2019, preprint.
     DOI: 10.26434/chemrxiv.8326202.v1
   for GFN-FF:
   * S. Spicher and S. Grimme, Angew. Chem. Int. Ed., 2020, 59, 15665-15673.
     DOI: 10.1002/anie.202004239
   
   for ALPB and GBSA implicit solvation:
   * S. Ehlert, M. Stahn, S. Spicher, S. Grimme, J. Chem. Theory Comput.,
     2021, 17, 4250-4261. DOI: 10.1021/acs.jctc.1c00471
   
   for ddCOSMO and CPCM-X implicit solvation:
   * M. Stahn, S. Ehlert, S. Grimme, J. Phys. Chem. A,
     2023, XX, XXXX-XXXX. DOI: 10.1021/acs.jpca.3c04382
   
   for DFT-D4:
   * E. Caldeweyher, C. Bannwarth and S. Grimme, J. Chem. Phys., 2017,
     147, 034112. DOI: 10.1063/1.4993215
   * E. Caldeweyher, S. Ehlert, A. Hansen, H. Neugebauer, S. Spicher,
     C. Bannwarth and S. Grimme, J. Chem. Phys., 2019, 150, 154122.
     DOI: 10.1063/1.5090222
   * E. Caldeweyher, J.-M. Mewes, S. Ehlert and S. Grimme, Phys. Chem. Chem. Phys.
     2020, 22, 8499-8512. DOI: 10.1039/D0CP00502A
   
   for sTDA-xTB:
   * S. Grimme and C. Bannwarth, J. Chem. Phys., 2016, 145, 054103.
     DOI: 10.1063/1.4959605
   
   in the mass-spec context:
   * V. Asgeirsson, C. Bauer and S. Grimme, Chem. Sci., 2017, 8, 4879.
     DOI: 10.1039/c7sc00601b
   * J. Koopman and S. Grimme, ACS Omega 2019, 4, 12, 15120-15133.
     DOI: 10.1021/acsomega.9b02011
   
   for metadynamics refer to:
   * S. Grimme, J. Chem. Theory Comput., 2019, 155, 2847-2862
     DOI: 10.1021/acs.jctc.9b00143
   
   for SPH calculations refer to:
   * S. Spicher and S. Grimme, J. Chem. Theory Comput., 2021, 17, 1701-1714
     DOI: 10.1021/acs.jctc.0c01306
   
   for ONIOM refer to:
   * C. Plett, A. Katbashev, S. Ehlert, S. Grimme, M. Bursch,
     Phys. Chem. Chem. Phys., 2023, 25, 17860-17868. DOI: 10.1039/D3CP02178E
   
   for DIPRO refer to:
   * J. Kohn, N. Gildemeister, S. Grimme, D. Fazzi, A. Hansen,
     J. Chem. Phys., 2023, just accepted.
   
   for PTB refer to:
   * S. Grimme, M. Mueller, A. Hansen, J. Chem. Phys., 2023, 158, 124111.
     DOI: 10.1063/5.0137838
   
   with help from (in alphabetical order)
   P. Atkinson, C. Bannwarth, F. Bohle, G. Brandenburg, E. Caldeweyher
   M. Checinski, S. Dohm, S. Ehlert, S. Ehrlich, I. Gerasimov, C. Hölzer
   A. Katbashev, J. Kohn, J. Koopman, C. Lavigne, S. Lehtola, F. März, M. Müller,
   F. Musil, H. Neugebauer, J. Pisarek, C. Plett, P. Pracht, F. Pultar,
   J. Seibert, P. Shushkov, S. Spicher, M. Stahn, M. Steiner, T. Strunk,
   J. Stückrath, T. Rose, and J. Unsleber
   
 * started run on 2025/10/17 at 21:52:47.977     
   ID    Z sym.   atoms
    1    7 N      1, 3
    2    6 C      2
    3    1 H      4

           -------------------------------------------------
          |                Calculation Setup                |
           -------------------------------------------------

          program call               : xtb tb_lite_results_shiftn0p25.json_gp33_b0_rot0.xyz --charge -1 --alpb water --ohess
          hostname                   : m003
          coordinate file            : tb_lite_results_shiftn0p25.json_gp33_b0_rot0.xyz
          omp threads                :                     2


           -------------------------------------------------
          |                 G F N 2 - x T B                 |
           -------------------------------------------------

        Reference                      10.1021/acs.jctc.8b01176
      * Hamiltonian:
        H0-scaling (s, p, d)           1.850000    2.230000    2.230000
        zeta-weighting                 0.500000
      * Dispersion:
        s8                             2.700000
        a1                             0.520000
        a2                             5.000000
        s9                             5.000000
      * Repulsion:
        kExp                           1.500000    1.000000
        rExp                           1.000000
      * Coulomb:
        alpha                          2.000000
        third order                    shell-resolved
        anisotropic                    true
        a3                             3.000000
        a5                             4.000000
        cn-shift                       1.200000
        cn-exp                         4.000000
        max-rad                        5.000000

      * Solvation model:               ALPB
        Solvent                        water
        Parameter file                 internal GFN2-xTB/ALPB
        Dielectric constant                8.0200E+01
        Reference state                gsolv [1 M gas/solution]
        Free energy shift                  1.0808E-03 Eh       6.7819E-01 kcal/mol
        Temperature                        2.9815E+02 K
        Density                            1.0000E+00 kg/L
        Solvent mass                       1.8000E+01 g/mol
        Interaction kernel             P16
        Born radius scaling (c1)           1.4744E+00
        Born radii integrator          GBOBC
        Born offset                        0.0000E+00 a0       0.0000E+00 AA
        H-bond correction              true
        Ion screening                  false
        Surface tension                    1.0000E-05 Eh       1.5569E+01 dyn/cm
        Grid points                               230 per atom

          ...................................................
          :                      SETUP                      :
          :.................................................:
          :  # basis functions                  13          :
          :  # atomic orbitals                  13          :
          :  # shells                            7          :
          :  # electrons                        16          :
          :  max. iterations                   250          :
          :  Hamiltonian                  GFN2-xTB          :
          :  restarted?                      false          :
          :  GBSA solvation                   true          :
          :  PC potential                    false          :
          :  electronic temp.          300.0000000     K    :
          :  accuracy                    1.0000000          :
          :  -> integral cutoff          0.2500000E+02      :
          :  -> integral neglect         0.1000000E-07      :
          :  -> SCF convergence          0.1000000E-05 Eh   :
          :  -> wf. convergence          0.1000000E-03 e    :
          :  Broyden damping             0.4000000          :
          :  net charge                         -1          :
          :  unpaired electrons                  0          :
          ...................................................

 iter      E             dE          RMSdq      gap      omega  full diag
   1     -8.9234618 -0.892346E+01  0.535E+00    5.96       0.0  T
   2     -8.9301397 -0.667790E-02  0.303E+00    5.74       1.0  T
   3     -8.9296269  0.512798E-03  0.158E+00    5.86       1.0  T
   4     -8.9326920 -0.306510E-02  0.213E-01    5.71       1.0  T
   5     -8.9327184 -0.263644E-04  0.106E-01    5.73       1.0  T
   6     -8.9327206 -0.223009E-05  0.155E-02    5.74       3.2  T
   7     -8.9327207 -0.615484E-07  0.811E-03    5.73       6.2  T
   8     -8.9327208 -0.142283E-06  0.674E-04    5.73      74.2  T
   9     -8.9327208 -0.602133E-09  0.984E-05    5.73     508.3  T

   *** convergence criteria satisfied after 9 iterations ***

         #    Occupation            Energy/Eh            Energy/eV
      -------------------------------------------------------------
         1        2.0000           -0.5782445             -15.7348
         2        2.0000           -0.5424578             -14.7610
         3        2.0000           -0.4822133             -13.1217
         4        2.0000           -0.4195542             -11.4166
         5        2.0000           -0.4088639             -11.1258
         6        2.0000           -0.3450302              -9.3888
         7        2.0000           -0.3152705              -8.5789
         8        2.0000           -0.2919345              -7.9439 (HOMO)
         9                         -0.0812060              -2.2097 (LUMO)
        10                         -0.0259506              -0.7062
        11                          0.2064263               5.6171
        12                          0.5335027              14.5173
        13                          1.5529766              42.2586
      -------------------------------------------------------------
                  HL-Gap            0.2107284 Eh            5.7342 eV
             Fermi-level           -0.1865703 Eh           -5.0768 eV

 SCC (total)                   0 d,  0 h,  0 min,  0.025 sec
 SCC setup                      ...        0 min,  0.000 sec (  1.132%)
 Dispersion                     ...        0 min,  0.000 sec (  0.211%)
 classical contributions        ...        0 min,  0.000 sec (  0.142%)
 integral evaluation            ...        0 min,  0.000 sec (  1.258%)
 iterations                     ...        0 min,  0.023 sec ( 94.948%)
 molecular gradient             ...        0 min,  0.000 sec (  1.683%)
 printout                       ...        0 min,  0.000 sec (  0.459%)

         :::::::::::::::::::::::::::::::::::::::::::::::::::::
         ::                     SUMMARY                     ::
         :::::::::::::::::::::::::::::::::::::::::::::::::::::
         :: total energy              -8.736718628711 Eh    ::
         :: total w/o Gsasa/hb        -8.726788845467 Eh    ::
         :: gradient norm              0.231426041547 Eh/a0 ::
         :: HOMO-LUMO gap              5.734212656618 eV    ::
         ::.................................................::
         :: SCC energy                -8.932720838434 Eh    ::
         :: -> isotropic ES            0.203441474386 Eh    ::
         :: -> anisotropic ES          0.008887802862 Eh    ::
         :: -> anisotropic XC          0.008924184140 Eh    ::
         :: -> dispersion             -0.001489123363 Eh    ::
         :: -> Gsolv                  -0.119741273045 Eh    ::
         ::    -> Gelec               -0.109811489800 Eh    ::
         ::    -> Gsasa               -0.008370518195 Eh    ::
         ::    -> Ghb                 -0.002640024748 Eh    ::
         ::    -> Gshift               0.001080759698 Eh    ::
         :: repulsion energy           0.196002209723 Eh    ::
         :: add. restraining           0.000000000000 Eh    ::
         :: total charge              -1.000000000000 e     ::
         :::::::::::::::::::::::::::::::::::::::::::::::::::::

      ----------------------------------------------------------- 
     |                   =====================                   |
     |                        A N C O P T                        |
     |                   =====================                   |
     |               Approximate Normal Coordinate               |
     |                Rational Function Optimizer                |
      ----------------------------------------------------------- 
      ----------------------------------------------------------- 
     |                   =====================                   |
     |                        A N C O P T                        |
     |                   =====================                   |
     |               Approximate Normal Coordinate               |
     |                Rational Function Optimizer                |
      ----------------------------------------------------------- 

          ...................................................
          :                      SETUP                      :
          :.................................................:
          :   optimization level            normal          :
          :   max. optcycles                   200          :
          :   ANC micro-cycles                  20          :
          :   degrees of freedom                 6          :
          :.................................................:
          :   RF solver                   davidson          :
          :   write xtbopt.log                true          :
          :   linear?                        false          :
          :   energy convergence         0.5000000E-05 Eh   :
          :   grad. convergence          0.1000000E-02 Eh/α :
          :   maxmium RF displ.          1.0000000          :
          :   Hlow (freq-cutoff)         0.1000000E-01      :
          :   Hmax (freq-cutoff)         5.0000000          :
          :   S6 in model hess.         20.0000000          :
          ...................................................

generating ANC from exact Hessian ...
Using Lindh-Hessian (1995)
 Shifting diagonal of input Hessian by   9.501483429243980E-003
 Lowest  eigenvalues of input Hessian
    0.000000    0.000000    0.000000    0.000000    0.000000    0.000000
    0.010000    0.209227    0.771838    1.215565    1.576861    3.164060
 Highest eigenvalues
    0.010000    0.209227    0.771838    1.215565    1.576861    3.164060
 

........................................................................
.............................. CYCLE    1 ..............................
........................................................................

 iter      E             dE          RMSdq      gap      omega  full diag
   1     -8.9327208 -0.893272E+01  0.220E-05    5.73       0.0  T
   2     -8.9327208 -0.259348E-12  0.120E-05    5.73    4156.3  T
   3     -8.9327208 -0.905942E-13  0.764E-06    5.73    6545.2  T
     SCC iter.                  ...        0 min,  0.000 sec
     gradient                   ...        0 min,  0.000 sec
 * total energy  :    -8.7367186 Eh     change       -0.1385558E-12 Eh
   gradient norm :     0.2314261 Eh/α   predicted     0.0000000E+00 (-100.00%)
   displ. norm   :     0.2107909 α      lambda       -0.3534698E-01
   maximum displ.:     0.1543027 α      in ANC's #2, #4, #3, ...

........................................................................
.............................. CYCLE    2 ..............................
........................................................................

 iter      E             dE          RMSdq      gap      omega  full diag
   1     -8.8916873 -0.889169E+01  0.145E+00    5.21       0.0  T
   2     -8.8947460 -0.305868E-02  0.113E+00    5.25       1.0  T
   3     -8.8973620 -0.261594E-02  0.407E-01    5.18       1.0  T
   4     -8.8973603  0.161638E-05  0.109E-01    5.20       1.0  T
   5     -8.8973713 -0.109041E-04  0.225E-02    5.19       2.2  T
   6     -8.8973710  0.250594E-06  0.104E-02    5.19       4.8  T
   7     -8.8973713 -0.264141E-06  0.670E-04    5.19      74.6  T
   8     -8.8973713 -0.613342E-09  0.139E-04    5.19     359.2  T
     SCC iter.                  ...        0 min,  0.001 sec
     gradient                   ...        0 min,  0.000 sec
 * total energy  :    -8.7541181 Eh     change       -0.1739949E-01 Eh
   gradient norm :     0.0306339 Eh/α   predicted    -0.1845877E-01 (   6.09%)
   displ. norm   :     0.0409019 α      lambda       -0.6555918E-03
   maximum displ.:     0.0386407 α      in ANC's #2, #6, #3, ...

........................................................................
.............................. CYCLE    3 ..............................
........................................................................

 iter      E             dE          RMSdq      gap      omega  full diag
   1     -8.8981480 -0.889815E+01  0.186E-01    5.23       0.0  T
   2     -8.8981948 -0.468026E-04  0.122E-01    5.21       1.0  T
   3     -8.8982122 -0.173996E-04  0.567E-02    5.21       1.0  T
   4     -8.8982122 -0.413383E-07  0.221E-02    5.21       2.3  T
   5     -8.8982130 -0.798288E-06  0.255E-03    5.21      19.6  T
   6     -8.8982130 -0.161025E-08  0.226E-04    5.21     221.5  T
   7     -8.8982130 -0.287326E-10  0.103E-04    5.21     486.2  T
     SCC iter.                  ...        0 min,  0.001 sec
     gradient                   ...        0 min,  0.000 sec
 * total energy  :    -8.7546067 Eh     change       -0.4886238E-03 Eh
   gradient norm :     0.0124252 Eh/α   predicted    -0.3283452E-03 ( -32.80%)
   displ. norm   :     0.0738371 α      lambda       -0.6308837E-03
   maximum displ.:     0.0694462 α      in ANC's #2, #3, #5, ...

........................................................................
.............................. CYCLE    4 ..............................
........................................................................

 iter      E             dE          RMSdq      gap      omega  full diag
   1     -8.8976095 -0.889761E+01  0.264E-01    5.22       0.0  T
   2     -8.8976261 -0.166786E-04  0.158E-01    5.22       1.0  T
   3     -8.8976252  0.939138E-06  0.852E-02    5.21       1.0  T
   4     -8.8976361 -0.108753E-04  0.111E-02    5.22       4.5  T
   5     -8.8976363 -0.226872E-06  0.393E-03    5.22      12.7  T
   6     -8.8976363 -0.350845E-08  0.326E-04    5.22     153.3  T
   7     -8.8976363 -0.153992E-10  0.128E-04    5.22     390.1  T
     SCC iter.                  ...        0 min,  0.001 sec
     gradient                   ...        0 min,  0.000 sec
 * total energy  :    -8.7550559 Eh     change       -0.4492070E-03 Eh
   gradient norm :     0.0174439 Eh/α   predicted    -0.3171609E-03 ( -29.40%)
   displ. norm   :     0.0817857 α      lambda       -0.4871637E-03
   maximum displ.:     0.0729686 α      in ANC's #2, #3, #5, ...

........................................................................
.............................. CYCLE    5 ..............................
........................................................................

 iter      E             dE          RMSdq      gap      omega  full diag
   1     -8.8971053 -0.889711E+01  0.287E-01    5.22       0.0  T
   2     -8.8971123 -0.700169E-05  0.161E-01    5.23       1.0  T
   3     -8.8971130 -0.684560E-06  0.214E-02    5.22       2.3  T
   4     -8.8971136 -0.619153E-06  0.472E-03    5.22      10.6  T
   5     -8.8971136 -0.149881E-08  0.338E-03    5.22      14.8  T
   6     -8.8971136 -0.146918E-07  0.381E-04    5.22     131.1  T
   7     -8.8971136 -0.259082E-10  0.106E-04    5.22     471.3  T
     SCC iter.                  ...        0 min,  0.001 sec
     gradient                   ...        0 min,  0.000 sec
 * total energy  :    -8.7554060 Eh     change       -0.3500449E-03 Eh
   gradient norm :     0.0179554 Eh/α   predicted    -0.2452137E-03 ( -29.95%)
   displ. norm   :     0.0693471 α      lambda       -0.3629213E-03
   maximum displ.:     0.0542146 α      in ANC's #2, #3, #5, ...

........................................................................
.............................. CYCLE    6 ..............................
........................................................................

 iter      E             dE          RMSdq      gap      omega  full diag
   1     -8.8979306 -0.889793E+01  0.266E-01    5.23       0.0  T
   2     -8.8979653 -0.346822E-04  0.155E-01    5.25       1.0  T
   3     -8.8979689 -0.357349E-05  0.837E-02    5.25       1.0  T
   4     -8.8979748 -0.596298E-05  0.178E-02    5.24       2.8  T
   5     -8.8979758 -0.954244E-06  0.250E-03    5.25      20.0  T
   6     -8.8979758 -0.909964E-09  0.317E-04    5.25     157.8  T
   7     -8.8979758 -0.241371E-10  0.151E-04    5.25     331.5  T
     SCC iter.                  ...        0 min,  0.001 sec
     gradient                   ...        0 min,  0.000 sec
 * total energy  :    -8.7556397 Eh     change       -0.2336723E-03 Eh
   gradient norm :     0.0094806 Eh/α   predicted    -0.1823335E-03 ( -21.97%)
   displ. norm   :     0.0193684 α      lambda       -0.1136035E-03
   maximum displ.:     0.0168112 α      in ANC's #3, #5, #4, ...

........................................................................
.............................. CYCLE    7 ..............................
........................................................................

 iter      E             dE          RMSdq      gap      omega  full diag
   1     -8.9000451 -0.890005E+01  0.999E-02    5.27       0.0  T
   2     -8.9000574 -0.123341E-04  0.691E-02    5.28       1.0  T
   3     -8.9000636 -0.619180E-05  0.321E-02    5.28       1.6  T
   4     -8.9000636 -0.192504E-07  0.970E-03    5.28       5.2  T
   5     -8.9000638 -0.177876E-06  0.132E-03    5.28      38.0  T
   6     -8.9000638 -0.411774E-09  0.765E-05    5.28     653.6  T
   7     -8.9000638 -0.607514E-12  0.393E-05    5.28    1270.7  T
     SCC iter.                  ...        0 min,  0.001 sec
     gradient                   ...        0 min,  0.000 sec
 * total energy  :    -8.7557080 Eh     change       -0.6830050E-04 Eh
   gradient norm :     0.0027292 Eh/α   predicted    -0.5682124E-04 ( -16.81%)
   displ. norm   :     0.0086114 α      lambda       -0.1375683E-04
   maximum displ.:     0.0075360 α      in ANC's #2, #1, #5, ...

........................................................................
.............................. CYCLE    8 ..............................
........................................................................

 iter      E             dE          RMSdq      gap      omega  full diag
   1     -8.9005444 -0.890054E+01  0.315E-02    5.28       0.0  T
   2     -8.9005449 -0.471752E-06  0.203E-02    5.28       2.5  T
   3     -8.9005451 -0.190473E-06  0.109E-02    5.28       4.6  T
   4     -8.9005451 -0.816408E-07  0.195E-03    5.28      25.6  T
   5     -8.9005452 -0.704122E-08  0.606E-04    5.28      82.6  T
   6     -8.9005452 -0.544063E-10  0.460E-05    5.28    1087.6  T
     SCC iter.                  ...        0 min,  0.001 sec
     gradient                   ...        0 min,  0.000 sec
 * total energy  :    -8.7557171 Eh     change       -0.9132087E-05 Eh
   gradient norm :     0.0019401 Eh/α   predicted    -0.6877487E-05 ( -24.69%)
   displ. norm   :     0.0124282 α      lambda       -0.6263533E-05
   maximum displ.:     0.0091965 α      in ANC's #2, #1, #5, ...

........................................................................
.............................. CYCLE    9 ..............................
........................................................................

 iter      E             dE          RMSdq      gap      omega  full diag
   1     -8.9003775 -0.890038E+01  0.425E-02    5.28       0.0  T
   2     -8.9003776 -0.667787E-07  0.241E-02    5.28       2.1  T
   3     -8.9003776 -0.128248E-07  0.240E-03    5.28      20.8  T
   4     -8.9003776 -0.876983E-08  0.103E-03    5.28      48.6  T
   5     -8.9003776 -0.730690E-09  0.576E-04    5.28      86.8  T
   6     -8.9003776 -0.279348E-09  0.587E-05    5.28     852.0  T
     SCC iter.                  ...        0 min,  0.001 sec
     gradient                   ...        0 min,  0.000 sec
 * total energy  :    -8.7557223 Eh     change       -0.5163634E-05 Eh
   gradient norm :     0.0018845 Eh/α   predicted    -0.3130825E-05 ( -39.37%)
   displ. norm   :     0.0043027 α      lambda       -0.1784578E-05
   maximum displ.:     0.0038140 α      in ANC's #1, #5, #4, ...

........................................................................
.............................. CYCLE   10 ..............................
........................................................................

 iter      E             dE          RMSdq      gap      omega  full diag
   1     -8.9000385 -0.890004E+01  0.182E-02    5.28       0.0  T
   2     -8.9000388 -0.359706E-06  0.124E-02    5.28       4.0  T
   3     -8.9000390 -0.213153E-06  0.593E-03    5.27       8.4  T
   4     -8.9000390 -0.359096E-08  0.134E-03    5.28      37.4  T
   5     -8.9000390 -0.397656E-08  0.241E-04    5.27     207.6  T
   6     -8.9000390 -0.131646E-10  0.180E-05    5.27    2784.6  T
     SCC iter.                  ...        0 min,  0.001 sec
     gradient                   ...        0 min,  0.000 sec
 * total energy  :    -8.7557238 Eh     change       -0.1564612E-05 Eh
   gradient norm :     0.0005401 Eh/α   predicted    -0.8927000E-06 ( -42.94%)
   displ. norm   :     0.0013866 α      lambda       -0.1387417E-06
   maximum displ.:     0.0009164 α      in ANC's #1, #2, #3, ...

   *** GEOMETRY OPTIMIZATION CONVERGED AFTER 10 ITERATIONS ***

------------------------------------------------------------------------
 total energy gain   :        -0.0190052 Eh      -11.9259 kcal/mol
 total RMSD          :         0.2044431 a0        0.1082 Å
 total power (kW/mol):        -4.9898138 (step)-2998.1371 (real)
------------------------------------------------------------------------

 ANCopt (total)                0 d,  0 h,  0 min,  0.017 sec
 optimizer setup                ...        0 min,  0.000 sec (  1.920%)
 model hessian                  ...        0 min,  0.000 sec (  0.744%)
 ANC generation                 ...        0 min,  0.000 sec (  0.528%)
 coordinate transformation      ...        0 min,  0.000 sec (  0.564%)
 single point calculation       ...        0 min,  0.014 sec ( 86.467%)
 optimization log               ...        0 min,  0.000 sec (  2.547%)
 hessian update                 ...        0 min,  0.000 sec (  0.600%)
 rational function              ...        0 min,  0.001 sec (  3.125%)

================
 final structure:
================
4
 xtb: 6.7.1 (edcfbbe)
N           -8.58855793968775       -3.29956421481408       -1.82779294413318
C           -7.62346403021505       -2.63150516741947       -1.76827859465626
N           -6.67392029877930       -1.79522437621254       -1.80272417489662
H           -5.83915973131790       -2.09787024155391       -1.31416028631395
 
 Bond Distances (Angstroems)
 ---------------------------
N1-C2=1.1753         C2-N1=1.1753         C2-N3=1.2658         N3-C2=1.2658         N3-H4=1.0135         H4-N3=1.0135         
 N  H  Rav=1.0135 sigma=0.0000  Rmin=1.0135  Rmax=1.0135     1
 N  C  Rav=1.2205 sigma=0.0453  Rmin=1.1753  Rmax=1.2658     2
 
 selected bond angles (degree)
 --------------------
N3-C2-N1=171.97                H4-N3-C2=114.05                
 
 selected dihedral angles (degree)
 ---------------------------------
H4-N3-C2-N1=181.05            
           -------------------------------------------------
          |                Final Singlepoint                |
           -------------------------------------------------

          ...................................................
          :                      SETUP                      :
          :.................................................:
          :  # basis functions                  13          :
          :  # atomic orbitals                  13          :
          :  # shells                            7          :
          :  # electrons                        16          :
          :  max. iterations                   250          :
          :  Hamiltonian                  GFN2-xTB          :
          :  restarted?                      false          :
          :  GBSA solvation                   true          :
          :  PC potential                    false          :
          :  electronic temp.          300.0000000     K    :
          :  accuracy                    1.0000000          :
          :  -> integral cutoff          0.2500000E+02      :
          :  -> integral neglect         0.1000000E-07      :
          :  -> SCF convergence          0.1000000E-05 Eh   :
          :  -> wf. convergence          0.1000000E-03 e    :
          :  Broyden damping             0.4000000          :
          :  net charge                         -1          :
          :  unpaired electrons                  0          :
          ...................................................

 iter      E             dE          RMSdq      gap      omega  full diag
   1     -8.9000390 -0.890004E+01  0.275E-06    5.27       0.0  T
   2     -8.9000390  0.000000E+00  0.166E-06    5.27   30052.2  T
   3     -8.9000390  0.000000E+00  0.870E-07    5.27   57456.1  T

   *** convergence criteria satisfied after 3 iterations ***

         #    Occupation            Energy/Eh            Energy/eV
      -------------------------------------------------------------
         1        2.0000           -0.5631558             -15.3242
         2        2.0000           -0.5426568             -14.7664
         3        2.0000           -0.4763909             -12.9633
         4        2.0000           -0.4092126             -11.1352
         5        2.0000           -0.4087892             -11.1237
         6        2.0000           -0.3532220              -9.6117
         7        2.0000           -0.3258916              -8.8680
         8        2.0000           -0.2982588              -8.1160 (HOMO)
         9                         -0.1044146              -2.8413 (LUMO)
        10                         -0.0687530              -1.8709
        11                          0.1843511               5.0164
        12                          0.3766686              10.2497
        13                          1.2249133              33.3316
      -------------------------------------------------------------
                  HL-Gap            0.1938442 Eh            5.2748 eV
             Fermi-level           -0.2013367 Eh           -5.4787 eV

 SCC (total)                   0 d,  0 h,  0 min,  0.001 sec
 SCC setup                      ...        0 min,  0.000 sec ( 11.788%)
 Dispersion                     ...        0 min,  0.000 sec (  1.989%)
 classical contributions        ...        0 min,  0.000 sec (  0.759%)
 integral evaluation            ...        0 min,  0.000 sec ( 15.314%)
 iterations                     ...        0 min,  0.000 sec ( 32.575%)
 molecular gradient             ...        0 min,  0.000 sec ( 27.429%)
 printout                       ...        0 min,  0.000 sec (  6.970%)

         :::::::::::::::::::::::::::::::::::::::::::::::::::::
         ::                     SUMMARY                     ::
         :::::::::::::::::::::::::::::::::::::::::::::::::::::
         :: total energy              -8.755723825925 Eh    ::
         :: total w/o Gsasa/hb        -8.746126547801 Eh    ::
         :: gradient norm              0.000608777279 Eh/a0 ::
         :: HOMO-LUMO gap              5.274769712512 eV    ::
         ::.................................................::
         :: SCC energy                -8.900039051623 Eh    ::
         :: -> isotropic ES            0.195864534105 Eh    ::
         :: -> anisotropic ES          0.011165413262 Eh    ::
         :: -> anisotropic XC          0.010250101482 Eh    ::
         :: -> dispersion             -0.001479643453 Eh    ::
         :: -> Gsolv                  -0.117811758309 Eh    ::
         ::    -> Gelec               -0.108214480185 Eh    ::
         ::    -> Gsasa               -0.008399716209 Eh    ::
         ::    -> Ghb                 -0.002278321613 Eh    ::
         ::    -> Gshift               0.001080759698 Eh    ::
         :: repulsion energy           0.144315225698 Eh    ::
         :: add. restraining           0.000000000000 Eh    ::
         :: total charge              -1.000000000000 e     ::
         :::::::::::::::::::::::::::::::::::::::::::::::::::::

           ------------------------------------------------- 
          |                Numerical Hessian                |
           ------------------------------------------------- 
step length          :   0.00500
SCC accuracy         :   0.30000
Hessian scale factor :   1.00000
frozen atoms in %    :   0.00000    0
RMS gradient         :   0.00061
estimated CPU  time      0.00 min
estimated wall time      0.00 min

writing file <hessian>.

 projected vibrational frequencies (cm⁻¹)
eigval :       -0.00    -0.00     0.00     0.00     0.00     0.00
eigval :      448.00   491.10  1057.54  1288.07  2345.02  3348.82
           -------------------------------------------------
          |                Property Printout                |
           -------------------------------------------------

    * Orbital Energies and Occupations

         #    Occupation            Energy/Eh            Energy/eV
      -------------------------------------------------------------
         1        2.0000           -0.5631558             -15.3242
         2        2.0000           -0.5426568             -14.7664
         3        2.0000           -0.4763909             -12.9633
         4        2.0000           -0.4092126             -11.1352
         5        2.0000           -0.4087892             -11.1237
         6        2.0000           -0.3532220              -9.6117
         7        2.0000           -0.3258916              -8.8680
         8        2.0000           -0.2982588              -8.1160 (HOMO)
         9                         -0.1044146              -2.8413 (LUMO)
        10                         -0.0687530              -1.8709
        11                          0.1843511               5.0164
        12                          0.3766686              10.2497
        13                          1.2249133              33.3316
      -------------------------------------------------------------
                  HL-Gap            0.1938442 Eh            5.2748 eV
             Fermi-level           -0.2013367 Eh           -5.4787 eV

     #   Z          covCN         q      C6AA      α(0)
     1   7 N        0.912    -0.654    38.459     8.969
     2   6 C        1.821     0.143    27.691     8.502
     3   7 N        1.772    -0.581    37.034     9.011
     4   1 H        0.860     0.092     1.874     2.144

 Mol. C6AA /au·bohr⁶  :        356.964454
 Mol. C8AA /au·bohr⁸  :       8217.705400
 Mol. α(0) /au        :         28.626890


Wiberg/Mayer (AO) data.
largest (>0.10) Wiberg bond orders for each atom

 ---------------------------------------------------------------------------
     #   Z sym  total        # sym  WBO       # sym  WBO       # sym  WBO
 ---------------------------------------------------------------------------
     1   7 N    2.781 --     2 C    2.385     3 N    0.355
     2   6 C    3.948 --     1 N    2.385     3 N    1.551
     3   7 N    2.844 --     2 C    1.551     4 H    0.938     1 N    0.355
     4   1 H    0.992 --     3 N    0.938
 ---------------------------------------------------------------------------

Topologies differ in total number of bonds
Writing topology from bond orders to xtbtopo.mol

molecular dipole:
                 x           y           z       tot (Debye)
 q only:       14.866       4.973       3.532
   full:       15.249       4.942       3.703      41.817
molecular quadrupole (traceless):
                xx          xy          yy          xz          yz          zz
 q only:     -204.026    -115.141      90.953     -78.320     -26.272     113.073
  q+dip:     -213.833    -118.133      96.290     -83.260     -27.138     117.544
   full:     -214.337    -119.117      96.193     -83.187     -27.226     118.144

           -------------------------------------------------
          |                Geometry Summary                 |
           -------------------------------------------------

      molecular mass/u    :       41.0320831
   center of mass at/Å    :       -7.5849617      -2.5609361      -1.7891667
  moments of inertia/u·Å² :        0.7587304E+00   0.4445034E+02   0.4520903E+02
rotational constants/cm⁻¹ :        0.2221821E+02   0.3792464E+00   0.3728820E+00

 * 2 selected distances

     #   Z          #   Z                                           value/Å
     1   7 N        2   6 C                                       1.1752665 (min)
     2   6 C        3   7 N                                       1.2657747 (max)

 * 1 distinct bonds (by element types)

   Z      Z             #   av. dist./Å        max./Å        min./Å
   6 C    7 N           2     1.2205206     1.2657747     1.1752665

           -------------------------------------------------
          |               Frequency Printout                |
           -------------------------------------------------
 projected vibrational frequencies (cm⁻¹)
eigval :       -0.00    -0.00     0.00     0.00     0.00     0.00
eigval :      448.00   491.10  1057.54  1288.07  2345.02  3348.82
 reduced masses (amu)
   1:  2.94   2: 13.11   3: 13.62   4: 13.47   5: 12.53   6: 12.87   7: 10.84   8: 11.69
   9:  3.94  10: 13.64  11: 12.56  12:  1.89
 IR intensities (km·mol⁻¹)
   1: 85.88   2: 40.31   3:  9.16   4: 18.12   5: 14.36   6: 22.68   7: 50.83   8: 35.62
   9:177.75  10: 67.65  11:******  12:151.78
 Raman intensities (Ä⁴*amu⁻¹)
   1:  0.00   2:  0.00   3:  0.00   4:  0.00   5:  0.00   6:  0.00   7:  0.00   8:  0.00
   9:  0.00  10:  0.00  11:  0.00  12:  0.00
 output can be read by thermo (or use thermo option).
 writing <g98.out> molden fake output.
 recommended (thermochemical) frequency scaling factor: 1.0
           -------------------------------------------------
          |             Thermodynamic Functions             |
           -------------------------------------------------

Refinement of some symmetry elements was terminated before convergence was reached.
Some symmetry elements may remain unidentified.
Molecule has no symmetry elements
It seems to be the C1 point group
c1  symmetry found (for desy threshold:  0.10E+00) used in thermo

          ...................................................
          :                      SETUP                      :
          :.................................................:
          :  # frequencies                           6      :
          :  # imaginary freq.                       0      :
          :  linear?                             false      :
          :  only rotor calc.                    false      :
          :  symmetry                               c1      :
          :  rotational number                       1      :
          :  scaling factor                  1.0000000      :
          :  rotor cutoff                   50.0000000 cm⁻¹ :
          :  imag. cutoff                  -20.0000000 cm⁻¹ :
          :.................................................:

    mode    ω/cm⁻¹     T·S(HO)/kcal·mol⁻¹    T·S(FR)/kcal·mol⁻¹   T·S(vib)
   ------------------------------------------------------------------------
   ------------------------------------------------------------------------

   temp. (K)  partition function   enthalpy   heat capacity  entropy
                                   cal/mol     cal/K/mol   cal/K/mol   J/K/mol
 298.15  VIB   1.26                  337.373      3.111      1.586
         ROT  0.298E+04              888.752      2.981     18.880
         INT  0.375E+04             1226.126      6.091     20.466
         TR   0.254E+27             1481.254      4.968     37.046
         TOT                        2707.3794    11.0596    57.5120   240.6302

       T/K    H(0)-H(T)+PV         H(T)/Eh          T*S/Eh         G(T)/Eh
   ------------------------------------------------------------------------
    298.15    0.431448E-02    0.247691E-01    0.273258E-01   -0.255665E-02
   ------------------------------------------------------------------------

         :::::::::::::::::::::::::::::::::::::::::::::::::::::
         ::                  THERMODYNAMIC                  ::
         :::::::::::::::::::::::::::::::::::::::::::::::::::::
         :: total free energy          -8.758280479873 Eh   ::
         ::.................................................::
         :: total energy               -8.755723825559 Eh   ::
         :: zero point energy           0.020454664680 Eh   ::
         :: G(RRHO) w/o ZPVE           -0.023011318993 Eh   ::
         :: G(RRHO) contrib.           -0.002556654313 Eh   ::
         :::::::::::::::::::::::::::::::::::::::::::::::::::::

optimized geometry written to: xtbopt.xyz


           -------------------------------------------------
          | TOTAL ENERGY               -8.755723825559 Eh   |
          | TOTAL ENTHALPY             -8.730954677114 Eh   |
          | TOTAL FREE ENERGY          -8.758280479873 Eh   |
          | GRADIENT NORM               0.000608770472 Eh/α |
          | HOMO-LUMO GAP               5.274769676483 eV   |
           -------------------------------------------------

------------------------------------------------------------------------
 * finished run on 2025/10/17 at 21:52:48.424     
------------------------------------------------------------------------
 total:
 * wall-time:     0 d,  0 h,  0 min,  0.447 sec
 *  cpu-time:     0 d,  0 h,  0 min,  0.465 sec
 * ratio c/w:     1.041 speedup
 SCF:
 * wall-time:     0 d,  0 h,  0 min,  0.025 sec
 *  cpu-time:     0 d,  0 h,  0 min,  0.031 sec
 * ratio c/w:     1.257 speedup
 ANC optimizer:
 * wall-time:     0 d,  0 h,  0 min,  0.114 sec
 *  cpu-time:     0 d,  0 h,  0 min,  0.132 sec
 * ratio c/w:     1.167 speedup
 analytical hessian:
 * wall-time:     0 d,  0 h,  0 min,  0.066 sec
 *  cpu-time:     0 d,  0 h,  0 min,  0.082 sec
 * ratio c/w:     1.232 speedup

