4
 energy: -8.736718628712 gnorm: 0.231426052875 xtb: 6.7.1 (edcfbbe)
N           -8.47622600000000       -3.30207800000000       -1.76958200000000
C           -7.60803000000000       -2.53787900000000       -1.81138800000000
N           -6.70797400000000       -1.79052000000000       -1.83124800000000
H           -5.93287200000000       -2.19368700000000       -1.30073800000000
4
 energy: -8.754118117019 gnorm: 0.030633865789 xtb: 6.7.1 (edcfbbe)
N           -8.53904752843902       -3.32812511970044       -1.78188888859170
C           -7.63784692114740       -2.56661935229959       -1.80864607265185
N           -6.66239201490873       -1.76965341899510       -1.82333453435386
H           -5.88581553550485       -2.15976610900488       -1.29908650440259
4
 energy: -8.754606740821 gnorm: 0.012425511808 xtb: 6.7.1 (edcfbbe)
N           -8.54736854267837       -3.32475227906640       -1.78713204092174
C           -7.64128205594106       -2.57669052204720       -1.80479176880664
N           -6.66102051301605       -1.77312681473053       -1.82089751802764
H           -5.87543088836451       -2.14959438415587       -1.30013467224398
4
 energy: -8.755055947819 gnorm: 0.017445710630 xtb: 6.7.1 (edcfbbe)
N           -8.56430384976592       -3.31882859285002       -1.79746778836643
C           -7.64194582094868       -2.59371124758667       -1.79614967846997
N           -6.66077937039552       -1.78069779561371       -1.81654840535228
H           -5.85807295888987       -2.13092636394960       -1.30279012781131
4
 energy: -8.755405992741 gnorm: 0.017958170132 xtb: 6.7.1 (edcfbbe)
N           -8.58189187435868       -3.31057481073505       -1.81016114107283
C           -7.63809815275767       -2.61261508523775       -1.78462161977069
N           -6.66335812095778       -1.79044493468064       -1.81123556745839
H           -5.84175385192587       -2.11052916934655       -1.30693767169810
4
 energy: -8.755639665088 gnorm: 0.009482246711 xtb: 6.7.1 (edcfbbe)
N           -8.59392484907660       -3.30115539836342       -1.82193923277712
C           -7.63071433795163       -2.62903469755800       -1.77289921931380
N           -6.66824707482159       -1.79968717643154       -1.80626979730120
H           -5.83221573815019       -2.09428672764705       -1.31184775060789
4
 energy: -8.755707965593 gnorm: 0.002732689170 xtb: 6.7.1 (edcfbbe)
N           -8.59357023097797       -3.29717041598038       -1.82492120885989
C           -7.62592926374496       -2.63278409698392       -1.76891595517365
N           -6.67123875683615       -1.80183704116189       -1.80519296755028
H           -5.83436374844093       -2.09237244587382       -1.31392586841619
4
 energy: -8.755717097679 gnorm: 0.001946543289 xtb: 6.7.1 (edcfbbe)
N           -8.59148685369074       -3.29738037471307       -1.82533446892045
C           -7.62456031494766       -2.63214836907165       -1.76861933681669
N           -6.67221504165398       -1.80024581715480       -1.80485760636793
H           -5.83683978970762       -2.09438943906049       -1.31414458789493
4
 energy: -8.755722261313 gnorm: 0.001901186351 xtb: 6.7.1 (edcfbbe)
N           -8.58894456391180       -3.29882168761423       -1.82675094691212
C           -7.62336751259725       -2.63132160468340       -1.76840927658391
N           -6.67353996948987       -1.79667880974487       -1.80361287177081
H           -5.83924995400108       -2.09734189795752       -1.31418290473316
4
 energy: -8.755723825925 gnorm: 0.000608732043 xtb: 6.7.1 (edcfbbe)
N           -8.58855793968775       -3.29956421481408       -1.82779294413318
C           -7.62346403021505       -2.63150516741947       -1.76827859465626
N           -6.67392029877930       -1.79522437621254       -1.80272417489662
H           -5.83915973131790       -2.09787024155391       -1.31416028631395
