
                                 *****************
                                 * O   R   C   A *
                                 *****************

                                            #,                                       
                                            ###                                      
                                            ####                                     
                                            #####                                    
                                            ######                                   
                                           ########,                                 
                                     ,,################,,,,,                         
                               ,,#################################,,                 
                          ,,##########################################,,             
                       ,#########################################, ''#####,          
                    ,#############################################,,   '####,        
                  ,##################################################,,,,####,       
                ,###########''''           ''''###############################       
              ,#####''   ,,,,##########,,,,          '''####'''          '####       
            ,##' ,,,,###########################,,,                        '##       
           ' ,,###''''                  '''############,,,                           
         ,,##''                                '''############,,,,        ,,,,,,###''
      ,#''                                            '''#######################'''  
     '                                                          ''''####''''         
             ,#######,   #######,   ,#######,      ##                                
            ,#'     '#,  ##    ##  ,#'     '#,    #''#        ######   ,####,        
            ##       ##  ##   ,#'  ##            #'  '#       #        #'  '#        
            ##       ##  #######   ##           ,######,      #####,   #    #        
            '#,     ,#'  ##    ##  '#,     ,#' ,#      #,         ##   #,  ,#        
             '#######'   ##     ##  '#######'  #'      '#     #####' # '####'        



                  #######################################################
                  #                        -***-                        #
                  #          Department of theory and spectroscopy      #
                  #    Directorship and core code : Frank Neese         #
                  #        Max Planck Institute fuer Kohlenforschung    #
                  #                Kaiser Wilhelm Platz 1               #
                  #                 D-45470 Muelheim/Ruhr               #
                  #                      Germany                        #
                  #                                                     #
                  #                  All rights reserved                #
                  #                        -***-                        #
                  #######################################################


                         Program Version 5.0.4 -  RELEASE  -


 With contributions from (in alphabetic order):
   Daniel Aravena         : Magnetic Suceptibility
   Michael Atanasov       : Ab Initio Ligand Field Theory (pilot matlab implementation)
   Alexander A. Auer      : GIAO ZORA, VPT2 properties, NMR spectrum
   Ute Becker             : Parallelization
   Giovanni Bistoni       : ED, misc. LED, open-shell LED, HFLD
   Martin Brehm           : Molecular dynamics
   Dmytro Bykov           : SCF Hessian
   Vijay G. Chilkuri      : MRCI spin determinant printing, contributions to CSF-ICE
   Dipayan Datta          : RHF DLPNO-CCSD density
   Achintya Kumar Dutta   : EOM-CC, STEOM-CC
   Dmitry Ganyushin       : Spin-Orbit,Spin-Spin,Magnetic field MRCI
   Miquel Garcia          : C-PCM and meta-GGA Hessian, CC/C-PCM, Gaussian charge scheme
   Yang Guo               : DLPNO-NEVPT2, F12-NEVPT2, CIM, IAO-localization
   Andreas Hansen         : Spin unrestricted coupled pair/coupled cluster methods
   Benjamin Helmich-Paris : MC-RPA, TRAH-SCF, COSX integrals
   Lee Huntington         : MR-EOM, pCC
   Robert Izsak           : Overlap fitted RIJCOSX, COSX-SCS-MP3, EOM
   Marcus Kettner         : VPT2
   Christian Kollmar      : KDIIS, OOCD, Brueckner-CCSD(T), CCSD density, CASPT2, CASPT2-K
   Simone Kossmann        : Meta GGA functionals, TD-DFT gradient, OOMP2, MP2 Hessian
   Martin Krupicka        : Initial AUTO-CI
   Lucas Lang             : DCDCAS
   Marvin Lechner         : AUTO-CI (C++ implementation), FIC-MRCC
   Dagmar Lenk            : GEPOL surface, SMD
   Dimitrios Liakos       : Extrapolation schemes; Compound Job, initial MDCI parallelization
   Dimitrios Manganas     : Further ROCIS development; embedding schemes
   Dimitrios Pantazis     : SARC Basis sets
   Anastasios Papadopoulos: AUTO-CI, single reference methods and gradients
   Taras Petrenko         : DFT Hessian,TD-DFT gradient, ASA, ECA, R-Raman, ABS, FL, XAS/XES, NRVS
   Peter Pinski           : DLPNO-MP2, DLPNO-MP2 Gradient
   Christoph Reimann      : Effective Core Potentials
   Marius Retegan         : Local ZFS, SOC
   Christoph Riplinger    : Optimizer, TS searches, QM/MM, DLPNO-CCSD(T), (RO)-DLPNO pert. Triples
   Tobias Risthaus        : Range-separated hybrids, TD-DFT gradient, RPA, STAB
   Michael Roemelt        : Original ROCIS implementation
   Masaaki Saitow         : Open-shell DLPNO-CCSD energy and density
   Barbara Sandhoefer     : DKH picture change effects
   Avijit Sen             : IP-ROCIS
   Kantharuban Sivalingam : CASSCF convergence, NEVPT2, FIC-MRCI
   Bernardo de Souza      : ESD, SOC TD-DFT
   Georgi Stoychev        : AutoAux, RI-MP2 NMR, DLPNO-MP2 response
   Willem Van den Heuvel  : Paramagnetic NMR
   Boris Wezisla          : Elementary symmetry handling
   Frank Wennmohs         : Technical directorship


 We gratefully acknowledge several colleagues who have allowed us to
 interface, adapt or use parts of their codes:
   Stefan Grimme, W. Hujo, H. Kruse, P. Pracht,  : VdW corrections, initial TS optimization,
                  C. Bannwarth, S. Ehlert          DFT functionals, gCP, sTDA/sTD-DF
   Ed Valeev, F. Pavosevic, A. Kumar             : LibInt (2-el integral package), F12 methods
   Garnet Chan, S. Sharma, J. Yang, R. Olivares  : DMRG
   Ulf Ekstrom                                   : XCFun DFT Library
   Mihaly Kallay                                 : mrcc  (arbitrary order and MRCC methods)
   Jiri Pittner, Ondrej Demel                    : Mk-CCSD
   Frank Weinhold                                : gennbo (NPA and NBO analysis)
   Christopher J. Cramer and Donald G. Truhlar   : smd solvation model
   Lars Goerigk                                  : TD-DFT with DH, B97 family of functionals
   V. Asgeirsson, H. Jonsson                     : NEB implementation
   FAccTs GmbH                                   : IRC, NEB, NEB-TS, DLPNO-Multilevel, CI-OPT
                                                   MM, QMMM, 2- and 3-layer-ONIOM, Crystal-QMMM,
                                                   LR-CPCM, SF, NACMEs, symmetry and pop. for TD-DFT,
                                                   nearIR, NL-DFT gradient (VV10), updates on ESD,
                                                   ML-optimized integration grids
   S Lehtola, MJT Oliveira, MAL Marques          : LibXC Library
   Liviu Ungur et al                             : ANISO software


 Your calculation uses the libint2 library for the computation of 2-el integrals
 For citations please refer to: http://libint.valeyev.net

 Your ORCA version has been built with support for libXC version: 5.1.0
 For citations please refer to: https://tddft.org/programs/libxc/

 This ORCA versions uses:
   CBLAS   interface :  Fast vector & matrix operations
   LAPACKE interface :  Fast linear algebra routines
   SCALAPACK package :  Parallel linear algebra routines
   Shared memory     :  Shared parallel matrices
   BLAS/LAPACK       :  OpenBLAS 0.3.15  USE64BITINT DYNAMIC_ARCH NO_AFFINITY Haswell SINGLE_THREADED
        Core in use  :  Haswell
   Copyright (c) 2011-2014, The OpenBLAS Project


================================================================================

----- Orbital basis set information -----
Your calculation utilizes the basis: def2-TZVP
   F. Weigend and R. Ahlrichs, Phys. Chem. Chem. Phys. 7, 3297 (2005).

----- AuxJ basis set information -----
Your calculation utilizes the auxiliary basis: def2/J
   F. Weigend, Phys. Chem. Chem. Phys. 8, 1057 (2006).

================================================================================
                                        WARNINGS
                       Please study these warnings very carefully!
================================================================================


WARNING: Geometry Optimization
  ===> : Switching off AutoStart
         For restart on a previous wavefunction, please use MOREAD

INFO   : the flag for use of the SHARK integral package has been found!

================================================================================
                                       INPUT FILE
================================================================================
NAME = inp.inp
|  1> !OPT PBE def2-TZVP CPCM(water)
|  2> 
|  3> *xyz -1 1
|  4> C     -5.196236   -6.326544    2.965507
|  5> C     -5.017208   -5.015190    3.587202
|  6> C     -6.118016   -7.330911    3.561764
|  7> C     -4.464407   -6.654717    1.741885
|  8> C     -4.112277   -4.038982    2.988327
|  9> H     -5.562992   -4.739431    4.477838
| 10> C     -3.394921   -4.390580    1.783250
| 11> H     -3.997322   -3.057008    3.427246
| 12> C     -3.566100   -5.674398    1.141067
| 13> O     -2.646634   -3.543072    1.254524
| 14> H     -4.589301   -7.613315    1.259811
| 15> H     -6.606122   -6.953260    4.466156
| 16> H     -6.903570   -7.602481    2.848838
| 17> H     -5.571184   -8.239799    3.833715
| 18> H     -3.057448   -5.893929    0.212047
| 19> *
| 20> 
| 21>                          ****END OF INPUT****
================================================================================

                       *****************************
                       * Geometry Optimization Run *
                       *****************************

Geometry optimization settings:
Update method            Update   .... BFGS
Choice of coordinates    CoordSys .... Z-matrix Internals
Initial Hessian          InHess   .... Almoef's Model

Convergence Tolerances:
Energy Change            TolE     ....  5.0000e-06 Eh
Max. Gradient            TolMAXG  ....  3.0000e-04 Eh/bohr
RMS Gradient             TolRMSG  ....  1.0000e-04 Eh/bohr
Max. Displacement        TolMAXD  ....  4.0000e-03 bohr
RMS Displacement         TolRMSD  ....  2.0000e-03 bohr
Strict Convergence                ....  False
------------------------------------------------------------------------------
                        ORCA OPTIMIZATION COORDINATE SETUP
------------------------------------------------------------------------------

The optimization will be done in new redundant internal coordinates
Making redundant internal coordinates   ...  (new redundants) done
Evaluating the initial hessian          ...  (Almloef) done
Evaluating the coordinates              ...  done
Calculating the B-matrix                .... done
Calculating the G-matrix                .... done
Diagonalizing the G-matrix              .... done
The first mode is                       ....   30
The number of degrees of freedom        ....   39

    -----------------------------------------------------------------
                    Redundant Internal Coordinates


    -----------------------------------------------------------------
         Definition                    Initial Value    Approx d2E/dq
    -----------------------------------------------------------------
      1. B(C   1,C   0)                  1.4623         0.479128   
      2. B(C   2,C   0)                  1.4879         0.436001   
      3. B(C   3,C   0)                  1.4631         0.477736   
      4. B(C   4,C   1)                  1.4596         0.483772   
      5. B(H   5,C   1)                  1.0803         0.373095   
      6. B(C   6,C   4)                  1.4458         0.508934   
      7. B(H   7,C   4)                  1.0817         0.371210   
      8. B(C   8,C   6)                  1.4456         0.509284   
      9. B(C   8,C   3)                  1.4591         0.484729   
     10. B(O   9,C   6)                  1.2481         0.942470   
     11. B(H  10,C   3)                  1.0802         0.373255   
     12. B(H  11,C   2)                  1.0949         0.353684   
     13. B(H  12,C   2)                  1.0950         0.353496   
     14. B(H  13,C   2)                  1.0950         0.353525   
     15. B(H  14,C   8)                  1.0817         0.371297   
     16. A(C   1,C   0,C   2)          120.7184         0.389579   
     17. A(C   1,C   0,C   3)          119.7027         0.395863   
     18. A(C   2,C   0,C   3)          119.5787         0.389381   
     19. A(C   0,C   1,H   5)          121.1685         0.339959   
     20. A(C   0,C   1,C   4)          120.0825         0.396736   
     21. A(C   4,C   1,H   5)          118.7334         0.340507   
     22. A(H  11,C   2,H  13)          107.6845         0.289183   
     23. A(C   0,C   2,H  13)          110.5133         0.331681   
     24. A(C   0,C   2,H  12)          110.5438         0.331676   
     25. A(H  12,C   2,H  13)          108.3059         0.289159   
     26. A(C   0,C   2,H  11)          111.9845         0.331705   
     27. A(H  11,C   2,H  12)          107.6683         0.289179   
     28. A(C   0,C   3,H  10)          120.9609         0.339818   
     29. A(C   0,C   3,C   8)          120.1085         0.396671   
     30. A(C   8,C   3,H  10)          118.9230         0.340644   
     31. A(C   1,C   4,C   6)          119.1391         0.400968   
     32. A(C   6,C   4,H   7)          120.4124         0.343119   
     33. A(C   1,C   4,H   7)          120.4332         0.340219   
     34. A(C   8,C   6,O   9)          119.0672         0.448868   
     35. A(C   4,C   6,O   9)          119.0400         0.448812   
     36. A(C   4,C   6,C   8)          121.8338         0.404618   
     37. A(C   6,C   8,H  14)          120.4035         0.343172   
     38. A(C   3,C   8,C   6)          119.1200         0.401156   
     39. A(C   3,C   8,H  14)          120.4521         0.340345   
     40. D(C   4,C   1,C   0,C   3)      0.0120         0.015630   
     41. D(H   5,C   1,C   0,C   2)     -1.2782         0.015630   
     42. D(C   4,C   1,C   0,C   2)   -179.8243         0.015630   
     43. D(H   5,C   1,C   0,C   3)    178.5581         0.015630   
     44. D(H  12,C   2,C   0,C   1)    120.4342         0.014031   
     45. D(H  13,C   2,C   0,C   3)     60.4883         0.014031   
     46. D(H  13,C   2,C   0,C   1)   -119.6753         0.014031   
     47. D(H  12,C   2,C   0,C   3)    -59.4023         0.014031   
     48. D(H  11,C   2,C   0,C   3)   -179.4572         0.014031   
     49. D(H  11,C   2,C   0,C   1)      0.3792         0.014031   
     50. D(H  10,C   3,C   0,C   1)   -179.3424         0.015539   
     51. D(H  10,C   3,C   0,C   2)      0.4958         0.015539   
     52. D(C   8,C   3,C   0,C   2)    179.4835         0.015539   
     53. D(C   8,C   3,C   0,C   1)     -0.3547         0.015539   
     54. D(C   6,C   4,C   1,C   0)     -0.3635         0.015934   
     55. D(H   7,C   4,C   1,H   5)     -0.3623         0.015934   
     56. D(H   7,C   4,C   1,C   0)    178.2189         0.015934   
     57. D(C   6,C   4,C   1,H   5)   -178.9448         0.015934   
     58. D(O   9,C   6,C   4,H   7)     -0.3137         0.017650   
     59. D(O   9,C   6,C   4,C   1)    178.2690         0.017650   
     60. D(C   8,C   6,C   4,H   7)   -177.4950         0.017650   
     61. D(C   8,C   6,C   4,C   1)      1.0877         0.017650   
     62. D(H  14,C   8,C   6,O   9)     -0.3985         0.017675   
     63. D(H  14,C   8,C   6,C   4)    176.7820         0.017675   
     64. D(C   3,C   8,C   6,O   9)   -178.6077         0.017675   
     65. D(C   3,C   8,C   6,C   4)     -1.4272         0.017675   
     66. D(H  14,C   8,C   3,H  10)      1.8429         0.015998   
     67. D(H  14,C   8,C   3,C   0)   -177.1653         0.015998   
     68. D(C   6,C   8,C   3,H  10)   -179.9487         0.015998   
     69. D(C   6,C   8,C   3,C   0)      1.0430         0.015998   
    -----------------------------------------------------------------

Number of atoms                         .... 15
Number of degrees of freedom            .... 69

         *************************************************************
         *                GEOMETRY OPTIMIZATION CYCLE   1            *
         *************************************************************
---------------------------------
CARTESIAN COORDINATES (ANGSTROEM)
---------------------------------
  C     -5.196236   -6.326544    2.965507
  C     -5.017208   -5.015190    3.587202
  C     -6.118016   -7.330911    3.561764
  C     -4.464407   -6.654717    1.741885
  C     -4.112277   -4.038982    2.988327
  H     -5.562992   -4.739431    4.477838
  C     -3.394921   -4.390580    1.783250
  H     -3.997322   -3.057008    3.427246
  C     -3.566100   -5.674398    1.141067
  O     -2.646634   -3.543072    1.254524
  H     -4.589301   -7.613315    1.259811
  H     -6.606122   -6.953260    4.466156
  H     -6.903570   -7.602481    2.848838
  H     -5.571184   -8.239799    3.833715
  H     -3.057448   -5.893929    0.212047

----------------------------
CARTESIAN COORDINATES (A.U.)
----------------------------
  NO LB      ZA    FRAG     MASS         X           Y           Z
   0 C     6.0000    0    12.011   -9.819463  -11.955436    5.603996
   1 C     6.0000    0    12.011   -9.481149   -9.477336    6.778829
   2 C     6.0000    0    12.011  -11.561375  -13.853414    6.730759
   3 C     6.0000    0    12.011   -8.436507  -12.575593    3.291686
   4 C     6.0000    0    12.011   -7.771077   -7.632570    5.647120
   5 H     1.0000    0     1.008  -10.512531   -8.956227    8.461887
   6 C     6.0000    0    12.011   -6.415471   -8.296994    3.369854
   7 H     1.0000    0     1.008   -7.553844   -5.776908    6.476556
   8 C     6.0000    0    12.011   -6.738952  -10.723058    2.156304
   9 O     8.0000    0    15.999   -5.001413   -6.695436    2.370707
  10 H     1.0000    0     1.008   -8.672522  -14.387080    2.380698
  11 H     1.0000    0     1.008  -12.483761  -13.139757    8.439812
  12 H     1.0000    0     1.008  -13.045857  -14.366607    5.383524
  13 H     1.0000    0     1.008  -10.528012  -15.570964    7.244671
  14 H     1.0000    0     1.008   -5.777739  -11.137912    0.400711

--------------------------------
INTERNAL COORDINATES (ANGSTROEM)
--------------------------------
 C      0   0   0     0.000000000000     0.00000000     0.00000000
 C      1   0   0     1.462260240561     0.00000000     0.00000000
 C      1   2   0     1.487936103849   120.71842215     0.00000000
 C      1   2   3     1.463052289583   119.70267424   179.83626342
 C      2   1   3     1.459634693905   120.08254191   180.17573476
 H      2   1   3     1.080349797627   121.16847990   358.72179037
 C      5   2   1     1.445832410852   119.13914057   359.63647529
 H      5   2   1     1.081728929659   120.43316594   178.21892635
 C      7   5   2     1.445645154474   121.83384898     1.08771912
 O      7   5   2     1.248100327501   119.03998936   178.26900465
 H      4   1   2     1.080233298096   120.96091306   180.65760751
 H      3   1   2     1.094893891983   111.98454609     0.37924802
 H      3   1   2     1.095038279373   110.54383514   120.43418080
 H      3   1   2     1.095015972107   110.51326386   240.32473099
 H      9   7   5     1.081664863747   120.40345622   176.78202956

---------------------------
INTERNAL COORDINATES (A.U.)
---------------------------
 C      0   0   0     0.000000000000     0.00000000     0.00000000
 C      1   0   0     2.763271391182     0.00000000     0.00000000
 C      1   2   0     2.811791741049   120.71842215     0.00000000
 C      1   2   3     2.764768146918   119.70267424   179.83626342
 C      2   1   3     2.758309827050   120.08254191   180.17573476
 H      2   1   3     2.041565246353   121.16847990   358.72179037
 C      5   2   1     2.732227292057   119.13914057   359.63647529
 H      5   2   1     2.044171428196   120.43316594   178.21892635
 C      7   5   2     2.731873428786   121.83384898     1.08771912
 O      7   5   2     2.358567806635   119.03998936   178.26900465
 H      4   1   2     2.041345094145   120.96091306   180.65760751
 H      3   1   2     2.069049601550   111.98454609     0.37924802
 H      3   1   2     2.069322454175   110.54383514   120.43418080
 H      3   1   2     2.069280299551   110.51326386   240.32473099
 H      9   7   5     2.044050361167   120.40345622   176.78202956

---------------------
BASIS SET INFORMATION
---------------------
There are 3 groups of distinct atoms

 Group   1 Type C   : 11s6p2d1f contracted to 5s3p2d1f pattern {62111/411/11/1}
 Group   2 Type H   : 5s1p contracted to 3s1p pattern {311/1}
 Group   3 Type O   : 11s6p2d1f contracted to 5s3p2d1f pattern {62111/411/11/1}

Atom   0C    basis set group =>   1
Atom   1C    basis set group =>   1
Atom   2C    basis set group =>   1
Atom   3C    basis set group =>   1
Atom   4C    basis set group =>   1
Atom   5H    basis set group =>   2
Atom   6C    basis set group =>   1
Atom   7H    basis set group =>   2
Atom   8C    basis set group =>   1
Atom   9O    basis set group =>   3
Atom  10H    basis set group =>   2
Atom  11H    basis set group =>   2
Atom  12H    basis set group =>   2
Atom  13H    basis set group =>   2
Atom  14H    basis set group =>   2
---------------------------------
AUXILIARY/J BASIS SET INFORMATION
---------------------------------
There are 3 groups of distinct atoms

 Group   1 Type C   : 12s5p4d2f1g contracted to 6s4p3d1f1g pattern {711111/2111/211/2/1}
 Group   2 Type H   : 5s2p1d contracted to 3s1p1d pattern {311/2/1}
 Group   3 Type O   : 12s5p4d2f1g contracted to 6s4p3d1f1g pattern {711111/2111/211/2/1}

Atom   0C    basis set group =>   1
Atom   1C    basis set group =>   1
Atom   2C    basis set group =>   1
Atom   3C    basis set group =>   1
Atom   4C    basis set group =>   1
Atom   5H    basis set group =>   2
Atom   6C    basis set group =>   1
Atom   7H    basis set group =>   2
Atom   8C    basis set group =>   1
Atom   9O    basis set group =>   3
Atom  10H    basis set group =>   2
Atom  11H    basis set group =>   2
Atom  12H    basis set group =>   2
Atom  13H    basis set group =>   2
Atom  14H    basis set group =>   2
------------------------------------------------------------------------------
                           ORCA GTO INTEGRAL CALCULATION
                           -- RI-GTO INTEGRALS CHOSEN --
------------------------------------------------------------------------------
------------------------------------------------------------------------------
                   ___                                                        
                  /   \      - P O W E R E D   B Y -                         
                 /     \                                                     
                 |  |  |   _    _      __       _____    __    __             
                 |  |  |  | |  | |    /  \     |  _  \  |  |  /  |          
                  \  \/   | |  | |   /    \    | | | |  |  | /  /          
                 / \  \   | |__| |  /  /\  \   | |_| |  |  |/  /          
                |  |  |   |  __  | /  /__\  \  |    /   |      \           
                |  |  |   | |  | | |   __   |  |    \   |  |\   \          
                \     /   | |  | | |  |  |  |  | |\  \  |  | \   \       
                 \___/    |_|  |_| |__|  |__|  |_| \__\ |__|  \__/        
                                                                              
                      - O R C A' S   B I G   F R I E N D -                    
                                      &                                       
                       - I N T E G R A L  F E E D E R -                       
                                                                              
 v1 FN, 2020, v2 2021                                                         
------------------------------------------------------------------------------


Reading SHARK input file inp.SHARKINP.tmp ... ok
----------------------
SHARK INTEGRAL PACKAGE
----------------------

Number of atoms                             ...     15
Number of basis functions                   ...    290
Number of shells                            ...    116
Maximum angular momentum                    ...      3
Integral batch strategy                     ... SHARK/LIBINT Hybrid
RI-J (if used) integral strategy            ... SPLIT-RIJ (Revised 2003 algorithm where possible)
Printlevel                                  ...      1
Contraction scheme used                     ... SEGMENTED contraction
Coulomb Range Separation                    ... NOT USED
Exchange Range Separation                   ... NOT USED
Finite Nucleus Model                        ... NOT USED
Auxiliary Coulomb fitting basis             ... AVAILABLE
   # of basis functions in Aux-J            ...    469
   # of shells in Aux-J                     ...    155
   Maximum angular momentum in Aux-J        ...      4
Auxiliary J/K fitting basis                 ... NOT available
Auxiliary Correlation fitting basis         ... NOT available
Auxiliary 'external' fitting basis          ... NOT available
Integral threshold                          ...     2.500000e-11
Primitive cut-off                           ...     2.500000e-12
Primitive pair pre-selection threshold      ...     2.500000e-12

Calculating pre-screening integrals         ... done (  0.1 sec) Dimension = 116
Organizing shell pair data                  ... done (  0.4 sec)
Shell pair information
Total number of shell pairs                 ...      6786
Shell pairs after pre-screening             ...      6216
Total number of primitive shell pairs       ...     20700
Primitive shell pairs kept                  ...     14340
          la=0 lb=0:   1657 shell pairs
          la=1 lb=0:   1749 shell pairs
          la=1 lb=1:    471 shell pairs
          la=2 lb=0:    901 shell pairs
          la=2 lb=1:    472 shell pairs
          la=2 lb=2:    130 shell pairs
          la=3 lb=0:    441 shell pairs
          la=3 lb=1:    237 shell pairs
          la=3 lb=2:    123 shell pairs
          la=3 lb=3:     35 shell pairs

Calculating one electron integrals          ... done (  0.0 sec)
Calculating RI/J V-Matrix + Cholesky decomp.... done (  0.4 sec)
Calculating Nuclear repulsion               ... done (  0.1 sec) ENN=    325.756090566404 Eh

SHARK setup successfully completed in   1.9 seconds

Maximum memory used throughout the entire GTOINT-calculation: 93.7 MB
-------------------------------------------------------------------------------
                                 ORCA SCF
-------------------------------------------------------------------------------

------------
SCF SETTINGS
------------
Hamiltonian:
 Density Functional     Method          .... DFT(GTOs)
 Exchange Functional    Exchange        .... PBE
   PBE kappa parameter   XKappa         ....  0.804000
   PBE mue parameter    XMuePBE         ....  0.219520
 Correlation Functional Correlation     .... PBE
   PBE beta parameter  CBetaPBE         ....  0.066725
 LDA part of GGA corr.  LDAOpt          .... PW91-LDA
 Gradients option       PostSCFGGA      .... off
   Density functional embedding theory  .... OFF
   NL short-range parameter             ....  6.400000
 RI-approximation to the Coulomb term is turned on
   Number of AuxJ basis functions       .... 469


General Settings:
 Integral files         IntName         .... inp
 Hartree-Fock type      HFTyp           .... RHF
 Total Charge           Charge          ....   -1
 Multiplicity           Mult            ....    1
 Number of Electrons    NEL             ....   58
 Basis Dimension        Dim             ....  290
 Nuclear Repulsion      ENuc            ....    325.7560905664 Eh

Convergence Acceleration:
 DIIS                   CNVDIIS         .... on
   Start iteration      DIISMaxIt       ....    12
   Startup error        DIISStart       ....  0.200000
   # of expansion vecs  DIISMaxEq       ....     5
   Bias factor          DIISBfac        ....   1.050
   Max. coefficient     DIISMaxC        ....  10.000
 Trust-Rad. Augm. Hess. CNVTRAH         .... auto
   Auto Start mean grad. ratio tolernc. ....  1.125000
   Auto Start start iteration           ....    20
   Auto Start num. interpolation iter.  ....    10
   Max. Number of Micro iterations      ....    16
   Max. Number of Macro iterations      .... Maxiter - #DIIS iter
   Number of Davidson start vectors     ....     2
   Converg. threshold I  (grad. norm)   ....   1.000e-05
   Converg. threshold II (energy diff.) ....   1.000e-08
   Grad. Scal. Fac. for Micro threshold ....   0.100
   Minimum threshold for Micro iter.    ....   0.010
   NR start threshold (gradient norm)   ....   0.001
   Initial trust radius                 ....   0.400
   Minimum AH scaling param. (alpha)    ....   1.000
   Maximum AH scaling param. (alpha)    .... 1000.000
   Orbital update algorithm             .... Taylor
   White noise on init. David. guess    .... on
   Maximum white noise                  ....   0.010
   Quad. conv. algorithm                .... NR
 SOSCF                  CNVSOSCF        .... on
   Start iteration      SOSCFMaxIt      ....   150
   Startup grad/error   SOSCFStart      ....  0.003300
 Level Shifting         CNVShift        .... on
   Level shift para.    LevelShift      ....    0.2500
   Turn off err/grad.   ShiftErr        ....    0.0010
 Zerner damping         CNVZerner       .... off
 Static damping         CNVDamp         .... on
   Fraction old density DampFac         ....    0.7000
   Max. Damping (<1)    DampMax         ....    0.9800
   Min. Damping (>=0)   DampMin         ....    0.0000
   Turn off err/grad.   DampErr         ....    0.1000
 Fernandez-Rico         CNVRico         .... off

SCF Procedure:
 Maximum # iterations   MaxIter         ....   125
 SCF integral mode      SCFMode         .... Direct
   Integral package                     .... SHARK and LIBINT hybrid scheme
 Reset frequency        DirectResetFreq ....    20
 Integral Threshold     Thresh          ....  2.500e-11 Eh
 Primitive CutOff       TCut            ....  2.500e-12 Eh

Convergence Tolerance:
 Convergence Check Mode ConvCheckMode   .... Total+1el-Energy
 Convergence forced     ConvForced      .... 0
 Energy Change          TolE            ....  1.000e-08 Eh
 1-El. energy change                    ....  1.000e-05 Eh
 Orbital Gradient       TolG            ....  1.000e-05
 Orbital Rotation angle TolX            ....  1.000e-05
 DIIS Error             TolErr          ....  5.000e-07


Diagonalization of the overlap matrix:
Smallest eigenvalue                        ... 1.526e-05
Time for diagonalization                   ...    0.013 sec
Threshold for overlap eigenvalues          ... 1.000e-08
Number of eigenvalues below threshold      ... 0
Time for construction of square roots      ...    0.125 sec
Total time needed                          ...    0.139 sec

Time for model grid setup =    0.427 sec

------------------------------
INITIAL GUESS: MODEL POTENTIAL
------------------------------
Loading Hartree-Fock densities                     ... done
Calculating cut-offs                               ... done
Initializing the effective Hamiltonian             ... done
Setting up the integral package (SHARK)            ... done
Starting the Coulomb interaction                   ... done (   0.5 sec)
Reading the grid                                   ... done
Mapping shells                                     ... done
Starting the XC term evaluation                    ... done (   0.5 sec)
  promolecular density results
     # of electrons  =     56.993763595
     EX              =    -45.893746189
     EC              =     -1.867018785
     EX+EC           =    -47.760764975
Transforming the Hamiltonian                       ... done (   0.0 sec)
Diagonalizing the Hamiltonian                      ... done (   0.0 sec)
Back transforming the eigenvectors                 ... done (   0.0 sec)
Now organizing SCF variables                       ... done
                      ------------------
                      INITIAL GUESS DONE (   1.5 sec)
                      ------------------
-------------------
DFT GRID GENERATION
-------------------

General Integration Accuracy     IntAcc      ... 4.388
Radial Grid Type                 RadialGrid  ... OptM3 with GC (2021)
Angular Grid (max. ang.)         AngularGrid ... 4 (Lebedev-302)
Angular grid pruning method      GridPruning ... 4 (adaptive)
Weight generation scheme         WeightScheme... Becke
Basis function cutoff            BFCut       ... 1.0000e-11
Integration weight cutoff        WCut        ... 1.0000e-14
Angular grids for H and He will be reduced by one unit
Partially contracted basis set               ... off
Rotationally invariant grid construction     ... off

Total number of grid points                  ...    70920
Total number of batches                      ...     1116
Average number of points per batch           ...       63
Average number of grid points per atom       ...     4728
Time for grid setup =    1.110 sec


--------------------
CPCM SOLVATION MODEL
--------------------
CPCM parameters:
  Epsilon                                         ...      80.4000
  Refrac                                          ...       1.3300
  Rsolv                                           ...       1.3000
  Surface type                                    ... GAUSSIAN VDW
  Epsilon function type                           ...         CPCM
Radii:
 Radius for C  used is    3.8550 Bohr (=   2.0400 Ang.)
 Radius for H  used is    2.4944 Bohr (=   1.3200 Ang.)
 Radius for O  used is    3.4469 Bohr (=   1.8240 Ang.)
Calculating surface                               ...        done! (  0.0s)
GEPOL surface points                              ...          862
GEPOL Volume                                      ...     981.6183
GEPOL Surface-area                                ...     555.4394
Calculating surface distance matrix               ...        done! (  0.0s)
Performing Cholesky decomposition & store         ...        done! (  0.2s)
Overall time for CPCM initialization              ...                 0.2s
--------------
SCF ITERATIONS
--------------
ITER       Energy         Delta-E        Max-DP      RMS-DP      [F,P]     Damp
               ***  Starting incremental Fock matrix formation  ***
  0   -345.7075060825   0.000000000000 0.55839650  0.00668984  0.3287809 0.7000
  1   -345.8462755578  -0.138769475352 0.42622400  0.00508807  0.1019622 0.7000
                               ***Turning on DIIS***
  2   -345.8924277209  -0.046152163043 0.17500354  0.00325294  0.0263453 0.0000
  3   -345.9663432501  -0.073915529266 0.42257112  0.00484924  0.0525998 0.0000
  4   -345.9858076480  -0.019464397890 0.06304442  0.00078672  0.0255183 0.0000
  5   -345.9880816597  -0.002274011645 0.02833065  0.00038292  0.0069869 0.0000
                      *** Initiating the SOSCF procedure ***
                           *** Shutting down DIIS ***
                      *** Re-Reading the Fockian *** 
                      *** Removing any level shift *** 
ITER      Energy       Delta-E        Grad      Rot      Max-DP    RMS-DP
  6   -345.98822946  -0.0001478050  0.000542  0.000542  0.015211  0.000243
               *** Restarting incremental Fock matrix formation ***
  7   -345.98823061  -0.0000011421  0.000784  0.005591  0.018717  0.000220
  8   -345.98816944   0.0000611696  0.002181  0.004247  0.012915  0.000151
  9   -345.98824094  -0.0000714992  0.000160  0.000520  0.000370  0.000010
 10   -345.98823892   0.0000020157  0.000353  0.000366  0.000427  0.000009
 11   -345.98824159  -0.0000026687  0.000048  0.000248  0.001025  0.000013
 12   -345.98824144   0.0000001536  0.000095  0.000168  0.000592  0.000007
 13   -345.98824163  -0.0000001968  0.000012  0.000044  0.000073  0.000001
 14   -345.98824163   0.0000000069  0.000022  0.000030  0.000041  0.000001
                  ***Gradient check signals convergence***
              ***Rediagonalizing the Fockian in SOSCF/NRSCF***

               *****************************************************
               *                     SUCCESS                       *
               *           SCF CONVERGED AFTER  15 CYCLES          *
               *****************************************************


----------------
TOTAL SCF ENERGY
----------------

Total Energy       :         -345.98824163 Eh           -9414.81869 eV

Components:
Nuclear Repulsion  :          325.75609057 Eh            8864.27388 eV
Electronic Energy  :         -671.74433220 Eh          -18279.09257 eV
One Electron Energy:        -1125.07785122 Eh          -30614.92476 eV
Two Electron Energy:          453.33351902 Eh           12335.83219 eV
CPCM Dielectric    :           -0.10067305 Eh              -2.73945 eV

Virial components:
Potential Energy   :         -690.12357353 Eh          -18779.21715 eV
Kinetic Energy     :          344.13533190 Eh            9364.39846 eV
Virial Ratio       :            2.00538425


DFT components:
N(Alpha)           :       29.000001442125 electrons
N(Beta)            :       29.000001442125 electrons
N(Total)           :       58.000002884251 electrons
E(X)               :      -47.024335756410 Eh       
E(C)               :       -1.911086163511 Eh       
E(XC)              :      -48.935421919921 Eh       
DFET-embed. en.    :        0.000000000000 Eh       
CPCM Solvation Model Properties:
Surface-charge          :            0.96474487
Charge-correction       :           -0.00519872 Eh              -0.14146 eV
Free-energy (cav+disp)  :  This term is not implemented in the current solvation scheme

---------------
SCF CONVERGENCE
---------------

  Last Energy change         ...   -3.1424e-09  Tolerance :   1.0000e-08
  Last MAX-Density change    ...    1.3732e-04  Tolerance :   1.0000e-07
  Last RMS-Density change    ...    2.1288e-06  Tolerance :   5.0000e-09
  Last Orbital Gradient      ...    1.4503e-06  Tolerance :   1.0000e-05
  Last Orbital Rotation      ...    5.4427e-06  Tolerance :   1.0000e-05

             **** THE GBW FILE WAS UPDATED (inp.gbw) ****
             **** DENSITY inp.scfp WAS UPDATED ****
             **** ENERGY FILE WAS UPDATED (inp.en.tmp) ****
             **** THE GBW FILE WAS UPDATED (inp.gbw) ****
             **** DENSITY inp.scfp WAS UPDATED ****
----------------
ORBITAL ENERGIES
----------------

  NO   OCC          E(Eh)            E(eV) 
   0   2.0000     -18.650641      -507.5097 
   1   2.0000      -9.895311      -269.2651 
   2   2.0000      -9.871156      -268.6078 
   3   2.0000      -9.871113      -268.6066 
   4   2.0000      -9.869112      -268.5522 
   5   2.0000      -9.859307      -268.2854 
   6   2.0000      -9.852735      -268.1065 
   7   2.0000      -9.850824      -268.0545 
   8   2.0000      -0.874285       -23.7905 
   9   2.0000      -0.720465       -19.6048 
  10   2.0000      -0.650456       -17.6998 
  11   2.0000      -0.634005       -17.2522 
  12   2.0000      -0.563758       -15.3406 
  13   2.0000      -0.519224       -14.1288 
  14   2.0000      -0.478347       -13.0165 
  15   2.0000      -0.397954       -10.8289 
  16   2.0000      -0.384981       -10.4759 
  17   2.0000      -0.381511       -10.3814 
  18   2.0000      -0.357886        -9.7386 
  19   2.0000      -0.343998        -9.3607 
  20   2.0000      -0.324250        -8.8233 
  21   2.0000      -0.318787        -8.6746 
  22   2.0000      -0.313709        -8.5365 
  23   2.0000      -0.279428        -7.6036 
  24   2.0000      -0.277089        -7.5400 
  25   2.0000      -0.238964        -6.5025 
  26   2.0000      -0.198931        -5.4132 
  27   2.0000      -0.154709        -4.2098 
  28   2.0000      -0.131798        -3.5864 
  29   0.0000      -0.031209        -0.8493 
  30   0.0000       0.008254         0.2246 
  31   0.0000       0.041700         1.1347 
  32   0.0000       0.064412         1.7527 
  33   0.0000       0.073596         2.0026 
  34   0.0000       0.088532         2.4091 
  35   0.0000       0.100467         2.7338 
  36   0.0000       0.107230         2.9179 
  37   0.0000       0.118873         3.2347 
  38   0.0000       0.123362         3.3568 
  39   0.0000       0.135764         3.6943 
  40   0.0000       0.139732         3.8023 
  41   0.0000       0.158226         4.3056 
  42   0.0000       0.181588         4.9413 
  43   0.0000       0.185217         5.0400 
  44   0.0000       0.208686         5.6786 
  45   0.0000       0.215366         5.8604 
  46   0.0000       0.222082         6.0432 
  47   0.0000       0.230750         6.2790 
  48   0.0000       0.240793         6.5523 
  49   0.0000       0.253481         6.8976 
  50   0.0000       0.267392         7.2761 
  51   0.0000       0.281279         7.6540 
  52   0.0000       0.282808         7.6956 
  53   0.0000       0.308136         8.3848 
  54   0.0000       0.316133         8.6024 
  55   0.0000       0.321405         8.7459 
  56   0.0000       0.328485         8.9385 
  57   0.0000       0.335671         9.1341 
  58   0.0000       0.337093         9.1728 
  59   0.0000       0.342792         9.3279 
  60   0.0000       0.387162        10.5352 
  61   0.0000       0.389909        10.6100 
  62   0.0000       0.399229        10.8636 
  63   0.0000       0.412005        11.2112 
  64   0.0000       0.417148        11.3512 
  65   0.0000       0.423132        11.5140 
  66   0.0000       0.440430        11.9847 
  67   0.0000       0.443815        12.0768 
  68   0.0000       0.452224        12.3056 
  69   0.0000       0.459184        12.4950 
  70   0.0000       0.465269        12.6606 
  71   0.0000       0.473032        12.8718 
  72   0.0000       0.485881        13.2215 
  73   0.0000       0.497545        13.5389 
  74   0.0000       0.525908        14.3107 
  75   0.0000       0.536354        14.5949 
  76   0.0000       0.561874        15.2894 
  77   0.0000       0.570052        15.5119 
  78   0.0000       0.597043        16.2464 
  79   0.0000       0.602439        16.3932 
  80   0.0000       0.612926        16.6786 
  81   0.0000       0.625336        17.0163 
  82   0.0000       0.652967        17.7681 
  83   0.0000       0.690932        18.8012 
  84   0.0000       0.698495        19.0070 
  85   0.0000       0.703425        19.1412 
  86   0.0000       0.736327        20.0365 
  87   0.0000       0.753755        20.5107 
  88   0.0000       0.768104        20.9012 
  89   0.0000       0.780661        21.2429 
  90   0.0000       0.808403        21.9978 
  91   0.0000       0.829272        22.5656 
  92   0.0000       0.836826        22.7712 
  93   0.0000       0.853039        23.2124 
  94   0.0000       0.867697        23.6112 
  95   0.0000       0.888185        24.1687 
  96   0.0000       0.896957        24.4074 
  97   0.0000       0.935556        25.4578 
  98   0.0000       0.962859        26.2007 
  99   0.0000       0.995169        27.0799 
 100   0.0000       1.016714        27.6662 
 101   0.0000       1.024565        27.8798 
 102   0.0000       1.032401        28.0930 
 103   0.0000       1.062130        28.9020 
 104   0.0000       1.107464        30.1356 
 105   0.0000       1.114269        30.3208 
 106   0.0000       1.147755        31.2320 
 107   0.0000       1.149902        31.2904 
 108   0.0000       1.159791        31.5595 
 109   0.0000       1.162786        31.6410 
 110   0.0000       1.173539        31.9336 
 111   0.0000       1.216944        33.1147 
 112   0.0000       1.228804        33.4375 
 113   0.0000       1.261281        34.3212 
 114   0.0000       1.268591        34.5201 
 115   0.0000       1.288395        35.0590 
 116   0.0000       1.348248        36.6877 
 117   0.0000       1.367972        37.2244 
 118   0.0000       1.389571        37.8122 
 119   0.0000       1.406628        38.2763 
 120   0.0000       1.430707        38.9315 
 121   0.0000       1.438622        39.1469 
 122   0.0000       1.448047        39.4034 
 123   0.0000       1.480071        40.2748 
 124   0.0000       1.481924        40.3252 
 125   0.0000       1.489398        40.5286 
 126   0.0000       1.492042        40.6005 
 127   0.0000       1.521864        41.4120 
 128   0.0000       1.528703        41.5981 
 129   0.0000       1.568249        42.6742 
 130   0.0000       1.578644        42.9571 
 131   0.0000       1.594969        43.4013 
 132   0.0000       1.597156        43.4608 
 133   0.0000       1.609432        43.7949 
 134   0.0000       1.644969        44.7619 
 135   0.0000       1.667604        45.3778 
 136   0.0000       1.703990        46.3679 
 137   0.0000       1.751843        47.6701 
 138   0.0000       1.763228        47.9799 
 139   0.0000       1.778985        48.4086 
 140   0.0000       1.790167        48.7129 
 141   0.0000       1.857978        50.5582 
 142   0.0000       1.875074        51.0234 
 143   0.0000       1.897398        51.6308 
 144   0.0000       1.936282        52.6889 
 145   0.0000       1.950075        53.0642 
 146   0.0000       1.957979        53.2793 
 147   0.0000       1.980717        53.8980 
 148   0.0000       2.012933        54.7747 
 149   0.0000       2.023375        55.0588 
 150   0.0000       2.045507        55.6611 
 151   0.0000       2.059074        56.0303 
 152   0.0000       2.076551        56.5058 
 153   0.0000       2.139398        58.2160 
 154   0.0000       2.166363        58.9497 
 155   0.0000       2.167854        58.9903 
 156   0.0000       2.183777        59.4236 
 157   0.0000       2.196904        59.7808 
 158   0.0000       2.214783        60.2673 
 159   0.0000       2.274116        61.8818 
 160   0.0000       2.305382        62.7326 
 161   0.0000       2.318173        63.0807 
 162   0.0000       2.367147        64.4133 
 163   0.0000       2.381991        64.8173 
 164   0.0000       2.407597        65.5140 
 165   0.0000       2.422086        65.9083 
 166   0.0000       2.449419        66.6521 
 167   0.0000       2.472917        67.2915 
 168   0.0000       2.479914        67.4819 
 169   0.0000       2.503079        68.1122 
 170   0.0000       2.505226        68.1707 
 171   0.0000       2.521106        68.6028 
 172   0.0000       2.541538        69.1588 
 173   0.0000       2.575467        70.0820 
 174   0.0000       2.589916        70.4752 
 175   0.0000       2.603591        70.8473 
 176   0.0000       2.619174        71.2713 
 177   0.0000       2.654981        72.2457 
 178   0.0000       2.682404        72.9919 
 179   0.0000       2.690710        73.2180 
 180   0.0000       2.697863        73.4126 
 181   0.0000       2.717759        73.9540 
 182   0.0000       2.723673        74.1149 
 183   0.0000       2.727581        74.2213 
 184   0.0000       2.739440        74.5440 
 185   0.0000       2.784242        75.7631 
 186   0.0000       2.834175        77.1218 
 187   0.0000       2.848037        77.4990 
 188   0.0000       2.857429        77.7546 
 189   0.0000       2.861200        77.8572 
 190   0.0000       2.889186        78.6187 
 191   0.0000       2.919584        79.4459 
 192   0.0000       2.923751        79.5593 
 193   0.0000       2.970748        80.8382 
 194   0.0000       2.975166        80.9584 
 195   0.0000       2.986433        81.2650 
 196   0.0000       3.016653        82.0873 
 197   0.0000       3.042070        82.7789 
 198   0.0000       3.044183        82.8364 
 199   0.0000       3.061171        83.2987 
 200   0.0000       3.070288        83.5468 
 201   0.0000       3.097219        84.2796 
 202   0.0000       3.110406        84.6384 
 203   0.0000       3.116616        84.8074 
 204   0.0000       3.128427        85.1288 
 205   0.0000       3.161208        86.0208 
 206   0.0000       3.167114        86.1815 
 207   0.0000       3.179852        86.5282 
 208   0.0000       3.187586        86.7386 
 209   0.0000       3.203864        87.1816 
 210   0.0000       3.221597        87.6641 
 211   0.0000       3.233361        87.9842 
 212   0.0000       3.238707        88.1297 
 213   0.0000       3.259436        88.6938 
 214   0.0000       3.292720        89.5995 
 215   0.0000       3.306707        89.9801 
 216   0.0000       3.311232        90.1032 
 217   0.0000       3.328625        90.5765 
 218   0.0000       3.338684        90.8502 
 219   0.0000       3.364253        91.5460 
 220   0.0000       3.368164        91.6524 
 221   0.0000       3.390762        92.2673 
 222   0.0000       3.430552        93.3501 
 223   0.0000       3.439652        93.5977 
 224   0.0000       3.463364        94.2429 
 225   0.0000       3.481197        94.7282 
 226   0.0000       3.500676        95.2582 
 227   0.0000       3.584493        97.5390 
 228   0.0000       3.588795        97.6561 
 229   0.0000       3.621197        98.5378 
 230   0.0000       3.631060        98.8062 
 231   0.0000       3.670384        99.8762 
 232   0.0000       3.691706       100.4564 
 233   0.0000       3.709612       100.9437 
 234   0.0000       3.767277       102.5128 
 235   0.0000       3.795387       103.2777 
 236   0.0000       3.814064       103.7860 
 237   0.0000       3.871165       105.3398 
 238   0.0000       3.898704       106.0891 
 239   0.0000       3.925561       106.8200 
 240   0.0000       3.964152       107.8701 
 241   0.0000       3.977455       108.2320 
 242   0.0000       4.008093       109.0658 
 243   0.0000       4.014392       109.2371 
 244   0.0000       4.035009       109.7982 
 245   0.0000       4.039408       109.9179 
 246   0.0000       4.059822       110.4734 
 247   0.0000       4.069848       110.7462 
 248   0.0000       4.137829       112.5961 
 249   0.0000       4.147206       112.8512 
 250   0.0000       4.182818       113.8203 
 251   0.0000       4.304864       117.1413 
 252   0.0000       4.309057       117.2554 
 253   0.0000       4.400952       119.7560 
 254   0.0000       4.420975       120.3009 
 255   0.0000       4.431583       120.5895 
 256   0.0000       4.445148       120.9586 
 257   0.0000       4.468771       121.6014 
 258   0.0000       4.572250       124.4173 
 259   0.0000       4.594417       125.0204 
 260   0.0000       4.672629       127.1487 
 261   0.0000       4.751394       129.2920 
 262   0.0000       4.802626       130.6861 
 263   0.0000       4.826651       131.3398 
 264   0.0000       4.911996       133.6622 
 265   0.0000       4.942188       134.4838 
 266   0.0000       5.126435       139.4974 
 267   0.0000       5.153225       140.2264 
 268   0.0000       5.173965       140.7907 
 269   0.0000       5.219415       142.0275 
 270   0.0000       5.314302       144.6095 
 271   0.0000       5.494557       149.5145 
 272   0.0000       5.510810       149.9568 
 273   0.0000       5.699529       155.0921 
 274   0.0000       5.981268       162.7586 
 275   0.0000       6.259882       170.3400 
 276   0.0000       6.316194       171.8724 
 277   0.0000       6.501143       176.9051 
 278   0.0000       6.504015       176.9832 
 279   0.0000       6.736788       183.3173 
 280   0.0000       6.980511       189.9494 
 281   0.0000       6.992221       190.2680 
 282   0.0000      21.865980       595.0036 
 283   0.0000      22.149469       602.7177 
 284   0.0000      22.209275       604.3451 
 285   0.0000      22.232171       604.9681 
 286   0.0000      22.252132       605.5113 
 287   0.0000      22.548904       613.5869 
 288   0.0000      23.048215       627.1738 
 289   0.0000      43.592477      1186.2116 

                    ********************************
                    * MULLIKEN POPULATION ANALYSIS *
                    ********************************

-----------------------
MULLIKEN ATOMIC CHARGES
-----------------------
   0 C :    0.091709
   1 C :   -0.248394
   2 C :   -0.392771
   3 C :   -0.249592
   4 C :   -0.317089
   5 H :    0.115919
   6 C :    0.234092
   7 H :    0.085410
   8 C :   -0.307556
   9 O :   -0.575513
  10 H :    0.113232
  11 H :    0.126286
  12 H :    0.118674
  13 H :    0.118926
  14 H :    0.086666
Sum of atomic charges:   -1.0000000

--------------------------------
MULLIKEN REDUCED ORBITAL CHARGES
--------------------------------
  0 C s       :     3.188175  s :     3.188175
      pz      :     0.847249  p :     2.585355
      px      :     0.924317
      py      :     0.813789
      dz2     :     0.027527  d :     0.125950
      dxz     :     0.020500
      dyz     :     0.028496
      dx2y2   :     0.025548
      dxy     :     0.023879
      f0      :     0.001131  f :     0.008811
      f+1     :     0.000903
      f-1     :     0.001642
      f+2     :     0.001360
      f-2     :     0.001452
      f+3     :     0.001206
      f-3     :     0.001116
  1 C s       :     3.264049  s :     3.264049
      pz      :     0.974797  p :     2.894526
      px      :     0.989366
      py      :     0.930363
      dz2     :     0.013860  d :     0.083554
      dxz     :     0.011177
      dyz     :     0.017370
      dx2y2   :     0.021411
      dxy     :     0.019737
      f0      :     0.000266  f :     0.006265
      f+1     :     0.000801
      f-1     :     0.001317
      f+2     :     0.000955
      f-2     :     0.000991
      f+3     :     0.001073
      f-3     :     0.000861
  2 C s       :     3.257693  s :     3.257693
      pz      :     1.042081  p :     3.074181
      px      :     1.008005
      py      :     1.024094
      dz2     :     0.008502  d :     0.057553
      dxz     :     0.011275
      dyz     :     0.010039
      dx2y2   :     0.018683
      dxy     :     0.009054
      f0      :     0.000050  f :     0.003344
      f+1     :     0.000613
      f-1     :     0.000468
      f+2     :     0.000342
      f-2     :     0.000828
      f+3     :     0.000642
      f-3     :     0.000400
  3 C s       :     3.286189  s :     3.286189
      pz      :     0.947577  p :     2.878142
      px      :     0.978175
      py      :     0.952389
      dz2     :     0.019036  d :     0.079031
      dxz     :     0.013363
      dyz     :     0.019017
      dx2y2   :     0.020696
      dxy     :     0.006920
      f0      :     0.001025  f :     0.006231
      f+1     :     0.000826
      f-1     :     0.000787
      f+2     :     0.001093
      f-2     :     0.001003
      f+3     :     0.000550
      f-3     :     0.000946
  4 C s       :     3.297282  s :     3.297282
      pz      :     0.991717  p :     2.944640
      px      :     1.025897
      py      :     0.927025
      dz2     :     0.015963  d :     0.068825
      dxz     :     0.010618
      dyz     :     0.016594
      dx2y2   :     0.017150
      dxy     :     0.008500
      f0      :     0.000914  f :     0.006342
      f+1     :     0.000915
      f-1     :     0.000822
      f+2     :     0.001123
      f-2     :     0.001072
      f+3     :     0.000621
      f-3     :     0.000874
  5 H s       :     0.861929  s :     0.861929
      pz      :     0.010291  p :     0.022152
      px      :     0.007018
      py      :     0.004843
  6 C s       :     2.954047  s :     2.954047
      pz      :     0.874925  p :     2.629719
      px      :     0.875433
      py      :     0.879362
      dz2     :     0.034457  d :     0.165278
      dxz     :     0.022381
      dyz     :     0.036143
      dx2y2   :     0.043154
      dxy     :     0.029143
      f0      :     0.001497  f :     0.016864
      f+1     :     0.001927
      f-1     :     0.003396
      f+2     :     0.002282
      f-2     :     0.002697
      f+3     :     0.002749
      f-3     :     0.002315
  7 H s       :     0.891980  s :     0.891980
      pz      :     0.006007  p :     0.022610
      px      :     0.005277
      py      :     0.011327
  8 C s       :     3.294522  s :     3.294522
      pz      :     0.956968  p :     2.937918
      px      :     1.031311
      py      :     0.949639
      dz2     :     0.012890  d :     0.068776
      dxz     :     0.009998
      dyz     :     0.015626
      dx2y2   :     0.016611
      dxy     :     0.013651
      f0      :     0.000341  f :     0.006340
      f+1     :     0.000817
      f-1     :     0.001221
      f+2     :     0.000935
      f-2     :     0.000948
      f+3     :     0.001111
      f-3     :     0.000967
  9 O s       :     3.734355  s :     3.734355
      pz      :     1.685907  p :     4.812502
      px      :     1.527745
      py      :     1.598850
      dz2     :     0.004151  d :     0.027043
      dxz     :     0.004077
      dyz     :     0.005498
      dx2y2   :     0.006825
      dxy     :     0.006492
      f0      :     0.000126  f :     0.001613
      f+1     :     0.000168
      f-1     :     0.000237
      f+2     :     0.000201
      f-2     :     0.000307
      f+3     :     0.000260
      f-3     :     0.000313
 10 H s       :     0.864571  s :     0.864571
      pz      :     0.006225  p :     0.022196
      px      :     0.004971
      py      :     0.011001
 11 H s       :     0.852671  s :     0.852671
      pz      :     0.009580  p :     0.021044
      px      :     0.006209
      py      :     0.005255
 12 H s       :     0.860359  s :     0.860359
      pz      :     0.007332  p :     0.020967
      px      :     0.008437
      py      :     0.005198
 13 H s       :     0.860099  s :     0.860099
      pz      :     0.005156  p :     0.020974
      px      :     0.006181
      py      :     0.009637
 14 H s       :     0.890781  s :     0.890781
      pz      :     0.010903  p :     0.022553
      px      :     0.007158
      py      :     0.004493


                     *******************************
                     * LOEWDIN POPULATION ANALYSIS *
                     *******************************

----------------------
LOEWDIN ATOMIC CHARGES
----------------------
   0 C :   -0.233512
   1 C :   -0.168934
   2 C :   -0.303006
   3 C :   -0.161438
   4 C :   -0.205602
   5 H :    0.131469
   6 C :   -0.489349
   7 H :    0.124997
   8 C :   -0.199683
   9 O :   -0.132339
  10 H :    0.132344
  11 H :    0.127545
  12 H :    0.125898
  13 H :    0.125954
  14 H :    0.125656

-------------------------------
LOEWDIN REDUCED ORBITAL CHARGES
-------------------------------
  0 C s       :     2.743076  s :     2.743076
      pz      :     0.990813  p :     2.949812
      px      :     0.960266
      py      :     0.998732
      dz2     :     0.100633  d :     0.491088
      dxz     :     0.077530
      dyz     :     0.121698
      dx2y2   :     0.095737
      dxy     :     0.095491
      f0      :     0.005437  f :     0.049536
      f+1     :     0.005929
      f-1     :     0.010134
      f+2     :     0.007800
      f-2     :     0.006589
      f+3     :     0.007320
      f-3     :     0.006327
  1 C s       :     2.803754  s :     2.803754
      pz      :     0.979212  p :     2.973106
      px      :     0.974167
      py      :     1.019727
      dz2     :     0.056259  d :     0.358111
      dxz     :     0.051195
      dyz     :     0.081072
      dx2y2   :     0.085640
      dxy     :     0.083945
      f0      :     0.001893  f :     0.033964
      f+1     :     0.003651
      f-1     :     0.007910
      f+2     :     0.005195
      f-2     :     0.004835
      f+3     :     0.006593
      f-3     :     0.003886
  2 C s       :     2.822035  s :     2.822035
      pz      :     1.062130  p :     3.181724
      px      :     1.059603
      py      :     1.059991
      dz2     :     0.037794  d :     0.273029
      dxz     :     0.067953
      dyz     :     0.045788
      dx2y2   :     0.062662
      dxy     :     0.058833
      f0      :     0.002242  f :     0.026217
      f+1     :     0.003469
      f-1     :     0.004706
      f+2     :     0.003419
      f-2     :     0.003393
      f+3     :     0.005274
      f-3     :     0.003715
  3 C s       :     2.803075  s :     2.803075
      pz      :     0.995459  p :     2.969761
      px      :     0.978351
      py      :     0.995950
      dz2     :     0.078504  d :     0.354550
      dxz     :     0.064153
      dyz     :     0.087887
      dx2y2   :     0.079527
      dxy     :     0.044478
      f0      :     0.005256  f :     0.034052
      f+1     :     0.005072
      f-1     :     0.005419
      f+2     :     0.004698
      f-2     :     0.004912
      f+3     :     0.004012
      f-3     :     0.004683
  4 C s       :     2.807186  s :     2.807186
      pz      :     1.017851  p :     3.034381
      px      :     1.017568
      py      :     0.998961
      dz2     :     0.068439  d :     0.329707
      dxz     :     0.064495
      dyz     :     0.078284
      dx2y2   :     0.071165
      dxy     :     0.047325
      f0      :     0.004743  f :     0.034328
      f+1     :     0.005545
      f-1     :     0.005530
      f+2     :     0.005052
      f-2     :     0.005181
      f+3     :     0.004155
      f-3     :     0.004123
  5 H s       :     0.805735  s :     0.805735
      pz      :     0.029022  p :     0.062797
      px      :     0.019819
      py      :     0.013956
  6 C s       :     2.743296  s :     2.743296
      pz      :     0.967310  p :     2.832774
      px      :     0.886503
      py      :     0.978961
      dz2     :     0.159499  d :     0.799523
      dxz     :     0.127520
      dyz     :     0.173683
      dx2y2   :     0.189894
      dxy     :     0.148927
      f0      :     0.009295  f :     0.113756
      f+1     :     0.011632
      f-1     :     0.026112
      f+2     :     0.015700
      f-2     :     0.017297
      f+3     :     0.018793
      f-3     :     0.014927
  7 H s       :     0.811564  s :     0.811564
      pz      :     0.017048  p :     0.063440
      px      :     0.014925
      py      :     0.031466
  8 C s       :     2.807396  s :     2.807396
      pz      :     0.993170  p :     3.027371
      px      :     1.002954
      py      :     1.031247
      dz2     :     0.060015  d :     0.330524
      dxz     :     0.047969
      dyz     :     0.074202
      dx2y2   :     0.073988
      dxy     :     0.074351
      f0      :     0.002065  f :     0.034392
      f+1     :     0.003673
      f-1     :     0.007336
      f+2     :     0.005444
      f-2     :     0.005019
      f+3     :     0.006259
      f-3     :     0.004595
  9 O s       :     3.404161  s :     3.404161
      pz      :     1.589468  p :     4.654624
      px      :     1.499061
      py      :     1.566096
      dz2     :     0.010757  d :     0.067778
      dxz     :     0.011793
      dyz     :     0.012625
      dx2y2   :     0.015951
      dxy     :     0.016652
      f0      :     0.000481  f :     0.005775
      f+1     :     0.000622
      f-1     :     0.000798
      f+2     :     0.000606
      f-2     :     0.001248
      f+3     :     0.001071
      f-3     :     0.000948
 10 H s       :     0.804851  s :     0.804851
      pz      :     0.017699  p :     0.062806
      px      :     0.014119
      py      :     0.030987
 11 H s       :     0.811950  s :     0.811950
      pz      :     0.027658  p :     0.060504
      px      :     0.017049
      py      :     0.015797
 12 H s       :     0.812910  s :     0.812910
      pz      :     0.022804  p :     0.061192
      px      :     0.023772
      py      :     0.014616
 13 H s       :     0.812828  s :     0.812828
      pz      :     0.014761  p :     0.061217
      px      :     0.019032
      py      :     0.027425
 14 H s       :     0.810996  s :     0.810996
      pz      :     0.030317  p :     0.063348
      px      :     0.019915
      py      :     0.013116


                      *****************************
                      * MAYER POPULATION ANALYSIS *
                      *****************************

  NA   - Mulliken gross atomic population
  ZA   - Total nuclear charge
  QA   - Mulliken gross atomic charge
  VA   - Mayer's total valence
  BVA  - Mayer's bonded valence
  FA   - Mayer's free valence

  ATOM       NA         ZA         QA         VA         BVA        FA
  0 C      5.9083     6.0000     0.0917     3.6268     3.6268     0.0000
  1 C      6.2484     6.0000    -0.2484     3.8133     3.8133     0.0000
  2 C      6.3928     6.0000    -0.3928     3.8705     3.8705    -0.0000
  3 C      6.2496     6.0000    -0.2496     3.7907     3.7907     0.0000
  4 C      6.3171     6.0000    -0.3171     3.7376     3.7376     0.0000
  5 H      0.8841     1.0000     0.1159     0.9686     0.9686    -0.0000
  6 C      5.7659     6.0000     0.2341     4.1537     4.1537     0.0000
  7 H      0.9146     1.0000     0.0854     1.0029     1.0029     0.0000
  8 C      6.3076     6.0000    -0.3076     3.7331     3.7331    -0.0000
  9 O      8.5755     8.0000    -0.5755     1.9132     1.9132    -0.0000
 10 H      0.8868     1.0000     0.1132     0.9685     0.9685     0.0000
 11 H      0.8737     1.0000     0.1263     0.9743     0.9743     0.0000
 12 H      0.8813     1.0000     0.1187     0.9600     0.9600    -0.0000
 13 H      0.8811     1.0000     0.1189     0.9594     0.9594     0.0000
 14 H      0.9133     1.0000     0.0867     1.0023     1.0023    -0.0000

  Mayer bond orders larger than 0.100000
B(  0-C ,  1-C ) :   1.3338 B(  0-C ,  2-C ) :   0.9423 B(  0-C ,  3-C ) :   1.3005 
B(  1-C ,  4-C ) :   1.3506 B(  1-C ,  5-H ) :   0.9609 B(  2-C , 11-H ) :   0.9820 
B(  2-C , 12-H ) :   0.9598 B(  2-C , 13-H ) :   0.9576 B(  3-C ,  8-C ) :   1.3593 
B(  3-C , 10-H ) :   0.9742 B(  4-C ,  6-C ) :   1.2143 B(  4-C ,  7-H ) :   0.9855 
B(  6-C ,  8-C ) :   1.2024 B(  6-C ,  9-O ) :   1.6768 B(  8-C , 14-H ) :   0.9849 


-------
TIMINGS
-------

Total SCF time: 0 days 0 hours 1 min 1 sec 

Total time                  ....      61.179 sec
Sum of individual times     ....      58.060 sec  ( 94.9%)

Fock matrix formation       ....      54.656 sec  ( 89.3%)
  Split-RI-J                ....      10.045 sec  ( 18.4% of F)
  XC integration            ....      27.267 sec  ( 49.9% of F)
    Basis function eval.    ....       7.768 sec  ( 28.5% of XC)
    Density eval.           ....       6.597 sec  ( 24.2% of XC)
    XC-Functional eval.     ....       1.023 sec  (  3.8% of XC)
    XC-Potential eval.      ....       8.414 sec  ( 30.9% of XC)
Diagonalization             ....       0.111 sec  (  0.2%)
Density matrix formation    ....       0.014 sec  (  0.0%)
Population analysis         ....       0.163 sec  (  0.3%)
Initial guess               ....       1.068 sec  (  1.7%)
Orbital Transformation      ....       0.000 sec  (  0.0%)
Orbital Orthonormalization  ....       0.000 sec  (  0.0%)
DIIS solution               ....       0.166 sec  (  0.3%)
SOSCF solution              ....       0.344 sec  (  0.6%)
Grid generation             ....       1.538 sec  (  2.5%)

Maximum memory used throughout the entire SCF-calculation: 117.3 MB

-------------------------   --------------------
FINAL SINGLE POINT ENERGY      -345.988241628766
-------------------------   --------------------

------------------------------------------------------------------------------
                         ORCA SCF GRADIENT CALCULATION
------------------------------------------------------------------------------

Gradient of the Kohn-Sham DFT energy:
Kohn-Sham wavefunction type      ... RKS
Hartree-Fock exchange scaling    ...    0.000
Number of operators              ...    1
Number of atoms                  ...   15
Basis set dimensions             ...  290
Integral neglect threshold       ... 2.5e-11
Integral primitive cutoff        ... 2.5e-12
SHARK Integral package           ... ON

Nuc. rep. gradient       (SHARK) ... done (  0.0 sec)
HCore & Overlap gradient (SHARK) ... done (  0.5 sec)
RI-J gradient            (SHARK) ... done (  2.8 sec)
Exchange-correlation gradient    ... done

------------------
CARTESIAN GRADIENT
------------------

   1   C   :   -0.023835876   -0.027650256    0.012830355
   2   C   :   -0.032533308    0.004974306    0.049465834
   3   C   :    0.002508030    0.002361019   -0.002049554
   4   C   :   -0.013437101   -0.055760186   -0.016775494
   5   C   :    0.035159738    0.059965792   -0.011501549
   6   H   :    0.005988935    0.001640078   -0.007648733
   7   C   :    0.016922445    0.011461310   -0.007166026
   8   H   :   -0.002756417   -0.006163214   -0.001051489
   9   C   :    0.045811914    0.032248642   -0.044970513
  10   O   :   -0.038751781   -0.040944867    0.025098706
  11   H   :    0.003391108    0.008949248    0.001719263
  12   H   :    0.001195336   -0.001270884   -0.002491146
  13   H   :    0.004380688    0.004466700    0.001223036
  14   H   :    0.000949372    0.006269461   -0.001568320
  15   H   :   -0.004993083   -0.000547148    0.004885632

Difference to translation invariance:
           :    0.0000000000    0.0000000000   -0.0000000000

Difference to rotation invariance:
           :   -0.0010442551    0.0004901308   -0.0008121835

Norm of the cartesian gradient     ...    0.1529613330
RMS gradient                       ...    0.0228021292
MAX gradient                       ...    0.0599657924

-------
TIMINGS
-------

Total SCF gradient time            ...       16.167 sec

One electron gradient       ....       0.466 sec  (  2.9%)
RI-J Coulomb gradient       ....       2.839 sec  ( 17.6%)
XC gradient                 ....      10.967 sec  ( 67.8%)
CPCM gradient               ....       0.771 sec  (  4.8%)
   A-Matrix (El+Nuc)        ....       0.046 sec  (  0.3%)
   Potential                ....       0.725 sec  (  4.5%)

Maximum memory used throughout the entire SCFGRAD-calculation: 112.3 MB
------------------------------------------------------------------------------
                         ORCA GEOMETRY RELAXATION STEP
------------------------------------------------------------------------------

Reading the OPT-File                    .... done
Getting information on internals        .... done
Copying old internal coords+grads       .... done
Making the new internal coordinates     .... (new redundants).... done
Validating the new internal coordinates .... (new redundants).... done
Calculating the B-matrix                .... done
Calculating the G,G- and P matrices     .... done
Transforming gradient to internals      .... done
Projecting the internal gradient        .... done
Number of atoms                         ....  15
Number of internal coordinates          ....  69
Current Energy                          ....  -345.988241629 Eh
Current gradient norm                   ....     0.152961333 Eh/bohr
Maximum allowed component of the step   ....  0.300
Current trust radius                    ....  0.300
Evaluating the initial hessian          ....  (Almloef) done
Projecting the Hessian                  .... done
Forming the augmented Hessian           .... done
Diagonalizing the augmented Hessian     .... done
Last element of RFO vector              ....  0.973517205
Lowest eigenvalues of augmented Hessian:
 -0.025455231  0.014031465  0.014993824  0.015649172  0.015779117
Length of the computed step             ....  0.234832787
The final length of the internal step   ....  0.234832787
Converting the step to cartesian space:
 Initial RMS(Int)=    0.0282705454
Transforming coordinates:
 Iter   0:  RMS(Cart)=    0.0399171020 RMS(Int)=    1.3081318856
 Iter   1:  RMS(Cart)=    0.0007864442 RMS(Int)=    0.0004984025
 Iter   2:  RMS(Cart)=    0.0000184614 RMS(Int)=    0.0000164394
 Iter   3:  RMS(Cart)=    0.0000007818 RMS(Int)=    0.0000005142
 Iter   4:  RMS(Cart)=    0.0000000320 RMS(Int)=    0.0000000200
done
Storing new coordinates                 .... done

                                .--------------------.
          ----------------------|Geometry convergence|-------------------------
          Item                value                   Tolerance       Converged
          ---------------------------------------------------------------------
          RMS gradient        0.0142391885            0.0001000000      NO
          MAX gradient        0.0616688434            0.0003000000      NO
          RMS step            0.0282705454            0.0020000000      NO
          MAX step            0.0844894973            0.0040000000      NO
          ........................................................
          Max(Bonds)      0.0447      Max(Angles)    4.33
          Max(Dihed)        1.80      Max(Improp)    0.00
          ---------------------------------------------------------------------

The optimization has not yet converged - more geometry cycles are needed


    ---------------------------------------------------------------------------
                         Redundant Internal Coordinates
                            (Angstroem and degrees)

        Definition                    Value    dE/dq     Step     New-Value
    ----------------------------------------------------------------------------
     1. B(C   1,C   0)                1.4623  0.042405 -0.0447    1.4176   
     2. B(C   2,C   0)                1.4879 -0.015537  0.0178    1.5058   
     3. B(C   3,C   0)                1.4631  0.040763 -0.0431    1.4200   
     4. B(C   4,C   1)                1.4596  0.041173 -0.0428    1.4168   
     5. B(H   5,C   1)                1.0803 -0.008907  0.0118    1.0922   
     6. B(C   6,C   4)                1.4458  0.005295 -0.0050    1.4408   
     7. B(H   7,C   4)                1.0817 -0.006309  0.0084    1.0901   
     8. B(C   8,C   6)                1.4456  0.003981 -0.0037    1.4419   
     9. B(C   8,C   3)                1.4591  0.042394 -0.0440    1.4151   
    10. B(O   9,C   6)                1.2481 -0.061669  0.0337    1.2818   
    11. B(H  10,C   3)                1.0802 -0.009106  0.0121    1.0923   
    12. B(H  11,C   2)                1.0949 -0.003048  0.0043    1.0991   
    13. B(H  12,C   2)                1.0950 -0.005038  0.0070    1.1021   
    14. B(H  13,C   2)                1.0950 -0.005109  0.0071    1.1021   
    15. B(H  14,C   8)                1.0817 -0.006438  0.0086    1.0903   
    16. A(C   1,C   0,C   2)          120.72 -0.003101    0.50    121.21   
    17. A(C   1,C   0,C   3)          119.70  0.007979   -1.24    118.47   
    18. A(C   2,C   0,C   3)          119.58 -0.004878    0.74    120.32   
    19. A(C   0,C   1,H   5)          121.17  0.009027   -1.28    119.89   
    20. A(C   0,C   1,C   4)          120.08 -0.009595    1.25    121.33   
    21. A(C   4,C   1,H   5)          118.73  0.000557    0.05    118.78   
    22. A(H  11,C   2,H  13)          107.68  0.001577   -0.28    107.41   
    23. A(C   0,C   2,H  13)          110.51 -0.004852    0.81    111.33   
    24. A(C   0,C   2,H  12)          110.54 -0.004521    0.76    111.30   
    25. A(H  12,C   2,H  13)          108.31  0.004613   -0.77    107.53   
    26. A(C   0,C   2,H  11)          111.98  0.002179   -0.34    111.64   
    27. A(H  11,C   2,H  12)          107.67  0.001425   -0.25    107.41   
    28. A(C   0,C   3,H  10)          120.96  0.008127   -1.15    119.81   
    29. A(C   0,C   3,C   8)          120.11 -0.009248    1.20    121.31   
    30. A(C   8,C   3,H  10)          118.92  0.001114   -0.05    118.88   
    31. A(C   1,C   4,C   6)          119.14 -0.011336    1.55    120.69   
    32. A(C   6,C   4,H   7)          120.41  0.008292   -1.18    119.24   
    33. A(C   1,C   4,H   7)          120.43  0.003033   -0.36    120.07   
    34. A(C   8,C   6,O   9)          119.07 -0.016602    2.18    121.25   
    35. A(C   4,C   6,O   9)          119.04 -0.017243    2.26    121.30   
    36. A(C   4,C   6,C   8)          121.83  0.033775   -4.33    117.50   
    37. A(C   6,C   8,H  14)          120.40  0.008346   -1.18    119.22   
    38. A(C   3,C   8,C   6)          119.12 -0.011590    1.59    120.71   
    39. A(C   3,C   8,H  14)          120.45  0.003229   -0.39    120.06   
    40. D(C   4,C   1,C   0,C   3)      0.01  0.000178   -0.12     -0.11   
    41. D(H   5,C   1,C   0,C   2)     -1.28 -0.000349    0.51     -0.77   
    42. D(C   4,C   1,C   0,C   2)   -179.82  0.000213   -0.26   -180.09   
    43. D(H   5,C   1,C   0,C   3)    178.56 -0.000384    0.65    179.21   
    44. D(H  12,C   2,C   0,C   1)    120.43  0.000130    0.07    120.50   
    45. D(H  13,C   2,C   0,C   3)     60.49 -0.000161   -0.01     60.48   
    46. D(H  13,C   2,C   0,C   1)   -119.68 -0.000175    0.12   -119.55   
    47. D(H  12,C   2,C   0,C   3)    -59.40  0.000145   -0.07    -59.47   
    48. D(H  11,C   2,C   0,C   3)   -179.46 -0.000026   -0.03   -179.49   
    49. D(H  11,C   2,C   0,C   1)      0.38 -0.000040    0.10      0.48   
    50. D(H  10,C   3,C   0,C   1)   -179.34  0.000126   -0.34   -179.68   
    51. D(H  10,C   3,C   0,C   2)      0.50  0.000094   -0.20      0.29   
    52. D(C   8,C   3,C   0,C   2)    179.48 -0.000358    0.46    179.94   
    53. D(C   8,C   3,C   0,C   1)     -0.35 -0.000326    0.32     -0.03   
    54. D(C   6,C   4,C   1,C   0)     -0.36 -0.000124    0.44      0.08   
    55. D(H   7,C   4,C   1,H   5)     -0.36 -0.000106    0.20     -0.17   
    56. D(H   7,C   4,C   1,C   0)    178.22 -0.000527    0.93    179.15   
    57. D(C   6,C   4,C   1,H   5)   -178.94  0.000296   -0.30   -179.24   
    58. D(O   9,C   6,C   4,H   7)     -0.31 -0.000830    1.14      0.82   
    59. D(O   9,C   6,C   4,C   1)    178.27 -0.001309    1.64    179.91   
    60. D(C   8,C   6,C   4,H   7)   -177.50  0.001345   -1.56   -179.06   
    61. D(C   8,C   6,C   4,C   1)      1.09  0.000866   -1.06      0.03   
    62. D(H  14,C   8,C   6,O   9)     -0.40  0.000629   -0.90     -1.30   
    63. D(H  14,C   8,C   6,C   4)    176.78 -0.001563    1.80    178.58   
    64. D(C   3,C   8,C   6,O   9)   -178.61  0.001151   -1.45   -180.06   
    65. D(C   3,C   8,C   6,C   4)     -1.43 -0.001041    1.25     -0.17   
    66. D(H  14,C   8,C   3,H  10)      1.84  0.000446   -0.72      1.13   
    67. D(H  14,C   8,C   3,C   0)   -177.17  0.000815   -1.35   -178.52   
    68. D(C   6,C   8,C   3,H  10)   -179.95  0.000017   -0.18   -180.13   
    69. D(C   6,C   8,C   3,C   0)      1.04  0.000386   -0.82      0.22   
    ----------------------------------------------------------------------------

         *************************************************************
         *                GEOMETRY OPTIMIZATION CYCLE   2            *
         *************************************************************
---------------------------------
CARTESIAN COORDINATES (ANGSTROEM)
---------------------------------
  C     -5.184405   -6.308750    2.950865
  C     -5.002260   -5.033714    3.542794
  C     -6.112451   -7.326394    3.559489
  C     -4.469104   -6.611185    1.762191
  C     -4.128211   -4.075139    2.973030
  H     -5.550491   -4.771645    4.450325
  C     -3.397319   -4.371135    1.767081
  H     -4.013874   -3.095763    3.437969
  C     -3.592636   -5.669955    1.171875
  O     -2.605113   -3.511551    1.241176
  H     -4.596439   -7.585285    1.284618
  H     -6.596992   -6.941149    4.467746
  H     -6.910845   -7.611742    2.855424
  H     -5.571927   -8.245441    3.838631
[...]
 243   0.0000       4.047543       110.1392 
 244   0.0000       4.110257       111.8458 
 245   0.0000       4.131510       112.4241 
 246   0.0000       4.134671       112.5101 
 247   0.0000       4.140008       112.6554 
 248   0.0000       4.190919       114.0407 
 249   0.0000       4.197847       114.2292 
 250   0.0000       4.230169       115.1088 
 251   0.0000       4.321920       117.6054 
 252   0.0000       4.322906       117.6323 
 253   0.0000       4.406797       119.9151 
 254   0.0000       4.442908       120.8977 
 255   0.0000       4.493659       122.2787 
 256   0.0000       4.533357       123.3589 
 257   0.0000       4.562782       124.1596 
 258   0.0000       4.587540       124.8333 
 259   0.0000       4.658037       126.7516 
 260   0.0000       4.731151       128.7412 
 261   0.0000       4.767042       129.7178 
 262   0.0000       4.827934       131.3748 
 263   0.0000       4.875983       132.6823 
 264   0.0000       4.997379       135.9856 
 265   0.0000       5.026106       136.7673 
 266   0.0000       5.145014       140.0029 
 267   0.0000       5.174087       140.7941 
 268   0.0000       5.182804       141.0313 
 269   0.0000       5.321737       144.8118 
 270   0.0000       5.376775       146.3095 
 271   0.0000       5.446139       148.1970 
 272   0.0000       5.524845       150.3387 
 273   0.0000       5.626005       153.0914 
 274   0.0000       5.909778       160.8132 
 275   0.0000       6.213131       169.0679 
 276   0.0000       6.299183       171.4095 
 277   0.0000       6.443664       175.3410 
 278   0.0000       6.501099       176.9039 
 279   0.0000       6.721430       182.8994 
 280   0.0000       6.944847       188.9789 
 281   0.0000       6.960351       189.4008 
 282   0.0000      21.800189       593.2133 
 283   0.0000      22.121947       601.9688 
 284   0.0000      22.345083       608.0406 
 285   0.0000      22.436255       610.5216 
 286   0.0000      22.452994       610.9770 
 287   0.0000      22.670741       616.9022 
 288   0.0000      23.081470       628.0787 
 289   0.0000      43.576051      1185.7646 

                    ********************************
                    * MULLIKEN POPULATION ANALYSIS *
                    ********************************

-----------------------
MULLIKEN ATOMIC CHARGES
-----------------------
   0 C :    0.130511
   1 C :   -0.240509
   2 C :   -0.404366
   3 C :   -0.242673
   4 C :   -0.273122
   5 H :    0.104214
   6 C :    0.199671
   7 H :    0.070135
   8 C :   -0.261789
   9 O :   -0.626486
  10 H :    0.102408
  11 H :    0.127913
  12 H :    0.121571
  13 H :    0.121693
  14 H :    0.070830
Sum of atomic charges:   -1.0000000

--------------------------------
MULLIKEN REDUCED ORBITAL CHARGES
--------------------------------
  0 C s       :     3.151787  s :     3.151787
      pz      :     0.847651  p :     2.574303
      px      :     0.905204
      py      :     0.821449
      dz2     :     0.028645  d :     0.134247
      dxz     :     0.020617
      dyz     :     0.032990
      dx2y2   :     0.024950
      dxy     :     0.027045
      f0      :     0.001193  f :     0.009152
      f+1     :     0.000797
      f-1     :     0.001798
      f+2     :     0.001383
      f-2     :     0.001577
      f+3     :     0.001318
      f-3     :     0.001087
  1 C s       :     3.231476  s :     3.231476
      pz      :     0.975783  p :     2.907311
      px      :     0.990936
      py      :     0.940592
      dz2     :     0.017103  d :     0.094936
      dxz     :     0.012406
      dyz     :     0.018461
      dx2y2   :     0.024984
      dxy     :     0.021982
      f0      :     0.000237  f :     0.006787
      f+1     :     0.000877
      f-1     :     0.001474
      f+2     :     0.000989
      f-2     :     0.000972
      f+3     :     0.001236
      f-3     :     0.001002
  2 C s       :     3.267951  s :     3.267951
      pz      :     1.045231  p :     3.078877
      px      :     1.011553
      py      :     1.022093
      dz2     :     0.008254  d :     0.054328
      dxz     :     0.010348
      dyz     :     0.009497
      dx2y2   :     0.017576
      dxy     :     0.008654
      f0      :     0.000061  f :     0.003210
      f+1     :     0.000521
      f-1     :     0.000470
      f+2     :     0.000325
      f-2     :     0.000859
      f+3     :     0.000614
      f-3     :     0.000361
  3 C s       :     3.256370  s :     3.256370
      pz      :     0.951575  p :     2.889731
      px      :     0.974867
      py      :     0.963290
      dz2     :     0.021668  d :     0.089820
      dxz     :     0.016050
      dyz     :     0.021244
      dx2y2   :     0.023630
      dxy     :     0.007229
      f0      :     0.001109  f :     0.006752
      f+1     :     0.000883
      f-1     :     0.000890
      f+2     :     0.001188
      f-2     :     0.001085
      f+3     :     0.000581
      f-3     :     0.001016
  4 C s       :     3.265850  s :     3.265850
      pz      :     0.980439  p :     2.926710
      px      :     1.017617
      py      :     0.928654
      dz2     :     0.017357  d :     0.074007
      dxz     :     0.012024
      dyz     :     0.017194
      dx2y2   :     0.018736
      dxy     :     0.008696
      f0      :     0.000943  f :     0.006555
      f+1     :     0.000969
      f-1     :     0.000823
      f+2     :     0.001144
      f-2     :     0.001076
      f+3     :     0.000630
      f-3     :     0.000970
  5 H s       :     0.874424  s :     0.874424
      pz      :     0.010250  p :     0.021362
      px      :     0.006657
      py      :     0.004454
  6 C s       :     2.960015  s :     2.960015
      pz      :     0.901048  p :     2.683010
      px      :     0.886075
      py      :     0.895887
      dz2     :     0.027382  d :     0.141815
      dxz     :     0.016536
      dyz     :     0.035152
      dx2y2   :     0.036617
      dxy     :     0.026129
      f0      :     0.001418  f :     0.015490
      f+1     :     0.001869
      f-1     :     0.002893
      f+2     :     0.002023
      f-2     :     0.002445
      f+3     :     0.002654
      f-3     :     0.002188
  7 H s       :     0.907911  s :     0.907911
      pz      :     0.006054  p :     0.021954
      px      :     0.005001
      py      :     0.010900
  8 C s       :     3.262112  s :     3.262112
      pz      :     0.964356  p :     2.918943
      px      :     1.007222
      py      :     0.947365
      dz2     :     0.013362  d :     0.074172
      dxz     :     0.010775
      dyz     :     0.016252
      dx2y2   :     0.019442
      dxy     :     0.014341
      f0      :     0.000300  f :     0.006561
      f+1     :     0.000894
      f-1     :     0.001227
      f+2     :     0.001008
      f-2     :     0.000891
      f+3     :     0.001166
      f-3     :     0.001075
  9 O s       :     3.762344  s :     3.762344
      pz      :     1.698020  p :     4.837140
      px      :     1.535745
      py      :     1.603375
      dz2     :     0.003633  d :     0.025549
      dxz     :     0.003984
      dyz     :     0.005114
      dx2y2   :     0.005983
      dxy     :     0.006834
      f0      :     0.000130  f :     0.001454
      f+1     :     0.000144
      f-1     :     0.000184
      f+2     :     0.000156
      f-2     :     0.000309
      f+3     :     0.000249
      f-3     :     0.000281
 10 H s       :     0.876253  s :     0.876253
      pz      :     0.005888  p :     0.021339
      px      :     0.004628
      py      :     0.010823
 11 H s       :     0.851115  s :     0.851115
      pz      :     0.009561  p :     0.020971
      px      :     0.006126
      py      :     0.005284
 12 H s       :     0.857683  s :     0.857683
      pz      :     0.007004  p :     0.020746
      px      :     0.008519
      py      :     0.005223
 13 H s       :     0.857568  s :     0.857568
      pz      :     0.005155  p :     0.020739
      px      :     0.005915
      py      :     0.009669
 14 H s       :     0.907275  s :     0.907275
      pz      :     0.010463  p :     0.021895
      px      :     0.006962
      py      :     0.004471


                     *******************************
                     * LOEWDIN POPULATION ANALYSIS *
                     *******************************

----------------------
LOEWDIN ATOMIC CHARGES
----------------------
   0 C :   -0.236758
   1 C :   -0.179097
   2 C :   -0.291768
   3 C :   -0.173206
   4 C :   -0.201880
   5 H :    0.142011
   6 C :   -0.442711
   7 H :    0.130335
   8 C :   -0.196832
   9 O :   -0.203193
  10 H :    0.142879
  11 H :    0.128109
  12 H :    0.125645
  13 H :    0.125631
  14 H :    0.130834

-------------------------------
LOEWDIN REDUCED ORBITAL CHARGES
-------------------------------
  0 C s       :     2.720517  s :     2.720517
      pz      :     0.995952  p :     2.943598
      px      :     0.947072
      py      :     1.000573
      dz2     :     0.106839  d :     0.516986
      dxz     :     0.081069
      dyz     :     0.130201
      dx2y2   :     0.096076
      dxy     :     0.102801
      f0      :     0.006449  f :     0.055658
      f+1     :     0.006581
      f-1     :     0.011535
      f+2     :     0.008715
      f-2     :     0.007312
      f+3     :     0.008324
      f-3     :     0.006742
  1 C s       :     2.771164  s :     2.771164
      pz      :     0.964572  p :     2.962830
      px      :     0.964604
      py      :     1.033654
      dz2     :     0.066356  d :     0.403768
      dxz     :     0.055470
      dyz     :     0.091478
      dx2y2   :     0.096807
      dxy     :     0.093657
      f0      :     0.002281  f :     0.041335
      f+1     :     0.004210
      f-1     :     0.009633
      f+2     :     0.006211
      f-2     :     0.005784
      f+3     :     0.008314
      f-3     :     0.004902
  2 C s       :     2.829451  s :     2.829451
      pz      :     1.064765  p :     3.178843
      px      :     1.059004
      py      :     1.055074
      dz2     :     0.035865  d :     0.259143
      dxz     :     0.062486
      dyz     :     0.045218
      dx2y2   :     0.058981
      dxy     :     0.056593
      f0      :     0.002257  f :     0.024331
      f+1     :     0.003017
      f-1     :     0.004510
      f+2     :     0.003120
      f-2     :     0.003159
      f+3     :     0.004913
      f-3     :     0.003355
  3 C s       :     2.770879  s :     2.770879
      pz      :     0.997807  p :     2.960566
      px      :     0.978407
      py      :     0.984352
      dz2     :     0.088876  d :     0.400357
      dxz     :     0.071467
      dyz     :     0.101003
      dx2y2   :     0.090615
      dxy     :     0.048396
      f0      :     0.006446  f :     0.041403
      f+1     :     0.006097
      f-1     :     0.006642
      f+2     :     0.005615
      f-2     :     0.006164
      f+3     :     0.004776
      f-3     :     0.005663
  4 C s       :     2.786790  s :     2.786790
      pz      :     1.010484  p :     3.017599
      px      :     1.013081
      py      :     0.994035
      dz2     :     0.073690  d :     0.359219
      dxz     :     0.069047
      dyz     :     0.088791
      dx2y2   :     0.079622
      dxy     :     0.048069
      f0      :     0.005199  f :     0.038272
      f+1     :     0.006046
      f-1     :     0.006027
      f+2     :     0.005378
      f-2     :     0.005980
      f+3     :     0.004650
      f-3     :     0.004992
  5 H s       :     0.799986  s :     0.799986
      pz      :     0.027429  p :     0.058003
      px      :     0.018072
      py      :     0.012501
  6 C s       :     2.742769  s :     2.742769
      pz      :     0.969028  p :     2.828773
      px      :     0.886485
      py      :     0.973260
      dz2     :     0.150918  d :     0.771708
      dxz     :     0.124427
      dyz     :     0.165808
      dx2y2   :     0.185665
      dxy     :     0.144890
      f0      :     0.009116  f :     0.099462
      f+1     :     0.010619
      f-1     :     0.020746
      f+2     :     0.013062
      f-2     :     0.015230
      f+3     :     0.017440
      f-3     :     0.013248
  7 H s       :     0.810060  s :     0.810060
      pz      :     0.016738  p :     0.059605
      px      :     0.013887
      py      :     0.028980
  8 C s       :     2.787121  s :     2.787121
      pz      :     0.979797  p :     3.011094
      px      :     0.996344
      py      :     1.034953
      dz2     :     0.062587  d :     0.360290
      dxz     :     0.053954
      dyz     :     0.080289
      dx2y2   :     0.083966
      dxy     :     0.079494
      f0      :     0.002282  f :     0.038327
      f+1     :     0.004211
      f-1     :     0.007927
      f+2     :     0.005966
      f-2     :     0.005303
      f+3     :     0.007447
      f-3     :     0.005192
  9 O s       :     3.443744  s :     3.443744
      pz      :     1.612320  p :     4.695960
      px      :     1.511465
      py      :     1.572175
      dz2     :     0.008684  d :     0.058834
      dxz     :     0.010267
      dyz     :     0.010853
      dx2y2   :     0.013195
      dxy     :     0.015836
      f0      :     0.000424  f :     0.004655
      f+1     :     0.000476
      f-1     :     0.000565
      f+2     :     0.000440
      f-2     :     0.001065
      f+3     :     0.000883
      f-3     :     0.000803
 10 H s       :     0.799215  s :     0.799215
      pz      :     0.016152  p :     0.057906
      px      :     0.012904
      py      :     0.028850
 11 H s       :     0.811864  s :     0.811864
      pz      :     0.027512  p :     0.060026
      px      :     0.016708
      py      :     0.015806
 12 H s       :     0.814083  s :     0.814083
      pz      :     0.021758  p :     0.060271
      px      :     0.024065
      py      :     0.014448
 13 H s       :     0.814101  s :     0.814101
      pz      :     0.014657  p :     0.060268
      px      :     0.018139
      py      :     0.027472
 14 H s       :     0.809682  s :     0.809682
      pz      :     0.027890  p :     0.059483
      px      :     0.018833
      py      :     0.012760


                      *****************************
                      * MAYER POPULATION ANALYSIS *
                      *****************************

  NA   - Mulliken gross atomic population
  ZA   - Total nuclear charge
  QA   - Mulliken gross atomic charge
  VA   - Mayer's total valence
  BVA  - Mayer's bonded valence
  FA   - Mayer's free valence

  ATOM       NA         ZA         QA         VA         BVA        FA
  0 C      5.8695     6.0000     0.1305     3.6220     3.6220     0.0000
  1 C      6.2405     6.0000    -0.2405     3.8609     3.8609     0.0000
  2 C      6.4044     6.0000    -0.4044     3.8675     3.8675    -0.0000
  3 C      6.2427     6.0000    -0.2427     3.8246     3.8246    -0.0000
  4 C      6.2731     6.0000    -0.2731     3.6773     3.6773     0.0000
  5 H      0.8958     1.0000     0.1042     0.9698     0.9698    -0.0000
  6 C      5.8003     6.0000     0.1997     4.1695     4.1695     0.0000
  7 H      0.9299     1.0000     0.0701     1.0003     1.0003     0.0000
  8 C      6.2618     6.0000    -0.2618     3.6707     3.6707     0.0000
  9 O      8.6265     8.0000    -0.6265     1.8888     1.8888    -0.0000
 10 H      0.8976     1.0000     0.1024     0.9689     0.9689     0.0000
 11 H      0.8721     1.0000     0.1279     0.9747     0.9747     0.0000
 12 H      0.8784     1.0000     0.1216     0.9599     0.9599    -0.0000
 13 H      0.8783     1.0000     0.1217     0.9594     0.9594    -0.0000
 14 H      0.9292     1.0000     0.0708     0.9997     0.9997    -0.0000

  Mayer bond orders larger than 0.100000
B(  0-C ,  1-C ) :   1.3428 B(  0-C ,  2-C ) :   0.9329 B(  0-C ,  3-C ) :   1.2970 
B(  1-C ,  4-C ) :   1.3781 B(  1-C ,  5-H ) :   0.9614 B(  2-C , 11-H ) :   0.9830 
B(  2-C , 12-H ) :   0.9591 B(  2-C , 13-H ) :   0.9582 B(  3-C ,  8-C ) :   1.3884 
B(  3-C , 10-H ) :   0.9785 B(  4-C ,  6-C ) :   1.1891 B(  4-C ,  7-H ) :   0.9863 
B(  6-C ,  8-C ) :   1.1750 B(  6-C ,  9-O ) :   1.7122 B(  8-C , 14-H ) :   0.9852 


-------
TIMINGS
-------

Total SCF time: 0 days 0 hours 0 min 25 sec 

Total time                  ....      25.128 sec
Sum of individual times     ....      23.079 sec  ( 91.8%)

Fock matrix formation       ....      21.426 sec  ( 85.3%)
  Split-RI-J                ....       3.996 sec  ( 18.7% of F)
  XC integration            ....      10.114 sec  ( 47.2% of F)
    Basis function eval.    ....       3.163 sec  ( 31.3% of XC)
    Density eval.           ....       2.635 sec  ( 26.0% of XC)
    XC-Functional eval.     ....       0.425 sec  (  4.2% of XC)
    XC-Potential eval.      ....       2.655 sec  ( 26.3% of XC)
Diagonalization             ....       0.021 sec  (  0.1%)
Density matrix formation    ....       0.006 sec  (  0.0%)
Population analysis         ....       0.247 sec  (  1.0%)
Initial guess               ....       0.021 sec  (  0.1%)
Orbital Transformation      ....       0.000 sec  (  0.0%)
Orbital Orthonormalization  ....       0.017 sec  (  0.1%)
DIIS solution               ....       0.005 sec  (  0.0%)
SOSCF solution              ....       0.149 sec  (  0.6%)
Grid generation             ....       1.205 sec  (  4.8%)

Maximum memory used throughout the entire SCF-calculation: 117.5 MB

-------------------------   --------------------
FINAL SINGLE POINT ENERGY      -346.007900570998
-------------------------   --------------------

                                *** OPTIMIZATION RUN DONE ***

                            ***************************************
                            *     ORCA property calculations      *
                            ***************************************

                                    ---------------------
                                    Active property flags
                                    ---------------------
   (+) Dipole Moment


------------------------------------------------------------------------------
                       ORCA ELECTRIC PROPERTIES CALCULATION
------------------------------------------------------------------------------

Dipole Moment Calculation                       ... on
Quadrupole Moment Calculation                   ... off
Polarizability Calculation                      ... off
GBWName                                         ... inp.gbw
Electron density                                ... inp.scfp
The origin for moment calculation is the CENTER OF MASS  = (-8.133799, -10.112717  4.461969)

-------------
DIPOLE MOMENT
-------------
                                X             Y             Z
Electronic contribution:      3.58605       3.88899      -2.39205
Nuclear contribution   :     -5.78077      -6.30333       3.82800
                        -----------------------------------------
Total Dipole Moment    :     -2.19472      -2.41434       1.43595
                        -----------------------------------------
Magnitude (a.u.)       :      3.56480
Magnitude (Debye)      :      9.06099



--------------------
Rotational spectrum 
--------------------
 
Rotational constants in cm-1:     0.184774     0.048968     0.038992 
Rotational constants in MHz :  5539.390937  1468.031130  1168.942670 

 Dipole components along the rotational axes: 
x,y,z [a.u.] :     3.564696    -0.026629     0.000444 
x,y,z [Debye]:     9.060737    -0.067687     0.001129 

 

Timings for individual modules:

Sum of individual times         ...      472.441 sec (=   7.874 min)
GTO integral calculation        ...       12.606 sec (=   0.210 min)   2.7 %
SCF iterations                  ...      338.151 sec (=   5.636 min)  71.6 %
SCF Gradient evaluation         ...      120.610 sec (=   2.010 min)  25.5 %
Geometry relaxation             ...        1.074 sec (=   0.018 min)   0.2 %
                             ****ORCA TERMINATED NORMALLY****
TOTAL RUN TIME: 0 days 0 hours 7 minutes 56 seconds 790 msec
