 Entering Gaussian System
 *********************************************
 Gaussian 98:
 frequency output generated by the xtb code
 *********************************************
                         Standard orientation:
 --------------------------------------------------------------------
  Center     Atomic     Atomic              Coordinates (Angstroms)
  Number     Number      Type              X           Y           Z
 --------------------------------------------------------------------
    1          6             0       -4.880995   -2.739982    2.260215
    2          6             0       -6.052839   -3.207693    3.069217
    3          1             0       -4.731650   -1.650219    2.318697
    4          1             0       -3.933981   -3.207049    2.572926
    5          1             0       -5.066382   -3.003585    1.220540
    6          6             0       -7.125696   -3.834555    2.513929
    7          1             0       -6.015072   -3.021589    4.139004
    8          1             0       -8.219922   -3.646126    4.407841
    9          6             0       -8.238353   -4.271288    3.509067
   10          1             0       -9.209655   -4.146205    3.019721
   11          6             0       -8.058040   -5.735974    3.893962
   12          8             0       -7.309753   -4.116085    1.289930
   13          1             0       -7.106245   -5.871968    4.406535
   14          1             0       -8.860864   -6.090295    4.549370
   15          1             0       -8.048693   -6.346241    2.992839
 --------------------------------------------------------------------
     1 basis functions        1 primitive gaussians
     1 alpha electrons        1 beta electrons
 
 Harmonic frequencies (cm**-1), IR intensities (km*mol⁻¹),
 Raman scattering activities (A**4/amu), Raman depolarization ratios,
 reduced masses (AMU), force constants (mDyne/A) and normal coordinates:
                      1                      2                      3
                        a                      a                      a 
 Frequencies --    21.4953               146.7546               165.0081
 Red. masses --     9.3080                 5.8302                 4.5948
 Frc consts  --     0.0000                 0.0000                 0.0000
 IR Inten    --     2.8290                 2.2305                 0.4064
 Raman Activ --     0.0000                 0.0000                 0.0000
 Depolar     --     0.0000                 0.0000                 0.0000
 Atom AN      X      Y      Z        X      Y      Z        X      Y      Z
   1   6     0.03  -0.18   0.17     0.09  -0.34   0.07    -0.04   0.19  -0.03
   2   6    -0.05  -0.22   0.02    -0.17   0.22   0.01     0.19  -0.32   0.02
   3   1     0.05  -0.06   0.12    -0.05  -0.07  -0.32    -0.37   0.12  -0.32
   4   1    -0.01  -0.11   0.02     0.01   0.07   0.32     0.10   0.45   0.23
   5   1     0.01   0.02   0.03     0.20  -0.44   0.08     0.18  -0.29   0.04
   6   6    -0.10   0.02  -0.14    -0.15   0.16   0.04     0.08  -0.08  -0.03
   7   1    -0.02  -0.13   0.02    -0.08   0.14  -0.01     0.06  -0.10   0.01
   8   1    -0.16   0.07  -0.13    -0.02  -0.02   0.04     0.02   0.01  -0.02
   9   6    -0.14  -0.09  -0.23    -0.06   0.05   0.06     0.05  -0.05  -0.04
  10   1    -0.03  -0.18  -0.14    -0.04  -0.01   0.05     0.02   0.00  -0.03
  11   6     0.35   0.12   0.34     0.30   0.02  -0.23    -0.18  -0.03   0.15
  12   8    -0.14   0.36  -0.23    -0.11  -0.02   0.08    -0.03   0.21  -0.09
  13   1     0.10   0.19   0.14     0.11   0.05  -0.10    -0.06  -0.04   0.05
  14   1     0.12   0.02   0.12     0.13  -0.09  -0.07    -0.07   0.06   0.07
  15   1     0.19  -0.07   0.17     0.11   0.07  -0.11    -0.09  -0.05   0.07
                      4                      5                      6
                        a                      a                      a 
 Frequencies --   201.5915               237.7163               270.6932
 Red. masses --     3.4290                 8.7256                 9.6618
 Frc consts  --     0.0000                 0.0000                 0.0000
 IR Inten    --     1.9336                10.1290                11.8330
 Raman Activ --     0.0000                 0.0000                 0.0000
 Depolar     --     0.0000                 0.0000                 0.0000
 Atom AN      X      Y      Z        X      Y      Z        X      Y      Z
   1   6    -0.12  -0.09  -0.25    -0.24  -0.20  -0.26    -0.21   0.05  -0.02
   2   6     0.09  -0.00   0.11    -0.04   0.14   0.21     0.17  -0.49   0.18
   3   1    -0.03  -0.02  -0.14    -0.01  -0.06  -0.18    -0.18   0.03   0.05
   4   1    -0.01  -0.01  -0.14    -0.05  -0.08  -0.16     0.02   0.10  -0.13
   5   1    -0.13  -0.08  -0.04    -0.22  -0.14  -0.03    -0.13   0.06  -0.00
   6   6     0.04   0.05   0.16     0.04   0.05   0.15    -0.06   0.01   0.08
   7   1     0.07   0.02   0.02     0.03   0.06   0.05     0.02  -0.06   0.04
   8   1    -0.12  -0.01  -0.01    -0.09  -0.02  -0.04    -0.08   0.07  -0.00
   9   6    -0.08  -0.03  -0.03    -0.11  -0.12  -0.12    -0.19   0.27  -0.02
  10   1     0.02  -0.04  -0.09    -0.01  -0.07  -0.08    -0.05   0.05  -0.02
  11   6    -0.02  -0.03  -0.03    -0.05  -0.08   0.05     0.24   0.29  -0.27
  12   8     0.13   0.13   0.15     0.45   0.28   0.06     0.07  -0.24   0.14
  13   1    -0.22   0.07   0.41     0.11  -0.03  -0.22     0.14   0.15  -0.19
  14   1    -0.26  -0.15  -0.40     0.13   0.07   0.25     0.17  -0.03  -0.01
  15   1     0.48   0.06  -0.05    -0.28  -0.10   0.06     0.03   0.14  -0.11
                      7                      8                      9
                        a                      a                      a 
 Frequencies --   409.6410               545.4169               598.0093
 Red. masses --     9.2092                 9.4379                 6.9747
 Frc consts  --     0.0000                 0.0000                 0.0000
 IR Inten    --     3.8728                15.2054                 9.7856
 Raman Activ --     0.0000                 0.0000                 0.0000
 Depolar     --     0.0000                 0.0000                 0.0000
 Atom AN      X      Y      Z        X      Y      Z        X      Y      Z
   1   6     0.32   0.15  -0.11    -0.19  -0.06   0.09    -0.11  -0.07   0.09
   2   6     0.25   0.12  -0.08    -0.13   0.26   0.19     0.14  -0.16   0.25
   3   1     0.09   0.04  -0.01    -0.01  -0.02  -0.09    -0.02  -0.02  -0.01
   4   1     0.09   0.04  -0.01    -0.05  -0.03  -0.00     0.01  -0.02  -0.09
   5   1     0.13   0.06  -0.04    -0.15  -0.10   0.06    -0.16  -0.04   0.05
   6   6     0.08   0.07   0.21     0.35  -0.36   0.04     0.02   0.34  -0.10
   7   1     0.10   0.06  -0.02     0.12  -0.35   0.12    -0.30   0.51  -0.02
   8   1    -0.35  -0.02  -0.07     0.02   0.07  -0.09     0.04  -0.03  -0.05
   9   6    -0.26  -0.14  -0.24     0.29   0.09  -0.23     0.36  -0.03  -0.23
  10   1     0.03  -0.16  -0.31     0.14   0.04  -0.18     0.11  -0.04  -0.09
  11   6    -0.05  -0.07  -0.05     0.04   0.18  -0.10     0.01  -0.05  -0.00
  12   8    -0.31  -0.10   0.35    -0.32  -0.03   0.06    -0.24  -0.11   0.02
  13   1     0.04   0.03  -0.09     0.00   0.02  -0.02    -0.04  -0.10   0.06
  14   1     0.05  -0.00   0.08    -0.01   0.11  -0.02    -0.08   0.17  -0.00
  15   1    -0.08  -0.07   0.02    -0.01   0.03  -0.01    -0.05  -0.10   0.06
                     10                     11                     12
                        a                      a                      a 
 Frequencies --   678.0612               811.7780               822.8176
 Red. masses --     7.3904                 2.9473                 8.8191
 Frc consts  --     0.0000                 0.0000                 0.0000
 IR Inten    --     4.6973                 2.1543                22.6831
 Raman Activ --     0.0000                 0.0000                 0.0000
 Depolar     --     0.0000                 0.0000                 0.0000
 Atom AN      X      Y      Z        X      Y      Z        X      Y      Z
   1   6     0.02  -0.01  -0.02     0.10   0.05  -0.01    -0.16  -0.09  -0.07
   2   6    -0.03  -0.05  -0.07     0.06   0.06   0.13    -0.15  -0.13  -0.31
   3   1    -0.02  -0.01   0.06     0.04   0.01  -0.06    -0.09  -0.03   0.20
   4   1     0.01   0.00   0.00     0.05   0.02  -0.06    -0.11  -0.02   0.21
   5   1     0.05   0.04  -0.02    -0.05  -0.02   0.02     0.27   0.12  -0.10
   6   6     0.22  -0.61   0.13     0.03  -0.02   0.01    -0.28  -0.05   0.29
   7   1    -0.27   0.56  -0.11     0.03   0.01   0.04     0.09   0.01  -0.10
   8   1     0.00   0.04  -0.01     0.37  -0.25   0.08     0.13  -0.05  -0.04
   9   6    -0.11   0.03   0.08    -0.19  -0.09  -0.25     0.28  -0.03  -0.25
  10   1    -0.00   0.06  -0.02    -0.15   0.36   0.24     0.07   0.04  -0.04
  11   6    -0.01   0.10  -0.03    -0.07  -0.04  -0.11     0.07   0.10  -0.12
  12   8    -0.05   0.27  -0.02    -0.08  -0.03   0.04     0.15   0.11   0.34
  13   1     0.03   0.08  -0.05     0.01   0.43   0.05    -0.03   0.02   0.06
  14   1     0.05  -0.10  -0.01     0.08   0.03   0.12    -0.06   0.26  -0.01
  15   1     0.03   0.08  -0.05     0.17  -0.34   0.20    -0.01  -0.13   0.07
                     13                     14                     15
                        a                      a                      a 
 Frequencies --   985.1584              1027.9959              1043.3570
 Red. masses --     6.0173                 4.3462                 4.3768
 Frc consts  --     0.0000                 0.0000                 0.0000
 IR Inten    --    43.7520                 1.1846                 4.6133
 Raman Activ --     0.0000                 0.0000                 0.0000
 Depolar     --     0.0000                 0.0000                 0.0000
 Atom AN      X      Y      Z        X      Y      Z        X      Y      Z
   1   6     0.37   0.15  -0.03     0.05   0.04  -0.07     0.05  -0.37  -0.03
   2   6    -0.13  -0.02   0.13    -0.02  -0.01   0.13    -0.04   0.25   0.10
   3   1     0.09   0.05  -0.18     0.04   0.00   0.00    -0.50  -0.04   0.33
   4   1     0.17   0.06  -0.22    -0.01  -0.01   0.03     0.25   0.29  -0.15
   5   1    -0.16  -0.06   0.06     0.08   0.02  -0.03     0.08   0.21  -0.09
   6   6    -0.29  -0.21   0.13    -0.13   0.02   0.07     0.14   0.02  -0.05
   7   1    -0.11  -0.04   0.05     0.10   0.05   0.03     0.15   0.07   0.02
   8   1     0.12   0.03  -0.07     0.38   0.36  -0.35     0.02   0.02  -0.00
   9   6    -0.04  -0.14  -0.09     0.02   0.06  -0.36    -0.14   0.13  -0.05
  10   1    -0.16  -0.24   0.22    -0.08   0.06   0.09    -0.12  -0.07   0.12
  11   6     0.17   0.22  -0.08    -0.07  -0.18   0.26     0.11  -0.10   0.01
  12   8     0.02   0.02  -0.01    -0.03  -0.01   0.10    -0.05  -0.02  -0.04
  13   1    -0.05  -0.23   0.07     0.06  -0.10  -0.10    -0.02  -0.15   0.05
  14   1    -0.14   0.33  -0.10     0.07  -0.38  -0.02    -0.05   0.09  -0.03
  15   1    -0.11   0.05  -0.02     0.02   0.26  -0.15    -0.04  -0.06   0.02
                     16                     17                     18
                        a                      a                      a 
 Frequencies --  1053.1609              1078.8891              1106.0517
 Red. masses --     5.9955                 8.1839                 9.1287
 Frc consts  --     0.0000                 0.0000                 0.0000
 IR Inten    --    18.2923                 2.4684                17.0013
 Raman Activ --     0.0000                 0.0000                 0.0000
 Depolar     --     0.0000                 0.0000                 0.0000
 Atom AN      X      Y      Z        X      Y      Z        X      Y      Z
   1   6    -0.19   0.06  -0.22    -0.09   0.13  -0.02    -0.26  -0.06   0.34
   2   6     0.11  -0.01   0.34     0.05  -0.07   0.02     0.31   0.07  -0.48
   3   1     0.15  -0.02   0.08     0.19   0.01  -0.08    -0.02  -0.01  -0.04
   4   1    -0.23  -0.13   0.29    -0.14  -0.12   0.12    -0.04  -0.05  -0.01
   5   1     0.33   0.06  -0.13     0.04  -0.06   0.01    -0.25  -0.11   0.14
   6   6     0.20   0.04  -0.09     0.06  -0.12   0.02     0.24   0.08  -0.06
   7   1     0.25   0.14   0.05     0.02   0.01  -0.00     0.01  -0.01  -0.12
   8   1     0.06  -0.06   0.00    -0.05   0.09   0.02     0.15   0.02  -0.07
   9   6    -0.14  -0.26   0.02    -0.21   0.56  -0.07    -0.21  -0.15  -0.10
  10   1    -0.16  -0.19   0.21    -0.10   0.07   0.05    -0.19  -0.13   0.23
  11   6     0.04   0.25  -0.04     0.26  -0.41  -0.02     0.06   0.09   0.04
  12   8    -0.09  -0.06  -0.12    -0.01   0.01  -0.02     0.00   0.04   0.22
  13   1    -0.03  -0.07   0.02    -0.03  -0.29   0.13    -0.01  -0.12   0.02
  14   1    -0.07   0.14  -0.06    -0.07   0.18  -0.02    -0.05   0.04  -0.05
  15   1    -0.06   0.09  -0.03    -0.05  -0.27   0.10    -0.05   0.09  -0.04
                     19                     20                     21
                        a                      a                      a 
 Frequencies --  1202.7960              1245.4747              1291.1650
 Red. masses --     6.1883                 3.5608                 4.6421
 Frc consts  --     0.0000                 0.0000                 0.0000
 IR Inten    --    67.9350                 1.6619                 2.3057
 Raman Activ --     0.0000                 0.0000                 0.0000
 Depolar     --     0.0000                 0.0000                 0.0000
 Atom AN      X      Y      Z        X      Y      Z        X      Y      Z
   1   6    -0.06   0.00   0.23     0.00   0.00   0.02     0.00  -0.02  -0.01
   2   6     0.20   0.10  -0.03     0.02   0.01  -0.01    -0.02  -0.01   0.01
   3   1     0.00   0.01  -0.03    -0.01   0.00   0.00    -0.01  -0.00   0.00
   4   1     0.02  -0.00  -0.04     0.00  -0.00  -0.00     0.01   0.01  -0.01
   5   1    -0.16  -0.06   0.10    -0.02  -0.01   0.01     0.01   0.01  -0.01
   6   6    -0.31  -0.11   0.24    -0.06  -0.00   0.08     0.03   0.09  -0.07
   7   1     0.64   0.30  -0.06     0.07   0.03  -0.01    -0.03  -0.01   0.00
   8   1    -0.01   0.08  -0.04    -0.02  -0.45   0.26     0.23   0.39  -0.28
   9   6     0.06   0.01   0.08    -0.14  -0.07  -0.22    -0.27  -0.32   0.31
  10   1     0.06  -0.04  -0.09     0.10   0.48  -0.18     0.21   0.40  -0.32
  11   6    -0.03  -0.02  -0.06     0.20   0.09   0.29     0.18   0.01  -0.12
  12   8    -0.03  -0.07  -0.36    -0.01  -0.02  -0.10     0.00  -0.00   0.03
  13   1    -0.00   0.09  -0.00     0.03  -0.31  -0.00    -0.03  -0.07   0.09
  14   1     0.01   0.04   0.02    -0.07  -0.02  -0.10    -0.06   0.21  -0.03
  15   1     0.02  -0.05   0.01    -0.11   0.28  -0.11    -0.07  -0.09   0.03
                     22                     23                     24
                        a                      a                      a 
 Frequencies --  1374.8259              1388.8971              1411.6450
 Red. masses --     4.2448                 3.1864                 7.6247
 Frc consts  --     0.0000                 0.0000                 0.0000
 IR Inten    --    70.3383                10.5560                69.2701
 Raman Activ --     0.0000                 0.0000                 0.0000
 Depolar     --     0.0000                 0.0000                 0.0000
 Atom AN      X      Y      Z        X      Y      Z        X      Y      Z
   1   6     0.19   0.06  -0.25     0.15   0.06  -0.08     0.25   0.12  -0.04
   2   6     0.19   0.10  -0.01    -0.08  -0.04  -0.00    -0.40  -0.20  -0.00
   3   1    -0.28   0.00   0.36    -0.13   0.01   0.12    -0.16   0.03   0.04
   4   1    -0.21  -0.13   0.38    -0.08  -0.08   0.14    -0.08  -0.13   0.07
   5   1    -0.37  -0.17   0.09    -0.21  -0.09   0.06    -0.25  -0.11   0.09
   6   6    -0.03   0.02   0.26     0.01   0.01  -0.05     0.16   0.02  -0.37
   7   1    -0.24  -0.11   0.04     0.09   0.05  -0.01     0.41   0.19  -0.07
   8   1     0.01   0.05  -0.03     0.06  -0.02   0.01    -0.04  -0.04   0.03
   9   6    -0.00  -0.02  -0.01    -0.01   0.01   0.01     0.00   0.02   0.01
  10   1    -0.02   0.01   0.04     0.03  -0.03  -0.06    -0.00  -0.00  -0.01
  11   6     0.01  -0.11   0.01    -0.04   0.38  -0.09     0.03  -0.14   0.04
  12   8    -0.03  -0.05  -0.21     0.00   0.00   0.04     0.03   0.06   0.30
  13   1     0.02   0.13  -0.01    -0.09  -0.45   0.03     0.03   0.16   0.00
  14   1    -0.05   0.14   0.01     0.19  -0.43  -0.01    -0.07   0.14  -0.01
  15   1    -0.00   0.11  -0.08     0.05  -0.39   0.27    -0.05   0.14  -0.10
                     25                     26                     27
                        a                      a                      a 
 Frequencies --  1488.4775              1503.7423              1506.5653
 Red. masses --     1.9205                 1.6357                 1.5766
 Frc consts  --     0.0000                 0.0000                 0.0000
 IR Inten    --     4.3012                 0.1562                 0.4518
 Raman Activ --     0.0000                 0.0000                 0.0000
 Depolar     --     0.0000                 0.0000                 0.0000
 Atom AN      X      Y      Z        X      Y      Z        X      Y      Z
   1   6     0.01  -0.00   0.01     0.10  -0.21   0.03    -0.00  -0.02  -0.01
   2   6    -0.00  -0.00  -0.00     0.01  -0.02   0.00     0.01   0.01   0.00
   3   1    -0.01   0.00  -0.01     0.02   0.03  -0.44     0.03  -0.00  -0.00
   4   1    -0.00  -0.00   0.01    -0.08   0.14   0.43     0.00   0.03   0.04
   5   1    -0.02   0.01   0.00    -0.33   0.64  -0.10    -0.03   0.03  -0.00
   6   6    -0.01  -0.01  -0.01     0.00  -0.01  -0.00    -0.01  -0.01  -0.01
   7   1     0.04   0.02  -0.01    -0.00   0.01  -0.00    -0.01  -0.01   0.00
   8   1    -0.61   0.24  -0.16     0.01  -0.01   0.01     0.02   0.02   0.00
   9   6     0.20  -0.19  -0.08    -0.01   0.01  -0.00     0.01   0.02   0.04
  10   1    -0.16   0.47   0.44     0.00  -0.01  -0.01     0.01  -0.04  -0.02
  11   6     0.01   0.04  -0.00    -0.01  -0.00  -0.01     0.11   0.05   0.18
  12   8     0.00   0.00   0.01     0.00  -0.00   0.00     0.00  -0.00   0.00
  13   1     0.02  -0.07  -0.05    -0.01  -0.01   0.02     0.23   0.24  -0.35
  14   1    -0.01  -0.01  -0.03     0.02   0.01   0.03    -0.39  -0.17  -0.57
  15   1     0.05  -0.07   0.04     0.02   0.02  -0.01    -0.30  -0.26   0.19
                     28                     29                     30
                        a                      a                      a 
 Frequencies --  1516.7975              1526.6202              1699.4265
 Red. masses --     1.6335                 1.8193                11.8819
 Frc consts  --     0.0000                 0.0000                 0.0000
 IR Inten    --     1.0558                44.5250               412.5333
 Raman Activ --     0.0000                 0.0000                 0.0000
 Depolar     --     0.0000                 0.0000                 0.0000
 Atom AN      X      Y      Z        X      Y      Z        X      Y      Z
   1   6    -0.01  -0.00  -0.00     0.12   0.08   0.16    -0.03  -0.02  -0.01
   2   6     0.01   0.01   0.00     0.03   0.01  -0.00     0.43   0.24   0.15
   3   1     0.01  -0.00   0.01    -0.55   0.08  -0.35    -0.11   0.02   0.04
   4   1     0.01   0.01   0.00    -0.23  -0.56  -0.21    -0.06  -0.09   0.05
   5   1    -0.00  -0.00  -0.00     0.24   0.14  -0.06     0.01   0.00  -0.01
   6   6    -0.02  -0.00   0.02     0.04   0.04   0.11    -0.45  -0.31  -0.53
   7   1    -0.01  -0.00   0.00    -0.05  -0.02   0.01    -0.05  -0.01   0.07
   8   1    -0.06   0.00  -0.00     0.02   0.01  -0.01    -0.04  -0.04   0.02
   9   6     0.06   0.00  -0.04    -0.01  -0.00  -0.00     0.04   0.02   0.03
  10   1    -0.02   0.02   0.05    -0.00  -0.01   0.01     0.03   0.03  -0.06
  11   6     0.19  -0.00  -0.12     0.01   0.00   0.00     0.00  -0.00  -0.00
  12   8     0.00  -0.00  -0.01    -0.01  -0.02  -0.08     0.06   0.08   0.29
  13   1    -0.24   0.26   0.52     0.01   0.01  -0.01    -0.00  -0.00   0.01
  14   1     0.13  -0.31  -0.01    -0.01  -0.02  -0.03     0.00   0.01   0.01
  15   1    -0.65   0.05  -0.05    -0.03  -0.02   0.01     0.01   0.01  -0.01
                     31                     32                     33
                        a                      a                      a 
 Frequencies --  2796.8688              2847.8832              2913.3190
 Red. masses --     1.9052                 1.4358                 1.7555
 Frc consts  --     0.0000                 0.0000                 0.0000
 IR Inten    --   195.2932               273.9289               104.2404
 Raman Activ --     0.0000                 0.0000                 0.0000
 Depolar     --     0.0000                 0.0000                 0.0000
 Atom AN      X      Y      Z        X      Y      Z        X      Y      Z
   1   6     0.12  -0.25   0.04     0.15   0.08   0.08     0.00   0.00   0.00
   2   6    -0.00  -0.00   0.00     0.02   0.01  -0.02     0.00   0.01   0.03
   3   1     0.11   0.69   0.07    -0.03  -0.67  -0.03    -0.00  -0.01  -0.00
   4   1    -0.56   0.25  -0.21    -0.58   0.35  -0.21    -0.01   0.00  -0.00
   5   1     0.03  -0.05   0.01     0.02   0.01  -0.02    -0.00   0.00   0.00
   6   6     0.00  -0.00   0.00    -0.01  -0.01  -0.01    -0.00  -0.01  -0.01
   7   1    -0.00   0.00  -0.00    -0.00   0.01   0.05    -0.00  -0.01  -0.08
   8   1    -0.00  -0.00  -0.00     0.00   0.01   0.01     0.03   0.38   0.54
   9   6    -0.00   0.00  -0.00     0.00  -0.00  -0.00    -0.03  -0.10  -0.15
  10   1     0.00  -0.00   0.00    -0.01   0.00  -0.01     0.08  -0.03   0.02
  11   6    -0.00   0.00   0.00     0.00   0.00  -0.00    -0.14  -0.04   0.11
  12   8    -0.00   0.00  -0.00     0.00   0.00   0.01     0.00   0.00   0.00
  13   1     0.00   0.00   0.00     0.00   0.00   0.00    -0.01  -0.01   0.03
  14   1     0.00   0.00  -0.00    -0.02  -0.01   0.01     0.51   0.21  -0.41
  15   1     0.00  -0.00  -0.00     0.00  -0.00  -0.00    -0.03  -0.05  -0.03
                     34                     35                     36
                        a                      a                      a 
 Frequencies --  2916.9832              2939.5668              2963.5402
 Red. masses --     1.8633                 1.5548                 1.7694
 Frc consts  --     0.0000                 0.0000                 0.0000
 IR Inten    --   107.3580               113.8061               211.2807
 Raman Activ --     0.0000                 0.0000                 0.0000
 Depolar     --     0.0000                 0.0000                 0.0000
 Atom AN      X      Y      Z        X      Y      Z        X      Y      Z
   1   6     0.00   0.00   0.00     0.00   0.00   0.00    -0.01  -0.00   0.00
   2   6    -0.00  -0.01  -0.04    -0.00  -0.00  -0.03    -0.02  -0.05  -0.25
   3   1    -0.00  -0.01  -0.00    -0.00  -0.01  -0.00     0.00   0.04   0.00
   4   1    -0.01   0.00  -0.00    -0.00   0.00  -0.00     0.03  -0.02   0.01
   5   1     0.00   0.00  -0.00    -0.00  -0.00  -0.01    -0.01  -0.01  -0.06
   6   6     0.01   0.00   0.01    -0.01  -0.00  -0.00     0.01   0.00  -0.01
   7   1     0.00   0.02   0.12     0.00   0.02   0.10     0.03   0.16   0.93
   8   1    -0.01  -0.34  -0.48    -0.05  -0.19  -0.28     0.01   0.10   0.14
   9   6     0.09   0.08   0.18    -0.20   0.07  -0.04     0.01  -0.03  -0.03
  10   1    -0.34   0.06  -0.16     0.77  -0.09   0.42    -0.03   0.00  -0.02
  11   6    -0.14  -0.04   0.09    -0.04  -0.01   0.04     0.02   0.00   0.01
  12   8    -0.00  -0.00  -0.00     0.00   0.00   0.00    -0.00  -0.00   0.00
  13   1     0.05  -0.02   0.05    -0.05   0.01  -0.02    -0.04   0.00  -0.02
  14   1     0.47   0.19  -0.38     0.16   0.06  -0.12    -0.03  -0.01   0.03
  15   1    -0.03   0.00   0.02    -0.01  -0.01  -0.01     0.00  -0.01  -0.02
                     37                     38                     39
                        a                      a                      a 
 Frequencies --  3004.0505              3016.8916              3021.6912
 Red. masses --     1.7773                 1.6920                 1.6024
 Frc consts  --     0.0000                 0.0000                 0.0000
 IR Inten    --    83.2368                44.6618                50.9674
 Raman Activ --     0.0000                 0.0000                 0.0000
 Depolar     --     0.0000                 0.0000                 0.0000
 Atom AN      X      Y      Z        X      Y      Z        X      Y      Z
   1   6    -0.00   0.00   0.00     0.04   0.06   0.24    -0.00  -0.01  -0.03
   2   6    -0.00  -0.00  -0.01    -0.00   0.00   0.03    -0.00  -0.00  -0.01
   3   1     0.00   0.00   0.00     0.01   0.03   0.04    -0.00  -0.00  -0.00
   4   1     0.01  -0.00   0.00     0.02   0.00   0.04    -0.00   0.00  -0.01
   5   1    -0.00  -0.00  -0.01    -0.18  -0.24  -0.91     0.02   0.03   0.11
   6   6    -0.00  -0.00  -0.00     0.00   0.00   0.00     0.00  -0.00  -0.00
   7   1     0.00   0.01   0.05    -0.00  -0.01  -0.06     0.00   0.00   0.02
   8   1     0.00   0.02   0.03     0.00  -0.00  -0.00     0.00   0.02   0.04
   9   6    -0.02  -0.00  -0.02     0.00  -0.00   0.00    -0.00  -0.01  -0.01
  10   1     0.06  -0.00   0.03    -0.00   0.00  -0.00     0.01  -0.00   0.00
  11   6    -0.21   0.00  -0.16     0.01  -0.02  -0.02     0.03  -0.14  -0.18
  12   8     0.00   0.00   0.00    -0.00  -0.00  -0.00     0.00   0.00   0.00
  13   1     0.83  -0.10   0.43    -0.02   0.00  -0.02    -0.15   0.00  -0.11
  14   1    -0.07  -0.01  -0.00     0.00  -0.00  -0.01     0.04  -0.01  -0.06
  15   1    -0.03   0.10   0.13    -0.00   0.06   0.09    -0.00   0.51   0.79
