      -----------------------------------------------------------      
     |                   =====================                   |     
     |                           x T B                           |     
     |                   =====================                   |     
     |                         S. Grimme                         |     
     |          Mulliken Center for Theoretical Chemistry        |     
     |                    University of Bonn                     |     
      -----------------------------------------------------------      

   * xtb version 6.7.1 (edcfbbe) compiled by 'albert@albert-system' on 2024-07-22

   xtb is free software: you can redistribute it and/or modify it under
   the terms of the GNU Lesser General Public License as published by
   the Free Software Foundation, either version 3 of the License, or
   (at your option) any later version.
   
   xtb is distributed in the hope that it will be useful,
   but WITHOUT ANY WARRANTY; without even the implied warranty of
   MERCHANTABILITY or FITNESS FOR A PARTICULAR PURPOSE.  See the
   GNU Lesser General Public License for more details.
   
   Cite this work as:
   * C. Bannwarth, E. Caldeweyher, S. Ehlert, A. Hansen, P. Pracht,
     J. Seibert, S. Spicher, S. Grimme, WIREs Comput. Mol. Sci., 2020, 11,
     e01493. DOI: 10.1002/wcms.1493
   
   for GFN2-xTB:
   * C. Bannwarth, S. Ehlert and S. Grimme., J. Chem. Theory Comput., 2019,
     15, 1652-1671. DOI: 10.1021/acs.jctc.8b01176
   for GFN1-xTB:
   * S. Grimme, C. Bannwarth, P. Shushkov, J. Chem. Theory Comput., 2017,
     13, 1989-2009. DOI: 10.1021/acs.jctc.7b00118
   for GFN0-xTB:
   * P. Pracht, E. Caldeweyher, S. Ehlert, S. Grimme, ChemRxiv, 2019, preprint.
     DOI: 10.26434/chemrxiv.8326202.v1
   for GFN-FF:
   * S. Spicher and S. Grimme, Angew. Chem. Int. Ed., 2020, 59, 15665-15673.
     DOI: 10.1002/anie.202004239
   
   for ALPB and GBSA implicit solvation:
   * S. Ehlert, M. Stahn, S. Spicher, S. Grimme, J. Chem. Theory Comput.,
     2021, 17, 4250-4261. DOI: 10.1021/acs.jctc.1c00471
   
   for ddCOSMO and CPCM-X implicit solvation:
   * M. Stahn, S. Ehlert, S. Grimme, J. Phys. Chem. A,
     2023, XX, XXXX-XXXX. DOI: 10.1021/acs.jpca.3c04382
   
   for DFT-D4:
   * E. Caldeweyher, C. Bannwarth and S. Grimme, J. Chem. Phys., 2017,
     147, 034112. DOI: 10.1063/1.4993215
   * E. Caldeweyher, S. Ehlert, A. Hansen, H. Neugebauer, S. Spicher,
     C. Bannwarth and S. Grimme, J. Chem. Phys., 2019, 150, 154122.
     DOI: 10.1063/1.5090222
   * E. Caldeweyher, J.-M. Mewes, S. Ehlert and S. Grimme, Phys. Chem. Chem. Phys.
     2020, 22, 8499-8512. DOI: 10.1039/D0CP00502A
   
   for sTDA-xTB:
   * S. Grimme and C. Bannwarth, J. Chem. Phys., 2016, 145, 054103.
     DOI: 10.1063/1.4959605
   
   in the mass-spec context:
   * V. Asgeirsson, C. Bauer and S. Grimme, Chem. Sci., 2017, 8, 4879.
     DOI: 10.1039/c7sc00601b
   * J. Koopman and S. Grimme, ACS Omega 2019, 4, 12, 15120-15133.
     DOI: 10.1021/acsomega.9b02011
   
   for metadynamics refer to:
   * S. Grimme, J. Chem. Theory Comput., 2019, 155, 2847-2862
     DOI: 10.1021/acs.jctc.9b00143
   
   for SPH calculations refer to:
   * S. Spicher and S. Grimme, J. Chem. Theory Comput., 2021, 17, 1701-1714
     DOI: 10.1021/acs.jctc.0c01306
   
   for ONIOM refer to:
   * C. Plett, A. Katbashev, S. Ehlert, S. Grimme, M. Bursch,
     Phys. Chem. Chem. Phys., 2023, 25, 17860-17868. DOI: 10.1039/D3CP02178E
   
   for DIPRO refer to:
   * J. Kohn, N. Gildemeister, S. Grimme, D. Fazzi, A. Hansen,
     J. Chem. Phys., 2023, just accepted.
   
   for PTB refer to:
   * S. Grimme, M. Mueller, A. Hansen, J. Chem. Phys., 2023, 158, 124111.
     DOI: 10.1063/5.0137838
   
   with help from (in alphabetical order)
   P. Atkinson, C. Bannwarth, F. Bohle, G. Brandenburg, E. Caldeweyher
   M. Checinski, S. Dohm, S. Ehlert, S. Ehrlich, I. Gerasimov, C. Hölzer
   A. Katbashev, J. Kohn, J. Koopman, C. Lavigne, S. Lehtola, F. März, M. Müller,
   F. Musil, H. Neugebauer, J. Pisarek, C. Plett, P. Pracht, F. Pultar,
   J. Seibert, P. Shushkov, S. Spicher, M. Stahn, M. Steiner, T. Strunk,
   J. Stückrath, T. Rose, and J. Unsleber
   
 * started run on 2025/10/18 at 03:58:25.454     
   ID    Z sym.   atoms
    1    6 C      1, 2, 6, 9, 11
    2    1 H      3-5, 7, 8, 10, 13-15
    3    8 O      12

           -------------------------------------------------
          |                Calculation Setup                |
           -------------------------------------------------

          program call               : xtb xyz.xyz --charge -1 --ohess
          hostname                   : m003
          coordinate file            : xyz.xyz
          omp threads                :                     2


           -------------------------------------------------
          |                 G F N 2 - x T B                 |
           -------------------------------------------------

        Reference                      10.1021/acs.jctc.8b01176
      * Hamiltonian:
        H0-scaling (s, p, d)           1.850000    2.230000    2.230000
        zeta-weighting                 0.500000
      * Dispersion:
        s8                             2.700000
        a1                             0.520000
        a2                             5.000000
        s9                             5.000000
      * Repulsion:
        kExp                           1.500000    1.000000
        rExp                           1.000000
      * Coulomb:
        alpha                          2.000000
        third order                    shell-resolved
        anisotropic                    true
        a3                             3.000000
        a5                             4.000000
        cn-shift                       1.200000
        cn-exp                         4.000000
        max-rad                        5.000000


          ...................................................
          :                      SETUP                      :
          :.................................................:
          :  # basis functions                  33          :
          :  # atomic orbitals                  33          :
          :  # shells                           21          :
          :  # electrons                        36          :
          :  max. iterations                   250          :
          :  Hamiltonian                  GFN2-xTB          :
          :  restarted?                      false          :
          :  GBSA solvation                  false          :
          :  PC potential                    false          :
          :  electronic temp.          300.0000000     K    :
          :  accuracy                    1.0000000          :
          :  -> integral cutoff          0.2500000E+02      :
          :  -> integral neglect         0.1000000E-07      :
          :  -> SCF convergence          0.1000000E-05 Eh   :
          :  -> wf. convergence          0.1000000E-03 e    :
          :  Broyden damping             0.4000000          :
          :  net charge                         -1          :
          :  unpaired electrons                  0          :
          ...................................................

 iter      E             dE          RMSdq      gap      omega  full diag
   1    -19.6570473 -0.196570E+02  0.409E+00    4.42       0.0  T
   2    -19.7485181 -0.914708E-01  0.182E+00    3.78       1.0  T
   3    -19.7485912 -0.730941E-04  0.115E+00    4.13       1.0  T
   4    -19.7527984 -0.420719E-02  0.666E-01    3.81       1.0  T
   5    -19.7552680 -0.246956E-02  0.111E-01    3.89       1.0  T
   6    -19.7552682 -0.258072E-06  0.500E-02    3.90       1.0  T
   7    -19.7552800 -0.118163E-04  0.139E-02    3.90       1.9  T
   8    -19.7552805 -0.453404E-06  0.615E-03    3.90       4.2  T
   9    -19.7552808 -0.277721E-06  0.188E-03    3.90      13.7  T
  10    -19.7552808 -0.239342E-08  0.302E-04    3.90      85.4  T
  11    -19.7552808 -0.484839E-10  0.150E-04    3.90     172.2  T

   *** convergence criteria satisfied after 11 iterations ***

         #    Occupation            Energy/Eh            Energy/eV
      -------------------------------------------------------------
         1        2.0000           -0.4538845             -12.3508
       ...           ...                  ...                  ...
        12        2.0000           -0.2838876              -7.7250
        13        2.0000           -0.2622736              -7.1368
        14        2.0000           -0.2446166              -6.6564
        15        2.0000           -0.2258539              -6.1458
        16        2.0000           -0.2185094              -5.9459
        17        2.0000           -0.1280470              -3.4843
        18        2.0000           -0.0900449              -2.4502 (HOMO)
        19                          0.0531424               1.4461 (LUMO)
        20                          0.2806698               7.6374
        21                          0.2921851               7.9508
        22                          0.3030881               8.2474
        23                          0.3035104               8.2589
       ...                                ...                  ...
        33                          0.7888781              21.4665
      -------------------------------------------------------------
                  HL-Gap            0.1431874 Eh            3.8963 eV
             Fermi-level           -0.0184513 Eh           -0.5021 eV

 SCC (total)                   0 d,  0 h,  0 min,  0.030 sec
 SCC setup                      ...        0 min,  0.000 sec (  0.511%)
 Dispersion                     ...        0 min,  0.000 sec (  0.321%)
 classical contributions        ...        0 min,  0.000 sec (  0.085%)
 integral evaluation            ...        0 min,  0.001 sec (  2.873%)
 iterations                     ...        0 min,  0.027 sec ( 90.516%)
 molecular gradient             ...        0 min,  0.002 sec (  5.332%)
 printout                       ...        0 min,  0.000 sec (  0.284%)

         :::::::::::::::::::::::::::::::::::::::::::::::::::::
         ::                     SUMMARY                     ::
         :::::::::::::::::::::::::::::::::::::::::::::::::::::
         :: total energy             -19.509222346277 Eh    ::
         :: gradient norm              0.114132367152 Eh/a0 ::
         :: HOMO-LUMO gap              3.896326293334 eV    ::
         ::.................................................::
         :: SCC energy               -19.755269484739 Eh    ::
         :: -> isotropic ES            0.167482873666 Eh    ::
         :: -> anisotropic ES          0.017043071284 Eh    ::
         :: -> anisotropic XC          0.005042296514 Eh    ::
         :: -> dispersion             -0.009502269761 Eh    ::
         :: repulsion energy           0.246047138462 Eh    ::
         :: add. restraining           0.000000000000 Eh    ::
         :: total charge              -1.000000000000 e     ::
         :::::::::::::::::::::::::::::::::::::::::::::::::::::

      ----------------------------------------------------------- 
     |                   =====================                   |
     |                        A N C O P T                        |
     |                   =====================                   |
     |               Approximate Normal Coordinate               |
     |                Rational Function Optimizer                |
      ----------------------------------------------------------- 
      ----------------------------------------------------------- 
     |                   =====================                   |
     |                        A N C O P T                        |
     |                   =====================                   |
     |               Approximate Normal Coordinate               |
     |                Rational Function Optimizer                |
      ----------------------------------------------------------- 

          ...................................................
          :                      SETUP                      :
          :.................................................:
          :   optimization level            normal          :
          :   max. optcycles                   200          :
          :   ANC micro-cycles                  20          :
          :   degrees of freedom                39          :
          :.................................................:
          :   RF solver                   davidson          :
          :   write xtbopt.log                true          :
          :   linear?                        false          :
          :   energy convergence         0.5000000E-05 Eh   :
          :   grad. convergence          0.1000000E-02 Eh/α :
          :   maxmium RF displ.          1.0000000          :
          :   Hlow (freq-cutoff)         0.1000000E-01      :
          :   Hmax (freq-cutoff)         5.0000000          :
          :   S6 in model hess.         20.0000000          :
          ...................................................

generating ANC from exact Hessian ...
Using Lindh-Hessian (1995)
 Shifting diagonal of input Hessian by   7.492521795584640E-003
 Lowest  eigenvalues of input Hessian
    0.000000    0.000000    0.000000    0.000000    0.000000    0.000000
    0.010000    0.011315    0.014379    0.018722    0.022480    0.024033
    0.035227    0.047139    0.051727    0.058975    0.065900    0.072758
 Highest eigenvalues
    1.133111    1.154707    1.214931    1.299228    1.625366    2.010090
 

........................................................................
.............................. CYCLE    1 ..............................
........................................................................

 iter      E             dE          RMSdq      gap      omega  full diag
   1    -19.7552808 -0.197553E+02  0.444E-05    3.90       0.0  T
   2    -19.7552808 -0.262190E-11  0.285E-05    3.90     904.7  T
   3    -19.7552808 -0.107967E-10  0.136E-05    3.90    1895.3  T
     SCC iter.                  ...        0 min,  0.001 sec
     gradient                   ...        0 min,  0.001 sec
 * total energy  :   -19.5092223 Eh     change       -0.7434764E-10 Eh
   gradient norm :     0.1141300 Eh/α   predicted     0.0000000E+00 (-100.00%)
   displ. norm   :     0.2483082 α      lambda       -0.1401260E-01
   maximum displ.:     0.0865057 α      in ANC's #24, #7, #16, ...

........................................................................
.............................. CYCLE    2 ..............................
........................................................................

 iter      E             dE          RMSdq      gap      omega  full diag
   1    -19.7643705 -0.197644E+02  0.482E-01    4.19       0.0  T
   2    -19.7648158 -0.445208E-03  0.370E-01    4.27       1.0  T
   3    -19.7654897 -0.673905E-03  0.185E-01    4.21       1.0  T
   4    -19.7655229 -0.332822E-04  0.302E-02    4.23       1.0  T
   5    -19.7655326 -0.968455E-05  0.733E-03    4.22       3.5  T
   6    -19.7655327 -0.838034E-07  0.238E-03    4.22      10.8  T
   7    -19.7655327 -0.466563E-08  0.969E-04    4.22      26.7  T
   8    -19.7655327 -0.179988E-08  0.254E-04    4.22     101.6  T
     SCC iter.                  ...        0 min,  0.002 sec
     gradient                   ...        0 min,  0.001 sec
 * total energy  :   -19.5183598 Eh     change       -0.9137476E-02 Eh
   gradient norm :     0.0470590 Eh/α   predicted    -0.7438284E-02 ( -18.60%)
   displ. norm   :     0.1885136 α      lambda       -0.3322254E-02
   maximum displ.:     0.0866061 α      in ANC's #7, #1, #6, ...

........................................................................
.............................. CYCLE    3 ..............................
........................................................................

 iter      E             dE          RMSdq      gap      omega  full diag
   1    -19.7725656 -0.197726E+02  0.215E-01    4.49       0.0  T
   2    -19.7727058 -0.140199E-03  0.155E-01    4.50       1.0  T
   3    -19.7727870 -0.812060E-04  0.809E-02    4.49       1.0  T
   4    -19.7727916 -0.464171E-05  0.209E-02    4.50       1.2  T
   5    -19.7727960 -0.439736E-05  0.372E-03    4.49       6.9  T
   6    -19.7727961 -0.183447E-07  0.116E-03    4.49      22.2  T
   7    -19.7727961 -0.116288E-08  0.393E-04    4.49      65.7  T
   8    -19.7727961 -0.205343E-09  0.114E-04    4.49     227.0  T
     SCC iter.                  ...        0 min,  0.002 sec
     gradient                   ...        0 min,  0.001 sec
 * total energy  :   -19.5200594 Eh     change       -0.1699591E-02 Eh
   gradient norm :     0.0162632 Eh/α   predicted    -0.1720158E-02 (   1.21%)
   displ. norm   :     0.1348763 α      lambda       -0.4436547E-03
   maximum displ.:     0.1016442 α      in ANC's #1, #6, #4, ...

........................................................................
.............................. CYCLE    4 ..............................
........................................................................

 iter      E             dE          RMSdq      gap      omega  full diag
   1    -19.7726099 -0.197726E+02  0.557E-02    4.50       0.0  T
   2    -19.7726170 -0.718435E-05  0.343E-02    4.50       1.0  T
   3    -19.7726200 -0.295879E-05  0.213E-02    4.50       1.2  T
   4    -19.7726212 -0.125003E-05  0.416E-03    4.50       6.2  T
   5    -19.7726214 -0.150921E-06  0.117E-03    4.50      22.0  T
   6    -19.7726214 -0.207338E-08  0.439E-04    4.50      58.9  T
   7    -19.7726214 -0.245652E-09  0.155E-04    4.50     166.3  T
     SCC iter.                  ...        0 min,  0.002 sec
     gradient                   ...        0 min,  0.001 sec
 * total energy  :   -19.5203956 Eh     change       -0.3361492E-03 Eh
   gradient norm :     0.0107908 Eh/α   predicted    -0.2258624E-03 ( -32.81%)
   displ. norm   :     0.2268019 α      lambda       -0.4753948E-03
   maximum displ.:     0.1477349 α      in ANC's #1, #4, #6, ...

........................................................................
.............................. CYCLE    5 ..............................
........................................................................

 iter      E             dE          RMSdq      gap      omega  full diag
   1    -19.7724068 -0.197724E+02  0.974E-02    4.52       0.0  T
   2    -19.7724386 -0.318414E-04  0.647E-02    4.50       1.0  T
   3    -19.7724682 -0.295613E-04  0.323E-02    4.51       1.0  T
   4    -19.7724697 -0.149654E-05  0.738E-03    4.51       3.5  T
   5    -19.7724700 -0.293239E-06  0.216E-03    4.51      12.0  T
   6    -19.7724700 -0.911630E-08  0.657E-04    4.51      39.3  T
   7    -19.7724700 -0.600551E-09  0.289E-04    4.51      89.4  T
     SCC iter.                  ...        0 min,  0.002 sec
     gradient                   ...        0 min,  0.001 sec
 * total energy  :   -19.5207111 Eh     change       -0.3155699E-03 Eh
   gradient norm :     0.0046634 Eh/α   predicted    -0.2499258E-03 ( -20.80%)
   displ. norm   :     0.2025641 α      lambda       -0.2260320E-03
   maximum displ.:     0.1206413 α      in ANC's #4, #1, #6, ...

........................................................................
.............................. CYCLE    6 ..............................
........................................................................

 iter      E             dE          RMSdq      gap      omega  full diag
   1    -19.7725439 -0.197725E+02  0.661E-02    4.53       0.0  T
   2    -19.7725485 -0.456614E-05  0.397E-02    4.53       1.0  T
   3    -19.7725491 -0.543135E-06  0.257E-02    4.53       1.0  T
   4    -19.7725525 -0.340817E-05  0.351E-03    4.53       7.4  T
   5    -19.7725525 -0.627109E-07  0.142E-03    4.53      18.2  T
   6    -19.7725525 -0.314974E-08  0.417E-04    4.53      62.0  T
   7    -19.7725525 -0.124992E-09  0.158E-04    4.53     163.8  T
     SCC iter.                  ...        0 min,  0.002 sec
     gradient                   ...        0 min,  0.001 sec
 * total energy  :   -19.5208878 Eh     change       -0.1766734E-03 Eh
   gradient norm :     0.0066051 Eh/α   predicted    -0.1176529E-03 ( -33.41%)
   displ. norm   :     0.3342790 α      lambda       -0.3483575E-03
   maximum displ.:     0.2410533 α      in ANC's #4, #6, #1, ...

........................................................................
.............................. CYCLE    7 ..............................
........................................................................

 iter      E             dE          RMSdq      gap      omega  full diag
   1    -19.7716757 -0.197717E+02  0.111E-01    4.54       0.0  T
   2    -19.7716789 -0.317647E-05  0.649E-02    4.54       1.0  T
   3    -19.7716733  0.552003E-05  0.260E-02    4.54       1.0  T
   4    -19.7716805 -0.716418E-05  0.481E-03    4.54       5.4  T
   5    -19.7716806 -0.781634E-07  0.180E-03    4.54      14.3  T
   6    -19.7716806 -0.591661E-08  0.660E-04    4.54      39.1  T
   7    -19.7716806 -0.368154E-09  0.193E-04    4.54     134.0  T
     SCC iter.                  ...        0 min,  0.002 sec
     gradient                   ...        0 min,  0.001 sec
 * total energy  :   -19.5211453 Eh     change       -0.2574569E-03 Eh
   gradient norm :     0.0085907 Eh/α   predicted    -0.1936342E-03 ( -24.79%)
   displ. norm   :     0.3152969 α      lambda       -0.3730380E-03
   maximum displ.:     0.2584645 α      in ANC's #4, #6, #5, ...

........................................................................
.............................. CYCLE    8 ..............................
........................................................................

 iter      E             dE          RMSdq      gap      omega  full diag
   1    -19.7712788 -0.197713E+02  0.116E-01    4.53       0.0  T
   2    -19.7712830 -0.417752E-05  0.684E-02    4.53       1.0  T
   3    -19.7712771  0.583885E-05  0.271E-02    4.53       1.0  T
   4    -19.7712846 -0.742746E-05  0.442E-03    4.53       5.8  T
   5    -19.7712847 -0.107418E-06  0.221E-03    4.53      11.7  T
   6    -19.7712847 -0.744014E-08  0.668E-04    4.53      38.7  T
   7    -19.7712847 -0.808122E-09  0.265E-04    4.53      97.6  T
     SCC iter.                  ...        0 min,  0.002 sec
     gradient                   ...        0 min,  0.001 sec
 * total energy  :   -19.5214132 Eh     change       -0.2679613E-03 Eh
   gradient norm :     0.0101462 Eh/α   predicted    -0.2050617E-03 ( -23.47%)
   displ. norm   :     0.2505868 α      lambda       -0.5027883E-03
   maximum displ.:     0.2105544 α      in ANC's #4, #5, #6, ...

........................................................................
.............................. CYCLE    9 ..............................
........................................................................

 iter      E             dE          RMSdq      gap      omega  full diag
   1    -19.7745109 -0.197745E+02  0.110E-01    4.53       0.0  T
   2    -19.7745194 -0.844366E-05  0.662E-02    4.53       1.0  T
   3    -19.7745138  0.558551E-05  0.341E-02    4.52       1.0  T
   4    -19.7745223 -0.850396E-05  0.626E-03    4.53       4.1  T
   5    -19.7745227 -0.383983E-06  0.209E-03    4.52      12.3  T
   6    -19.7745227 -0.439580E-08  0.711E-04    4.52      36.3  T
   7    -19.7745227 -0.479773E-09  0.258E-04    4.52     100.1  T
     SCC iter.                  ...        0 min,  0.002 sec
     gradient                   ...        0 min,  0.001 sec
 * total energy  :   -19.5217498 Eh     change       -0.3365879E-03 Eh
   gradient norm :     0.0103709 Eh/α   predicted    -0.2671780E-03 ( -20.62%)
   displ. norm   :     0.3716477 α      lambda       -0.4354027E-03
   maximum displ.:     0.3339318 α      in ANC's #4, #6, #5, ...

........................................................................
.............................. CYCLE   10 ..............................
........................................................................

 iter      E             dE          RMSdq      gap      omega  full diag
   1    -19.7715587 -0.197716E+02  0.161E-01    4.49       0.0  T
   2    -19.7715730 -0.142801E-04  0.980E-02    4.50       1.0  T
   3    -19.7715581  0.149364E-04  0.593E-02    4.48       1.0  T
   4    -19.7715853 -0.272179E-04  0.586E-03    4.49       4.4  T
   5    -19.7715854 -0.162850E-06  0.301E-03    4.49       8.6  T
   6    -19.7715855 -0.871932E-08  0.819E-04    4.49      31.5  T
   7    -19.7715855 -0.103791E-08  0.333E-04    4.49      77.6  T
     SCC iter.                  ...        0 min,  0.002 sec
     gradient                   ...        0 min,  0.001 sec
 * total energy  :   -19.5219796 Eh     change       -0.2297775E-03 Eh
   gradient norm :     0.0165010 Eh/α   predicted    -0.2477799E-03 (   7.83%)
   displ. norm   :     0.2296995 α      lambda       -0.6179115E-03
   maximum displ.:     0.1528254 α      in ANC's #1, #4, #3, ...

........................................................................
.............................. CYCLE   11 ..............................
........................................................................

 iter      E             dE          RMSdq      gap      omega  full diag
   1    -19.7761569 -0.197762E+02  0.106E-01    4.52       0.0  T
   2    -19.7761669 -0.100028E-04  0.612E-02    4.51       1.0  T
   3    -19.7761621  0.479306E-05  0.297E-02    4.52       1.0  T
   4    -19.7761688 -0.674010E-05  0.650E-03    4.52       4.0  T
   5    -19.7761691 -0.306440E-06  0.223E-03    4.52      11.6  T
   6    -19.7761691 -0.944170E-08  0.667E-04    4.52      38.7  T
   7    -19.7761691 -0.942798E-09  0.255E-04    4.52     101.3  T
     SCC iter.                  ...        0 min,  0.002 sec
     gradient                   ...        0 min,  0.001 sec
 * total energy  :   -19.5222861 Eh     change       -0.3064856E-03 Eh
   gradient norm :     0.0107523 Eh/α   predicted    -0.3252578E-03 (   6.12%)
   displ. norm   :     0.2453184 α      lambda       -0.2981975E-03
   maximum displ.:     0.2026219 α      in ANC's #4, #1, #6, ...

........................................................................
.............................. CYCLE   12 ..............................
........................................................................

 iter      E             dE          RMSdq      gap      omega  full diag
   1    -19.7740140 -0.197740E+02  0.978E-02    4.52       0.0  T
   2    -19.7740154 -0.141083E-05  0.572E-02    4.52       1.0  T
   3    -19.7740156 -0.214497E-06  0.533E-03    4.52       4.8  T
   4    -19.7740158 -0.126048E-06  0.237E-03    4.52      10.9  T
   5    -19.7740158 -0.448665E-08  0.858E-04    4.52      30.1  T
   6    -19.7740158 -0.164563E-08  0.555E-04    4.52      46.5  T
     SCC iter.                  ...        0 min,  0.001 sec
     gradient                   ...        0 min,  0.001 sec
 * total energy  :   -19.5224881 Eh     change       -0.2020303E-03 Eh
   gradient norm :     0.0083007 Eh/α   predicted    -0.1580706E-03 ( -21.76%)
   displ. norm   :     0.1826370 α      lambda       -0.2349138E-03
   maximum displ.:     0.1225028 α      in ANC's #1, #4, #3, ...

........................................................................
.............................. CYCLE   13 ..............................
........................................................................

 iter      E             dE          RMSdq      gap      omega  full diag
   1    -19.7747646 -0.197748E+02  0.622E-02    4.55       0.0  T
   2    -19.7747671 -0.254942E-05  0.371E-02    4.55       1.0  T
   3    -19.7747654  0.175180E-05  0.172E-02    4.55       1.5  T
   4    -19.7747678 -0.242181E-05  0.366E-03    4.55       7.0  T
   5    -19.7747679 -0.132033E-06  0.989E-04    4.55      26.1  T
   6    -19.7747679 -0.461938E-09  0.284E-04    4.55      91.0  T
     SCC iter.                  ...        0 min,  0.001 sec
     gradient                   ...        0 min,  0.001 sec
 * total energy  :   -19.5226334 Eh     change       -0.1453307E-03 Eh
   gradient norm :     0.0072773 Eh/α   predicted    -0.1213754E-03 ( -16.48%)
   displ. norm   :     0.1255489 α      lambda       -0.1168730E-03
   maximum displ.:     0.0870682 α      in ANC's #1, #4, #3, ...

........................................................................
.............................. CYCLE   14 ..............................
........................................................................

 iter      E             dE          RMSdq      gap      omega  full diag
   1    -19.7749938 -0.197750E+02  0.494E-02    4.55       0.0  T
   2    -19.7749998 -0.592572E-05  0.322E-02    4.54       1.0  T
   3    -19.7750037 -0.392503E-05  0.183E-02    4.55       1.4  T
   4    -19.7750045 -0.771963E-06  0.344E-03    4.55       7.5  T
   5    -19.7750046 -0.938392E-07  0.882E-04    4.55      29.3  T
   6    -19.7750046 -0.130655E-08  0.393E-04    4.55      65.7  T
     SCC iter.                  ...        0 min,  0.001 sec
     gradient                   ...        0 min,  0.001 sec
 * total energy  :   -19.5227118 Eh     change       -0.7832418E-04 Eh
   gradient norm :     0.0037009 Eh/α   predicted    -0.5935755E-04 ( -24.22%)
   displ. norm   :     0.1607404 α      lambda       -0.8144867E-04
   maximum displ.:     0.0982362 α      in ANC's #1, #4, #3, ...

........................................................................
.............................. CYCLE   15 ..............................
........................................................................

 iter      E             dE          RMSdq      gap      omega  full diag
   1    -19.7747305 -0.197747E+02  0.530E-02    4.55       0.0  T
   2    -19.7747310 -0.479800E-06  0.318E-02    4.55       1.0  T
   3    -19.7747291  0.196612E-05  0.144E-02    4.55       1.8  T
   4    -19.7747315 -0.240852E-05  0.144E-03    4.55      17.9  T
   5    -19.7747315 -0.379270E-08  0.684E-04    4.55      37.7  T
   6    -19.7747315 -0.464098E-09  0.243E-04    4.55     106.3  T
     SCC iter.                  ...        0 min,  0.001 sec
     gradient                   ...        0 min,  0.001 sec
 * total energy  :   -19.5227556 Eh     change       -0.4379402E-04 Eh
   gradient norm :     0.0035778 Eh/α   predicted    -0.4177725E-04 (  -4.61%)
   displ. norm   :     0.0722791 α      lambda       -0.6456953E-04
   maximum displ.:     0.0503187 α      in ANC's #1, #3, #5, ...

........................................................................
.............................. CYCLE   16 ..............................
........................................................................

 iter      E             dE          RMSdq      gap      omega  full diag
   1    -19.7767859 -0.197768E+02  0.347E-02    4.57       0.0  T
   2    -19.7767868 -0.864566E-06  0.201E-02    4.57       1.3  T
   3    -19.7767867  0.412242E-07  0.556E-03    4.57       4.6  T
   4    -19.7767869 -0.154415E-06  0.181E-03    4.57      14.2  T
   5    -19.7767869 -0.193825E-07  0.102E-03    4.57      25.2  T
   6    -19.7767869 -0.309605E-08  0.242E-04    4.57     106.6  T
   7    -19.7767869 -0.207379E-09  0.737E-05    4.57     350.3  T
     SCC iter.                  ...        0 min,  0.002 sec
     gradient                   ...        0 min,  0.001 sec
 * total energy  :   -19.5227623 Eh     change       -0.6778652E-05 Eh
   gradient norm :     0.0037797 Eh/α   predicted    -0.3245385E-04 ( 378.77%)
   displ. norm   :     0.0559037 α      lambda       -0.4217597E-04
   maximum displ.:     0.0470752 α      in ANC's #4, #6, #5, ...

........................................................................
.............................. CYCLE   17 ..............................
........................................................................

 iter      E             dE          RMSdq      gap      omega  full diag
   1    -19.7753797 -0.197754E+02  0.304E-02    4.55       0.0  T
   2    -19.7753801 -0.470731E-06  0.177E-02    4.55       1.5  T
   3    -19.7753801  0.438959E-07  0.430E-03    4.55       6.0  T
   4    -19.7753802 -0.102131E-06  0.133E-03    4.55      19.5  T
   5    -19.7753802 -0.106678E-07  0.591E-04    4.55      43.7  T
   6    -19.7753802 -0.531180E-09  0.232E-04    4.55     111.2  T
     SCC iter.                  ...        0 min,  0.001 sec
     gradient                   ...        0 min,  0.001 sec
 * total energy  :   -19.5227834 Eh     change       -0.2111653E-04 Eh
   gradient norm :     0.0015416 Eh/α   predicted    -0.2115487E-04 (   0.18%)
   displ. norm   :     0.0285520 α      lambda       -0.7387678E-05
   maximum displ.:     0.0155980 α      in ANC's #4, #1, #2, ...

........................................................................
.............................. CYCLE   18 ..............................
........................................................................

 iter      E             dE          RMSdq      gap      omega  full diag
   1    -19.7762340 -0.197762E+02  0.198E-02    4.57       0.0  T
   2    -19.7762347 -0.651952E-06  0.136E-02    4.56       1.9  T
   3    -19.7762355 -0.810035E-06  0.750E-03    4.56       3.4  T
   4    -19.7762356 -0.128547E-06  0.687E-04    4.56      37.6  T
   5    -19.7762356 -0.104565E-08  0.356E-04    4.56      72.5  T
     SCC iter.                  ...        0 min,  0.001 sec
     gradient                   ...        0 min,  0.001 sec
 * total energy  :   -19.5227823 Eh     change        0.1144985E-05 Eh
   gradient norm :     0.0025528 Eh/α   predicted    -0.3693718E-05 (-422.60%)
   displ. norm   :     0.0189157 α      lambda       -0.8890751E-05
   maximum displ.:     0.0108375 α      in ANC's #4, #6, #5, ...

........................................................................
.............................. CYCLE   19 ..............................
........................................................................

 iter      E             dE          RMSdq      gap      omega  full diag
   1    -19.7760545 -0.197761E+02  0.148E-02    4.56       0.0  T
   2    -19.7760554 -0.886153E-06  0.111E-02    4.56       2.3  T
   3    -19.7760565 -0.112146E-05  0.419E-03    4.56       6.2  T
   4    -19.7760565 -0.823513E-08  0.103E-03    4.56      25.1  T
   5    -19.7760565 -0.376317E-08  0.306E-04    4.56      84.5  T
   6    -19.7760565 -0.277584E-09  0.899E-05    4.56     287.1  T
     SCC iter.                  ...        0 min,  0.001 sec
     gradient                   ...        0 min,  0.001 sec
 * total energy  :   -19.5227877 Eh     change       -0.5397642E-05 Eh
   gradient norm :     0.0008655 Eh/α   predicted    -0.4448251E-05 ( -17.59%)
   displ. norm   :     0.0329114 α      lambda       -0.4205359E-05
   maximum displ.:     0.0198675 α      in ANC's #6, #4, #3, ...

........................................................................
.............................. CYCLE   20 ..............................
........................................................................

 iter      E             dE          RMSdq      gap      omega  full diag
   1    -19.7758071 -0.197758E+02  0.145E-02    4.56       0.0  T
   2    -19.7758071 -0.580398E-07  0.856E-03    4.56       3.0  T
   3    -19.7758070  0.780165E-07  0.304E-03    4.56       8.5  T
   4    -19.7758071 -0.100395E-06  0.653E-04    4.56      39.6  T
   5    -19.7758071 -0.211914E-08  0.273E-04    4.56      94.7  T
     SCC iter.                  ...        0 min,  0.001 sec
     gradient                   ...        0 min,  0.001 sec
 * total energy  :   -19.5227882 Eh     change       -0.4887241E-06 Eh
   gradient norm :     0.0015008 Eh/α   predicted    -0.2103270E-05 ( 330.36%)
   displ. norm   :     0.0064506 α      lambda       -0.2640122E-05
   maximum displ.:     0.0036322 α      in ANC's #3, #1, #2, ...
 * RMSD in coord.:     0.6129703 α      energy gain  -0.1356584E-01 Eh

generating ANC from exact Hessian ...
Using Lindh-Hessian (1995)
 Shifting diagonal of input Hessian by   7.864564887935858E-003
 Lowest  eigenvalues of input Hessian
    0.000000    0.000000    0.000000    0.000000    0.000000    0.000000
    0.010000    0.011823    0.014824    0.019572    0.021899    0.025467
    0.035681    0.047532    0.052445    0.057519    0.061919    0.071732
 Highest eigenvalues
    1.144497    1.171930    1.207079    1.275750    1.646365    2.090065
 

........................................................................
.............................. CYCLE   21 ..............................
........................................................................

 iter      E             dE          RMSdq      gap      omega  full diag
   1    -19.7758529 -0.197759E+02  0.507E-03    4.56       0.0  T
   2    -19.7758529 -0.244387E-07  0.335E-03    4.56       7.7  T
   3    -19.7758529 -0.552268E-08  0.192E-03    4.56      13.5  T
   4    -19.7758529 -0.201298E-07  0.316E-04    4.56      81.8  T
   5    -19.7758529 -0.269669E-09  0.689E-05    4.56     374.7  T
     SCC iter.                  ...        0 min,  0.001 sec
     gradient                   ...        0 min,  0.001 sec
 * total energy  :   -19.5227903 Eh     change       -0.2139389E-05 Eh
   gradient norm :     0.0003911 Eh/α   predicted     0.0000000E+00 (-100.00%)
   displ. norm   :     0.0094404 α      lambda       -0.8430995E-06
   maximum displ.:     0.0064543 α      in ANC's #1, #2, #3, ...

   *** GEOMETRY OPTIMIZATION CONVERGED AFTER 21 ITERATIONS ***

------------------------------------------------------------------------
 total energy gain   :        -0.0135680 Eh       -8.5140 kcal/mol
 total RMSD          :         0.6129703 a0        0.3244 Å
 total power (kW/mol):        -1.6963208 (step) -420.3926 (real)
------------------------------------------------------------------------

 ANCopt (total)                0 d,  0 h,  0 min,  0.085 sec
 optimizer setup                ...        0 min,  0.000 sec (  0.437%)
 model hessian                  ...        0 min,  0.004 sec (  4.984%)
 ANC generation                 ...        0 min,  0.000 sec (  0.565%)
 coordinate transformation      ...        0 min,  0.000 sec (  0.153%)
 single point calculation       ...        0 min,  0.076 sec ( 89.169%)
 optimization log               ...        0 min,  0.001 sec (  1.274%)
 hessian update                 ...        0 min,  0.000 sec (  0.160%)
 rational function              ...        0 min,  0.002 sec (  2.427%)

================
 final structure:
================
15
 xtb: 6.7.1 (edcfbbe)
C           -4.88098805363207       -2.74001099859107        2.26019292187908
C           -6.05283238961360       -3.20772983556668        3.06918975325271
H           -4.73164901082215       -1.65024790083774        2.31867784712113
H           -3.93397250213977       -3.20707420084962        2.57290603869725
H           -5.06637045469771       -3.00361311608301        1.22051702386833
C           -7.12568384015264       -3.83459667579556        2.51389736281484
H           -6.01507053161057       -3.02162712125904        4.13897715925770
H           -8.21991703357290       -3.64617659037295        4.40780533614353
C           -8.23834228274227       -4.27133702294367        3.50903022458861
H           -9.20964299950630       -4.14625786648147        3.01968109079023
C           -8.05802309655414       -5.73602256143539        3.89392306473183
O           -7.30973493300592       -4.11612479643948        1.28989742383745
H           -7.10622852156615       -5.87201216036932        4.40649940948312
H           -8.86084732943695       -6.09034878442057        4.54932842762643
H           -8.04866902094683       -6.34628736855443        2.99279991590781
 
 Bond Distances (Angstroems)
 ---------------------------
C1-C2=1.4988         C1-H3=1.1015         C1-H4=1.1013         C1-H5=1.0885         C2-C1=1.4988         C2-C6=1.3610         
C2-H7=1.0865         H3-C1=1.1015         H4-C1=1.1013         H5-C1=1.0885         C6-C2=1.3610         C6-C9=1.5553         
C6-O12=1.2694        H7-C2=1.0865         H8-C9=1.0950         C9-C6=1.5553         C9-H8=1.0950         C9-H10=1.0948        
C9-C11=1.5251        H10-C9=1.0948        C11-C9=1.5251        C11-H13=1.0896       C11-H14=1.0953       C11-H15=1.0884       
O12-C6=1.2694        H13-C11=1.0896       H14-C11=1.0953       H15-C11=1.0884       
 C  H  Rav=1.0934 sigma=0.0052  Rmin=1.0865  Rmax=1.1015     9
 C  C  Rav=1.4851 sigma=0.0744  Rmin=1.3610  Rmax=1.5553     4
 O  C  Rav=1.2694 sigma=0.0000  Rmin=1.2694  Rmax=1.2694     1
 
 selected bond angles (degree)
 --------------------
H3-C1-C2=112.71                H4-C1-C2=112.75                H4-C1-H3=106.73                H5-C1-C2=107.87                
H5-C1-H3=108.26                H5-C1-H4=108.36                C6-C2-C1=122.67                H7-C2-C1=116.80                
H7-C2-C6=120.53                C9-C6-C2=115.61                O12-C6-C2=127.58               O12-C6-C9=116.80               
H8-C9-C6=110.66                H10-C9-C6=108.46               H10-C9-H8=108.46               C11-C9-C6=110.28               
C11-C9-H8=109.83               C11-C9-H10=109.11              
 
 selected dihedral angles (degree)
 ---------------------------------
C6-C2-C1-H3=118.94            C6-C2-C1-H4=239.87            C6-C2-C1-H5=359.48            H7-C2-C1-H3=299.10            
H7-C2-C1-H4= 60.03            H7-C2-C1-H5=179.64            C9-C6-C2-C1=179.01            C9-C6-C2-H7=358.84            
O12-C6-C2-C1=  0.05           O12-C6-C2-H7=179.88           H8-C9-C6-C2= 25.18            H8-C9-C6-O12=204.25           
H10-C9-C6-C2=144.03           H10-C9-C6-O12=323.11          C11-C9-C6-C2=263.46           C11-C9-C6-O12= 82.53          
           -------------------------------------------------
          |                Final Singlepoint                |
           -------------------------------------------------

          ...................................................
          :                      SETUP                      :
          :.................................................:
          :  # basis functions                  33          :
          :  # atomic orbitals                  33          :
          :  # shells                           21          :
          :  # electrons                        36          :
          :  max. iterations                   250          :
          :  Hamiltonian                  GFN2-xTB          :
          :  restarted?                      false          :
          :  GBSA solvation                  false          :
          :  PC potential                    false          :
          :  electronic temp.          300.0000000     K    :
          :  accuracy                    1.0000000          :
          :  -> integral cutoff          0.2500000E+02      :
          :  -> integral neglect         0.1000000E-07      :
          :  -> SCF convergence          0.1000000E-05 Eh   :
          :  -> wf. convergence          0.1000000E-03 e    :
          :  Broyden damping             0.4000000          :
          :  net charge                         -1          :
          :  unpaired electrons                  0          :
          ...................................................

 iter      E             dE          RMSdq      gap      omega  full diag
   1    -19.7758529 -0.197759E+02  0.274E-05    4.56       0.0  T
   2    -19.7758529 -0.101608E-11  0.138E-05    4.56    1871.0  T
   3    -19.7758529  0.174083E-12  0.934E-06    4.56    2764.4  T

   *** convergence criteria satisfied after 3 iterations ***

         #    Occupation            Energy/Eh            Energy/eV
      -------------------------------------------------------------
         1        2.0000           -0.4473339             -12.1726
       ...           ...                  ...                  ...
        12        2.0000           -0.2813475              -7.6559
        13        2.0000           -0.2601957              -7.0803
        14        2.0000           -0.2423376              -6.5943
        15        2.0000           -0.2265400              -6.1645
        16        2.0000           -0.2251153              -6.1257
        17        2.0000           -0.1304904              -3.5508
        18        2.0000           -0.1048862              -2.8541 (HOMO)
        19                          0.0626162               1.7039 (LUMO)
        20                          0.2646302               7.2010
        21                          0.3063205               8.3354
        22                          0.3076481               8.3715
        23                          0.3152551               8.5785
       ...                                ...                  ...
        33                          0.8439394              22.9648
      -------------------------------------------------------------
                  HL-Gap            0.1675025 Eh            4.5580 eV
             Fermi-level           -0.0211350 Eh           -0.5751 eV

 SCC (total)                   0 d,  0 h,  0 min,  0.003 sec
 SCC setup                      ...        0 min,  0.000 sec (  2.286%)
 Dispersion                     ...        0 min,  0.000 sec (  1.324%)
 classical contributions        ...        0 min,  0.000 sec (  0.363%)
 integral evaluation            ...        0 min,  0.001 sec ( 19.146%)
 iterations                     ...        0 min,  0.001 sec ( 24.931%)
 molecular gradient             ...        0 min,  0.001 sec ( 48.735%)
 printout                       ...        0 min,  0.000 sec (  2.514%)

         :::::::::::::::::::::::::::::::::::::::::::::::::::::
         ::                     SUMMARY                     ::
         :::::::::::::::::::::::::::::::::::::::::::::::::::::
         :: total energy             -19.522790330391 Eh    ::
         :: gradient norm              0.000390866909 Eh/a0 ::
         :: HOMO-LUMO gap              4.557974046628 eV    ::
         ::.................................................::
         :: SCC energy               -19.775842026379 Eh    ::
         :: -> isotropic ES            0.167822615590 Eh    ::
         :: -> anisotropic ES          0.017316993870 Eh    ::
         :: -> anisotropic XC          0.005559791223 Eh    ::
         :: -> dispersion             -0.009523154235 Eh    ::
         :: repulsion energy           0.253051695988 Eh    ::
         :: add. restraining           0.000000000000 Eh    ::
         :: total charge              -1.000000000000 e     ::
         :::::::::::::::::::::::::::::::::::::::::::::::::::::

           ------------------------------------------------- 
          |                Numerical Hessian                |
           ------------------------------------------------- 
step length          :   0.00500
SCC accuracy         :   0.30000
Hessian scale factor :   1.00000
frozen atoms in %    :   0.00000    0
RMS gradient         :   0.00039
estimated CPU  time      0.02 min
estimated wall time      0.01 min

writing file <hessian>.

 projected vibrational frequencies (cm⁻¹)
eigval :       -0.00    -0.00    -0.00    -0.00     0.00     0.00
eigval :       21.50   146.75   165.01   201.59   237.72   270.69
eigval :      409.64   545.42   598.01   678.06   811.78   822.82
eigval :      985.16  1028.00  1043.36  1053.16  1078.89  1106.05
eigval :     1202.80  1245.47  1291.17  1374.83  1388.90  1411.65
eigval :     1488.48  1503.74  1506.57  1516.80  1526.62  1699.43
eigval :     2796.87  2847.88  2913.32  2916.98  2939.57  2963.54
eigval :     3004.05  3016.89  3021.69
           -------------------------------------------------
          |                Property Printout                |
           -------------------------------------------------

    * Orbital Energies and Occupations

         #    Occupation            Energy/Eh            Energy/eV
      -------------------------------------------------------------
         1        2.0000           -0.4473339             -12.1726
       ...           ...                  ...                  ...
         6        2.0000           -0.3416155              -9.2958
         7        2.0000           -0.3369753              -9.1696
         8        2.0000           -0.3148238              -8.5668
         9        2.0000           -0.3050580              -8.3010
        10        2.0000           -0.3002204              -8.1694
        11        2.0000           -0.2941895              -8.0053
        12        2.0000           -0.2813475              -7.6559
        13        2.0000           -0.2601957              -7.0803
        14        2.0000           -0.2423376              -6.5943
        15        2.0000           -0.2265400              -6.1645
        16        2.0000           -0.2251153              -6.1257
        17        2.0000           -0.1304904              -3.5508
        18        2.0000           -0.1048862              -2.8541 (HOMO)
        19                          0.0626162               1.7039 (LUMO)
        20                          0.2646302               7.2010
        21                          0.3063205               8.3354
        22                          0.3076481               8.3715
        23                          0.3152551               8.5785
        24                          0.3354496               9.1280
        25                          0.3464031               9.4261
        26                          0.3594520               9.7812
        27                          0.3777996              10.2805
        28                          0.3954837              10.7617
        29                          0.4080040              11.1024
       ...                                ...                  ...
        33                          0.8439393              22.9648
      -------------------------------------------------------------
                  HL-Gap            0.1675024 Eh            4.5580 eV
             Fermi-level           -0.0211350 Eh           -0.5751 eV

     #   Z          covCN         q      C6AA      α(0)
     1   6 C        3.751    -0.059    21.692     6.642
     2   6 C        2.890    -0.179    32.677     9.372
     3   1 H        0.923    -0.036     3.769     3.036
     4   1 H        0.923    -0.036     3.760     3.033
     5   1 H        0.925     0.019     2.752     2.594
     6   6 C        2.813     0.158    24.573     8.122
     7   1 H        0.925    -0.074     4.735     3.403
     8   1 H        0.924    -0.023     3.480     2.918
     9   6 C        3.801    -0.063    21.718     6.635
    10   1 H        0.924    -0.003     3.114     2.759
    11   6 C        3.751    -0.076    22.007     6.690
    12   8 O        0.857    -0.647    27.312     7.007
    13   1 H        0.925     0.009     2.900     2.663
    14   1 H        0.924    -0.016     3.345     2.860
    15   1 H        0.925     0.025     2.655     2.548

 Mol. C6AA /au·bohr⁶  :       2143.959567
 Mol. C8AA /au·bohr⁸  :      45415.173096
 Mol. α(0) /au        :         70.281604


Wiberg/Mayer (AO) data.
largest (>0.10) Wiberg bond orders for each atom

 ---------------------------------------------------------------------------
     #   Z sym  total        # sym  WBO       # sym  WBO       # sym  WBO
 ---------------------------------------------------------------------------
     1   6 C    3.987 --     2 C    1.023     5 H    0.987     4 H    0.978
                             3 H    0.978
     2   6 C    3.846 --     6 C    1.584     1 C    1.023     7 H    0.968
                            12 O    0.237
     3   1 H    0.998 --     1 C    0.978
     4   1 H    0.999 --     1 C    0.978
     5   1 H    1.000 --     1 C    0.987
     6   6 C    3.967 --     2 C    1.584    12 O    1.414     9 C    0.926
     7   1 H    0.995 --     2 C    0.968
     8   1 H    0.999 --     9 C    0.980
     9   6 C    3.974 --    11 C    1.012     8 H    0.980    10 H    0.980
                             6 C    0.926
    10   1 H    1.000 --     9 C    0.980
    11   6 C    3.997 --     9 C    1.012    13 H    0.990    15 H    0.989
                            14 H    0.986
    12   8 O    1.747 --     6 C    1.414     2 C    0.237
    13   1 H    1.000 --    11 C    0.990
    14   1 H    0.999 --    11 C    0.986
    15   1 H    0.999 --    11 C    0.989
 ---------------------------------------------------------------------------

Topologies differ in total number of bonds
Writing topology from bond orders to xtbtopo.mol

molecular dipole:
                 x           y           z       tot (Debye)
 q only:       12.951       7.210      -4.081
   full:       12.996       7.229      -3.755      38.986
molecular quadrupole (traceless):
                xx          xy          yy          xz          yz          zz
 q only:     -134.334    -144.098      42.816      78.061      43.298      91.519
  q+dip:     -135.551    -143.726      40.861      71.681      39.877      94.690
   full:     -135.858    -144.102      41.303      71.417      39.569      94.555

           -------------------------------------------------
          |                Geometry Summary                 |
           -------------------------------------------------

      molecular mass/u    :       85.1245512
   center of mass at/Å    :       -6.9459396      -4.0037594       2.7444633
  moments of inertia/u·Å² :        0.7574192E+02   0.2326283E+03   0.2705996E+03
rotational constants/cm⁻¹ :        0.2225667E+00   0.7246596E-01   0.6229734E-01

 * 11 selected distances

     #   Z          #   Z                                           value/Å
     1   6 C        3   1 H                                       1.1015019
     1   6 C        4   1 H                                       1.1012612
     1   6 C        5   1 H                                       1.0884755
     2   6 C        6   6 C                                       1.3610005
     2   6 C        7   1 H                                       1.0865107 (min)
     8   1 H        9   6 C                                       1.0949712
     9   6 C       10   1 H                                       1.0947752
     9   6 C       11   6 C                                       1.5251104 (max)
    11   6 C       13   1 H                                       1.0895599
    11   6 C       14   1 H                                       1.0952763
    11   6 C       15   1 H                                       1.0883629

 * 2 distinct bonds (by element types)

   Z      Z             #   av. dist./Å        max./Å        min./Å
   1 H    6 C           9     1.0934105     1.1015019     1.0865107
   6 C    6 C           2     1.4430554     1.5251104     1.3610005

           -------------------------------------------------
          |               Frequency Printout                |
           -------------------------------------------------
 projected vibrational frequencies (cm⁻¹)
eigval :       -0.00    -0.00    -0.00    -0.00     0.00     0.00
eigval :       21.50   146.75   165.01   201.59   237.72   270.69
eigval :      409.64   545.42   598.01   678.06   811.78   822.82
eigval :      985.16  1028.00  1043.36  1053.16  1078.89  1106.05
eigval :     1202.80  1245.47  1291.17  1374.83  1388.90  1411.65
eigval :     1488.48  1503.74  1506.57  1516.80  1526.62  1699.43
eigval :     2796.87  2847.88  2913.32  2916.98  2939.57  2963.54
eigval :     3004.05  3016.89  3021.69
 reduced masses (amu)
   1: 11.59   2: 11.37   3: 10.35   4: 10.14   5: 11.20   6: 11.09   7:  9.31   8:  5.83
   9:  4.59  10:  3.43  11:  8.73  12:  9.66  13:  9.21  14:  9.44  15:  6.97  16:  7.39
  17:  2.95  18:  8.82  19:  6.02  20:  4.35  21:  4.38  22:  6.00  23:  8.18  24:  9.13
  25:  6.19  26:  3.56  27:  4.64  28:  4.24  29:  3.19  30:  7.62  31:  1.92  32:  1.64
  33:  1.58  34:  1.63  35:  1.82  36: 11.88  37:  1.91  38:  1.44  39:  1.76  40:  1.86
  41:  1.55  42:  1.77  43:  1.78  44:  1.69  45:  1.60
 IR intensities (km·mol⁻¹)
   1: 10.16   2:  5.35   3:  4.79   4:  2.63   5: 10.47   6:  9.69   7:  2.83   8:  2.23
   9:  0.41  10:  1.93  11: 10.13  12: 11.83  13:  3.87  14: 15.21  15:  9.79  16:  4.70
  17:  2.15  18: 22.68  19: 43.75  20:  1.18  21:  4.61  22: 18.29  23:  2.47  24: 17.00
  25: 67.94  26:  1.66  27:  2.31  28: 70.34  29: 10.56  30: 69.27  31:  4.30  32:  0.16
  33:  0.45  34:  1.06  35: 44.53  36:412.53  37:195.29  38:273.93  39:104.24  40:107.36
  41:113.81  42:211.28  43: 83.24  44: 44.66  45: 50.97
 Raman intensities (Ä⁴*amu⁻¹)
   1:  0.00   2:  0.00   3:  0.00   4:  0.00   5:  0.00   6:  0.00   7:  0.00   8:  0.00
   9:  0.00  10:  0.00  11:  0.00  12:  0.00  13:  0.00  14:  0.00  15:  0.00  16:  0.00
  17:  0.00  18:  0.00  19:  0.00  20:  0.00  21:  0.00  22:  0.00  23:  0.00  24:  0.00
  25:  0.00  26:  0.00  27:  0.00  28:  0.00  29:  0.00  30:  0.00  31:  0.00  32:  0.00
  33:  0.00  34:  0.00  35:  0.00  36:  0.00  37:  0.00  38:  0.00  39:  0.00  40:  0.00
  41:  0.00  42:  0.00  43:  0.00  44:  0.00  45:  0.00
 output can be read by thermo (or use thermo option).
 writing <g98.out> molden fake output.
 recommended (thermochemical) frequency scaling factor: 1.0
           -------------------------------------------------
          |             Thermodynamic Functions             |
           -------------------------------------------------

Refinement of some symmetry elements was terminated before convergence was reached.
Some symmetry elements may remain unidentified.
Molecule has no symmetry elements
It seems to be the C1 point group
c1  symmetry found (for desy threshold:  0.10E+00) used in thermo

          ...................................................
          :                      SETUP                      :
          :.................................................:
          :  # frequencies                          39      :
          :  # imaginary freq.                       0      :
          :  linear?                             false      :
          :  only rotor calc.                    false      :
          :  symmetry                               c1      :
          :  rotational number                       1      :
          :  scaling factor                  1.0000000      :
          :  rotor cutoff                   50.0000000 cm⁻¹ :
          :  imag. cutoff                  -20.0000000 cm⁻¹ :
          :.................................................:

    mode    ω/cm⁻¹     T·S(HO)/kcal·mol⁻¹    T·S(FR)/kcal·mol⁻¹   T·S(vib)
   ------------------------------------------------------------------------
       1     21.50    -1.93530 (  3.30%)    -1.30543 ( 96.70%)    -1.32624
       2    146.75    -0.80914 ( 98.67%)    -0.73740 (  1.33%)    -0.80819
       3    165.01    -0.74287 ( 99.16%)    -0.70269 (  0.84%)    -0.74253
       4    201.59    -0.63164 ( 99.62%)    -0.64340 (  0.38%)    -0.63168
       5    237.72    -0.54260 ( 99.80%)    -0.59458 (  0.20%)    -0.54271
       6    270.69    -0.47459 ( 99.88%)    -0.55611 (  0.12%)    -0.47468
   ------------------------------------------------------------------------

   temp. (K)  partition function   enthalpy   heat capacity  entropy
                                   cal/mol     cal/K/mol   cal/K/mol   J/K/mol
 298.15  VIB   178.                 3063.273     19.125     18.523
         ROT  0.167E+06              888.752      2.981     26.877
         INT  0.297E+08             3952.025     22.106     45.400
         TR   0.760E+27             1481.254      4.968     39.220
         TOT                        5433.2791    27.0742    84.6204   354.0519

       T/K    H(0)-H(T)+PV         H(T)/Eh          T*S/Eh         G(T)/Eh
   ------------------------------------------------------------------------
    298.15    0.865848E-02    0.133458E+00    0.402059E-01    0.932525E-01
   ------------------------------------------------------------------------

         :::::::::::::::::::::::::::::::::::::::::::::::::::::
         ::                  THERMODYNAMIC                  ::
         :::::::::::::::::::::::::::::::::::::::::::::::::::::
         :: total free energy         -19.429537849562 Eh   ::
         ::.................................................::
         :: total energy              -19.522790330392 Eh   ::
         :: zero point energy           0.124799899509 Eh   ::
         :: G(RRHO) w/o ZPVE           -0.031547418680 Eh   ::
         :: G(RRHO) contrib.            0.093252480829 Eh   ::
         :::::::::::::::::::::::::::::::::::::::::::::::::::::

optimized geometry written to: xtbopt.xyz


           -------------------------------------------------
          | TOTAL ENERGY              -19.522790330392 Eh   |
          | TOTAL ENTHALPY            -19.389331949471 Eh   |
          | TOTAL FREE ENERGY         -19.429537849562 Eh   |
          | GRADIENT NORM               0.000390691789 Eh/α |
          | HOMO-LUMO GAP               4.557971611145 eV   |
           -------------------------------------------------

------------------------------------------------------------------------
 * finished run on 2025/10/18 at 03:58:26.149     
------------------------------------------------------------------------
 total:
 * wall-time:     0 d,  0 h,  0 min,  0.694 sec
 *  cpu-time:     0 d,  0 h,  0 min,  1.002 sec
 * ratio c/w:     1.445 speedup
 SCF:
 * wall-time:     0 d,  0 h,  0 min,  0.030 sec
 *  cpu-time:     0 d,  0 h,  0 min,  0.039 sec
 * ratio c/w:     1.299 speedup
 ANC optimizer:
 * wall-time:     0 d,  0 h,  0 min,  0.123 sec
 *  cpu-time:     0 d,  0 h,  0 min,  0.211 sec
 * ratio c/w:     1.719 speedup
 analytical hessian:
 * wall-time:     0 d,  0 h,  0 min,  0.296 sec
 *  cpu-time:     0 d,  0 h,  0 min,  0.533 sec
 * ratio c/w:     1.799 speedup

