15
 energy: -19.509222346351 gnorm: 0.114129979085 xtb: 6.7.1 (edcfbbe)
C           -4.85196200000000       -2.75824100000000        2.22392800000000
C           -5.92088700000000       -3.38432500000000        3.05430100000000
H           -5.11375500000000       -1.72701900000000        1.96636000000000
H           -3.91519200000000       -2.73189300000000        2.79098400000000
H           -4.66163400000000       -3.32484400000000        1.30693400000000
C           -7.21495100000000       -3.76652200000000        2.56198400000000
H           -5.74138500000000       -3.49611300000000        4.11660500000000
H           -8.37028000000000       -3.63823900000000        4.34770500000000
C           -8.29802600000000       -4.28167600000000        3.46124700000000
H           -9.28245000000000       -4.23548400000000        2.97569200000000
C           -8.04770900000000       -5.71658200000000        3.91170700000000
O           -7.47095700000000       -3.57619800000000        1.35252600000000
H           -7.10900200000000       -5.80289100000000        4.46901400000000
H           -8.85770900000000       -6.05063200000000        4.56789800000000
H           -8.00207300000000       -6.39880800000000        3.05643800000000
15
 energy: -19.518359822474 gnorm: 0.047059435493 xtb: 6.7.1 (edcfbbe)
C           -4.87136903042228       -2.77382944912136        2.24302643407498
C           -5.95882727877293       -3.39376114087704        3.06723742516667
H           -5.10739047922221       -1.73974606750079        1.95548987831436
H           -3.92702925500550       -2.74944430358466        2.80001112627142
H           -4.69640065610979       -3.32548180180944        1.31409887812320
C           -7.20030560351036       -3.71922897613701        2.53811575310787
H           -5.77758096485381       -3.51099440606512        4.13293146324228
H           -8.35264980943433       -3.63687968762712        4.36717713731601
C           -8.27021491586498       -4.27144951806908        3.47368834241256
H           -9.23919737148744       -4.22788773180404        2.95888798156526
C           -8.03971803030588       -5.71416563716391        3.91921588553430
O           -7.48012074380967       -3.58857160429202        1.30453403032012
H           -7.09888131428556       -5.79708048900091        4.46298419067019
H           -8.84834659354229       -6.06361876421249        4.57143691595992
H           -7.98993995337297       -6.37732742273501        3.05448755792086
15
 energy: -19.520059413355 gnorm: 0.016263701223 xtb: 6.7.1 (edcfbbe)
C           -4.87982986610496       -2.78393795607605        2.25869327607666
C           -5.98981574041202       -3.39310290158381        3.06834047376249
H           -5.10152153066595       -1.74794491836715        1.95707567053791
H           -3.93526768892494       -2.76888860254460        2.81506697439802
H           -4.72205678025954       -3.34067819873730        1.32970572810493
C           -7.18345953605045       -3.72275782563200        2.51721826070841
H           -5.81731708844925       -3.49841712376077        4.13641253178310
H           -8.32673668218942       -3.63020699880843        4.37456367424025
C           -8.26251109712378       -4.26506569579584        3.48090664670336
H           -9.22525707536934       -4.20930922057898        2.95824093855503
C           -8.02374415323358       -5.70966104643704        3.91552871925146
O           -7.50251945432279       -3.60329996700458        1.28715503271826
H           -7.08001364298655       -5.79324273871798        4.45074303148341
H           -8.82859063185122       -6.06207422599250        4.56947998570711
H           -7.97933103205619       -6.36087957996296        3.04419205596957
15
 energy: -19.520395562594 gnorm: 0.010791495701 xtb: 6.7.1 (edcfbbe)
C           -4.87559993419137       -2.79143831231592        2.26324923537106
C           -6.00042784082678       -3.38184319264238        3.06923172653018
H           -5.08213181913750       -1.75114838723738        1.96661784157868
H           -3.93240630236203       -2.79436290832685        2.82050059584971
H           -4.73160790635597       -3.35215248045785        1.33461219536469
C           -7.19413974740235       -3.71058994682396        2.51160911705237
H           -5.83646304760434       -3.48231616630152        4.13822457682624
H           -8.33007627695995       -3.62803538290387        4.37507676229757
C           -8.27276293258327       -4.26251907543578        3.48202032684353
H           -9.23681198919786       -4.21193548328491        2.96553980652024
C           -8.01312406893632       -5.70458711422326        3.91058521148698
O           -7.51534190549805       -3.61805889160328        1.28151236614742
H           -7.06375422298257       -5.77825901038301        4.43834513146274
H           -8.80727957050526       -6.07128212622216        4.57027018279183
H           -7.96604443545636       -6.35093852183788        3.03592792387675
15
 energy: -19.520711132518 gnorm: 0.004663573572 xtb: 6.7.1 (edcfbbe)
C           -4.87187322871696       -2.80096146870031        2.26925777132333
C           -6.01785567635038       -3.36515480236044        3.06807080787141
H           -5.04332091756253       -1.75066779428762        1.98575124449580
H           -3.93174934685689       -2.84279985381961        2.82940355526299
H           -4.74764913332832       -3.36183102815861        1.33890002355706
C           -7.20683139243194       -3.70863581188743        2.49934755432347
H           -5.87520913650834       -3.44738260565109        4.14083584526735
H           -8.33044315683451       -3.62309602099858        4.37750813471527
C           -8.28654827370998       -4.25823782896711        3.48559195664020
H           -9.25441774718155       -4.21350216505771        2.98093131581528
C           -7.99850177973544       -5.69679733576631        3.90256590067956
O           -7.53169319954351       -3.64459832958010        1.27415841232945
H           -7.03865121635002       -5.75379777411130        4.41541530927983
H           -8.77376760519848       -6.08637082226882        4.57310554568024
H           -7.94946018969113       -6.33563335838494        3.02247962275873
15
 energy: -19.520887805898 gnorm: 0.006605608048 xtb: 6.7.1 (edcfbbe)
C           -4.87159783815894       -2.80813128597521        2.27329117045982
C           -6.03291958923745       -3.34965050677665        3.06566988399245
H           -5.00488188324459       -1.74637889347965        2.00762269943272
H           -3.93212290658752       -2.89167503036647        2.83308458767556
H           -4.76756141115237       -3.36064832226383        1.33595248205869
C           -7.21628555595011       -3.70705235778139        2.49343535421978
H           -5.90756007998941       -3.40982981264889        4.14207826709963
H           -8.33286210334315       -3.61992718410636        4.38166744484947
C           -8.29390155933343       -4.25453332408944        3.49012489718561
H           -9.26560797695666       -4.21527875769140        2.99292230924666
C           -7.98717849799899       -5.69126697987609        3.89657831102834
O           -7.53675532319172       -3.67597006168903        1.26823285549627
H           -7.02086105683961       -5.73831947651818        4.39841704577629
H           -8.74931751193914       -6.09727262233441        4.57274218823389
H           -7.93855870607689       -6.32353238440300        3.01150350324476
15
 energy: -19.521145262846 gnorm: 0.008594380581 xtb: 6.7.1 (edcfbbe)
C           -4.87396003340603       -2.81673120097167        2.27944718497920
C           -6.05343996318547       -3.32451056225331        3.06261746365971
H           -4.94240347976160       -1.73573265573072        2.05262745737180
H           -3.93258416454823       -2.97416270318698        2.82979630887802
H           -4.81044849959769       -3.34453086255577        1.32349963387147
C           -7.22600412924400       -3.71307019457894        2.48695081399475
H           -5.95407494691643       -3.33802788634532        4.14538175263428
H           -8.33254448313341       -3.61714810186136        4.38846734083281
C           -8.29984523804622       -4.25001158228437        3.49615160374840
H           -9.27817563599696       -4.21571472915840        3.00967120429363
C           -7.97365530638375       -5.68492819989813        3.88849625928798
O           -7.53312042360019       -3.73579418568237        1.25905989446432
H           -6.99936395403075       -5.72257887484075        4.37450824693538
H           -8.71914810706743       -6.10941581352078        4.57087192314343
H           -7.92920363508179       -6.30710944713112        2.99577591190476
15
 energy: -19.521413224153 gnorm: 0.010153756517 xtb: 6.7.1 (edcfbbe)
C           -4.87856423827454       -2.82123517892610        2.28409436617341
C           -6.06705416879247       -3.30110380580966        3.06184623074778
H           -4.88913145194076       -1.72644931801828        2.10092434867906
H           -3.93429215317863       -3.04610308425328        2.81349860930512
H           -4.85743157762378       -3.31423254516365        1.30636882457233
C           -7.22741649774516       -3.72601077091536        2.48677354523794
H           -5.98846332571930       -3.26246101741178        4.14860269222121
H           -8.32650693360252       -3.61686320887132        4.39471840277327
C           -8.29875991803273       -4.24740820327296        3.50050034993724
H           -9.28259662897880       -4.21192637327152        3.02185182246891
C           -7.96848435960248       -5.68314910539982        3.88228831779861
O           -7.51394620510846       -3.80013526981818        1.25442828555017
H           -6.98930603999035       -5.71987067575231        4.35614522718771
H           -8.70420393523235       -6.11524865191469        4.56778638672401
H           -7.93181456617763       -6.29726979120109        2.98349559062319
15
 energy: -19.521749812063 gnorm: 0.010372816102 xtb: 6.7.1 (edcfbbe)
C           -4.88439221749584       -2.81762373900037        2.28514612670351
C           -6.06940479173272       -3.28249078245851        3.06474248415968
H           -4.86093168560193       -1.72231197805837        2.13587394564419
H           -3.93847650477308       -3.08316307989110        2.78430813979886
H           -4.89536113271297       -3.27499331924451        1.29176428605080
C           -7.21702724512332       -3.74449860883568        2.49498259814273
H           -5.99825157190070       -3.20236086126203        4.14921326907715
H           -8.31285163499811       -3.62095436875372        4.39897111242388
C           -8.28862988540602       -4.24838434948137        3.50138458928452
H           -9.27495124877159       -4.20227324388237        3.02488899601411
C           -7.97644085900312       -5.68895273426374        3.88027808064892
O           -7.47896924503792       -3.85228969697347        1.25843794225962
H           -6.99676013579340       -5.73735250410865        4.34907069629837
H           -8.71416679663781       -6.11211192552649        4.56523063503371
H           -7.95135704501143       -6.29970580825961        2.97903009845991
15
 energy: -19.521979589596 gnorm: 0.016507265088 xtb: 6.7.1 (edcfbbe)
C           -4.88779210889578       -2.80694985290019        2.28677594817357
C           -6.07989376973878       -3.24462998356134        3.07114350279012
H           -4.80497717679788       -1.70295907130047        2.18949913250424
H           -3.93614462868125       -3.15230172730002        2.74233822109823
H           -4.96024447617611       -3.22269199049278        1.27339321577789
C           -7.20439862110843       -3.76287807789937        2.50059005643009
H           -6.01847564278374       -3.12287691996255        4.15051260728050
H           -8.29417576236700       -3.62632025464322        4.40114679510101
C           -8.27943666502859       -4.25123719024866        3.50072798187205
H           -9.26637763295592       -4.19229405139156        3.02619337556277
C           -7.98562682810316       -5.69839016674249        3.87866937658775
O           -7.43864946268825       -3.92788342759255        1.25854650501433
H           -7.00241100283888       -5.76012993993963        4.34005207115279
H           -8.72551688785460       -6.11134680015326        4.56782088276848
H           -7.97385133398158       -6.30657754587191        2.97591332788615
15
 energy: -19.522286075227 gnorm: 0.010753185274 xtb: 6.7.1 (edcfbbe)
C           -4.88598197169825       -2.78720353782374        2.28004864645799
C           -6.07389561580045       -3.22625734391862        3.07841440452454
H           -4.79944825003027       -1.69339671753443        2.19533025034623
H           -3.93608256494608       -3.14655402474307        2.70535693556699
H           -4.98059627950664       -3.18861255854431        1.27136513920693
C           -7.18193770894842       -3.77469525310069        2.50927884981659
H           -6.00544157747992       -3.10256414858965        4.14916515473447
H           -8.27239200256364       -3.63622582486367        4.39894375767367
C           -8.26582136850442       -4.25911243891564        3.49614623855786
H           -9.24716624428734       -4.18119307427566        3.01538798888771
C           -8.00714538622809       -5.71539085843028        3.88359124469260
O           -7.40521303385722       -3.94570412481955        1.26850773487793
H           -7.02670759835447       -5.80088036677219        4.35156095763426
H           -8.76411519526404       -6.10152744202144        4.57418653967127
H           -8.00602720253072       -6.33014928564708        2.98603915735093
15
 energy: -19.522488105543 gnorm: 0.008301049406 xtb: 6.7.1 (edcfbbe)
C           -4.88428681468455       -2.77605802402948        2.27496342012002
C           -6.07096876869954       -3.21257342844622        3.07874306629325
H           -4.77119197243833       -1.67998928612817        2.22932087249596
H           -3.93760278788487       -3.17726012252452        2.67363550062753
H           -5.01537539772299       -3.14435728772629        1.25518406914286
C           -7.16460986080312       -3.79098519277084        2.51063781615231
H           -6.01778773706527       -3.05259014617543        4.15284055227308
H           -8.25479744330491       -3.64186125253282        4.40175674923043
C           -8.25786500535358       -4.26298658001522        3.49827526006081
H           -9.23716650286044       -4.17267642846802        3.01762578231664
C           -8.01927565660151       -5.72404526414334        3.88329250200987
O           -7.37450553570298       -3.99256929129699        1.27176566232599
H           -7.04131364629141       -5.82510024217293        4.35396303666840
H           -8.78314060556665       -6.09647809134839        4.57497347052453
H           -8.02808426501984       -6.33993636222135        2.98634523975830
15
 energy: -19.522633436227 gnorm: 0.007281866528 xtb: 6.7.1 (edcfbbe)
C           -4.88146501879075       -2.76163834966002        2.26841674173330
C           -6.06238741403123       -3.21286435018615        3.07367283574166
H           -4.75664708111747       -1.66397664996489        2.25699732399862
H           -3.93896965755588       -3.18836070931852        2.64738154643840
H           -5.03233565352641       -3.09894261078515        1.24116366428140
C           -7.14953734327748       -3.80226731132098        2.51040269751289
H           -6.01667764524144       -3.04629430081786        4.14749035291979
H           -8.24675494883119       -3.64520297132391        4.40346436100337
C           -8.25293600565326       -4.26663432738886        3.50232934933231
H           -9.22824738245243       -4.16849756242265        3.01772350874830
C           -8.03161342547719       -5.72812952963607        3.88678432275020
O           -7.35124074874926       -4.02861002163510        1.27470648847261
H           -7.06126261424558       -5.84182073340003        4.36827214462394
H           -8.80543319324957       -6.08979469784031        4.57298609533214
H           -8.04246386780084       -6.34643287429949        2.99153156711108
15
 energy: -19.522711760403 gnorm: 0.003702492831 xtb: 6.7.1 (edcfbbe)
C           -4.87926647428418       -2.75184533463353        2.26516624640134
C           -6.05700577358019       -3.21017278694711        3.07305467372151
H           -4.75053382418861       -1.65668826276433        2.27215547085534
H           -3.93549438410024       -3.18947852479921        2.62396354991911
H           -5.04082903623191       -3.06922903513438        1.23548449572036
C           -7.13969302522444       -3.81351968711810        2.50983825625860
H           -6.01475041377211       -3.04162435179962        4.14648319407502
H           -8.23864465600629       -3.64675891010764        4.40464066476837
C           -8.24876263046584       -4.27003999671529        3.50535970961196
H           -9.22183545570936       -4.16212215923783        3.01762722149091
C           -8.04204536715362       -5.73141230555193        3.88992934008020
O           -7.33700503230904       -4.05448405781112        1.27822728479377
H           -7.07624143883125       -5.85510832198547        4.37819519239778
H           -8.82350068909065       -6.08860157333753        4.56978462096203
H           -8.05236379905224       -6.34838169205692        2.99341307894374
15
 energy: -19.522755554424 gnorm: 0.003590266579 xtb: 6.7.1 (edcfbbe)
C           -4.87928879588800       -2.74237725177707        2.26292608085340
C           -6.05305961837706       -3.20757835602530        3.07233557850818
H           -4.74084552951703       -1.64832175342242        2.29882645852725
H           -3.93078384552591       -3.19879109711510        2.59272319843670
H           -5.05827827302568       -3.03004236708120        1.22552867098308
C           -7.12983361271990       -3.82408549013919        2.51183325288844
H           -6.01214162682528       -3.03552432274163        4.14329678262207
H           -8.23038735263195       -3.64691248852149        4.40352794659510
C           -8.24298229508643       -4.27314429939113        3.50625376151426
H           -9.21348688296027       -4.15474843384941        3.01373858133584
C           -8.05309310285503       -5.73502997727256        3.89416442979894
O           -7.31813966976250       -4.08631434566361        1.28393896355351
H           -7.09299268611443       -5.86745476042257        4.39188698995362
H           -8.84457514450107       -6.08789123420979        4.56501075664240
H           -8.05808356420941       -6.35125082236754        2.99733154778727
15
 energy: -19.522762333075 gnorm: 0.003786238410 xtb: 6.7.1 (edcfbbe)
C           -4.88022589876649       -2.74014220670188        2.26131292763108
C           -6.04937267950744       -3.21558740647019        3.06990848382998
H           -4.74578637200318       -1.64885828502074        2.30653110296997
H           -3.93001970072911       -3.18939743526160        2.58015252929206
H           -5.05458800659082       -3.01557428559273        1.22456398757346
C           -7.12704754826176       -3.82900456291459        2.51244569733601
H           -6.00829764022395       -3.04126454784691        4.14192031701071
H           -8.22494362308641       -3.64441398437803        4.40484752346132
C           -8.24005794411170       -4.27272963554455        3.50820464584843
H           -9.20995604806600       -4.14851176654165        3.01471534172824
C           -8.05825720829730       -5.73505688891264        3.89558566162461
O           -7.31474999634464       -4.10026911262863        1.28746257746863
H           -7.10261780879224       -5.87125402745659        4.40105285662738
H           -8.85608267961616       -6.08864667420188        4.55801032850188
H           -8.05596884560276       -6.34875618052741        2.99660901909630
15
 energy: -19.522783449603 gnorm: 0.001545325363 xtb: 6.7.1 (edcfbbe)
C           -4.88112028959836       -2.73891151786390        2.26132258187850
C           -6.05104945256782       -3.21015017420687        3.07028299585353
H           -4.73731487145970       -1.64703833284294        2.31461152928982
H           -3.93159898975042       -3.19987927057569        2.57539989537348
H           -5.06348665902788       -3.00792326115902        1.22254173021388
C           -7.12511703286539       -3.83419778730182        2.51269758670354
H           -6.01155182709171       -3.02804803378380        4.14128019494069
H           -8.22071525350507       -3.64535680237239        4.40567154090355
C           -8.23848087212619       -4.27254385309322        3.50792468302475
H           -9.20918341733234       -4.14699333603898        3.01686443482665
C           -8.05911069354477       -5.73626445740001        3.89457847758156
O           -7.30961810005493       -4.11147832046977        1.28779366816845
H           -7.10355450655707       -5.87385163350585        4.39994970756125
H           -8.85764888225667       -6.08742859146393        4.55723723091217
H           -8.05842115226164       -6.34940162792183        2.99516674276823
15
 energy: -19.522782304618 gnorm: 0.002577296776 xtb: 6.7.1 (edcfbbe)
C           -4.88071436935022       -2.74052202727549        2.26149237357847
C           -6.05167152518078       -3.21122972954756        3.06977410598616
H           -4.73856441334134       -1.64925089939342        2.31371782870105
H           -3.93178796866662       -3.20132881977280        2.57934750556469
H           -5.06356364835364       -3.01046817624194        1.22148558243662
C           -7.12656934975101       -3.83252790881703        2.51273282209495
H           -6.01162268062214       -3.03197018889497        4.13988996477055
H           -8.22311006506617       -3.64626828298624        4.40461457804712
C           -8.23917381029069       -4.27205659810427        3.50641154229886
H           -9.21010854900993       -4.14975162277354        3.01640596015310
C           -8.05680123408580       -5.73532219104153        3.89454135762501
O           -7.31283504085578       -4.10355694822812        1.28849490606743
H           -7.10279717898204       -5.86945086883367        4.40281744112614
H           -8.85619547524802       -6.08672823033754        4.55562678550624
H           -8.05245669119580       -6.34903450775190        2.99597024604367
15
 energy: -19.522787702261 gnorm: 0.000872276295 xtb: 6.7.1 (edcfbbe)
C           -4.88077901398516       -2.74045053543851        2.26108399384775
C           -6.05230427990570       -3.20957805540385        3.06982727676458
H           -4.73634815093983       -1.64987499882559        2.31499709581301
H           -3.93242632604182       -3.20305430047929        2.57733463715283
H           -5.06461506607277       -3.00860605418674        1.22148538855096
C           -7.12633950566718       -3.83281253644451        2.51355380582303
H           -6.01307395076440       -3.02769895179995        4.13977448707005
H           -8.22195806757875       -3.64651505964201        4.40613108286399
C           -8.23877496977202       -4.27147208509633        3.50737288459546
H           -9.20993347095686       -4.14845195107196        3.01797170080813
C           -8.05709562416270       -5.73554378863022        3.89397801748785
O           -7.31137152632777       -4.10921266619645        1.28874019065553
H           -7.10360945661131       -5.87070831856243        4.40312515238857
H           -8.85740861574265       -6.08757989196127        4.55357027312740
H           -8.05193397547105       -6.34790780626088        2.99437701305090
15
 energy: -19.522788190985 gnorm: 0.001503128413 xtb: 6.7.1 (edcfbbe)
C           -4.88124733306002       -2.73967693189571        2.25994345209139
C           -6.05291446770775       -3.20796167087166        3.06884139658312
H           -4.73096442437588       -1.64902055415923        2.31906444630175
H           -3.93402275589229       -3.20664375191242        2.57247014661166
H           -5.06547386606374       -3.00366355148284        1.22136509948657
C           -7.12575286721111       -3.83512447322666        2.51358287616474
H           -6.01531283143030       -3.02122886743080        4.13894502810717
H           -8.21921599791411       -3.64629950558487        4.40766898817844
C           -8.23819823679781       -4.27157183235437        3.50886497777804
H           -9.20962732550190       -4.14593494731140        3.01977464611638
C           -8.05836695636197       -5.73621882657008        3.89405865895203
O           -7.30994686118039       -4.11677558151794        1.28978693854503
H           -7.10604949917704       -5.87268163040885        4.40556568549985
H           -8.86064262179833       -6.09003389261261        4.55037199584476
H           -8.05023595552733       -6.34663098266055        2.99301866373911
15
 energy: -19.522790330374 gnorm: 0.000391058907 xtb: 6.7.1 (edcfbbe)
C           -4.88098805363207       -2.74001099859107        2.26019292187908
C           -6.05283238961360       -3.20772983556668        3.06918975325271
H           -4.73164901082215       -1.65024790083774        2.31867784712113
H           -3.93397250213977       -3.20707420084962        2.57290603869725
H           -5.06637045469771       -3.00361311608301        1.22051702386833
C           -7.12568384015264       -3.83459667579556        2.51389736281484
H           -6.01507053161057       -3.02162712125904        4.13897715925770
H           -8.21991703357290       -3.64617659037295        4.40780533614353
C           -8.23834228274227       -4.27133702294367        3.50903022458861
H           -9.20964299950630       -4.14625786648147        3.01968109079023
C           -8.05802309655414       -5.73602256143539        3.89392306473183
O           -7.30973493300592       -4.11612479643948        1.28989742383745
H           -7.10622852156615       -5.87201216036932        4.40649940948312
H           -8.86084732943695       -6.09034878442057        4.54932842762643
H           -8.04866902094683       -6.34628736855443        2.99279991590781
