
                                 *****************
                                 * O   R   C   A *
                                 *****************

                                            #,                                       
                                            ###                                      
                                            ####                                     
                                            #####                                    
                                            ######                                   
                                           ########,                                 
                                     ,,################,,,,,                         
                               ,,#################################,,                 
                          ,,##########################################,,             
                       ,#########################################, ''#####,          
                    ,#############################################,,   '####,        
                  ,##################################################,,,,####,       
                ,###########''''           ''''###############################       
              ,#####''   ,,,,##########,,,,          '''####'''          '####       
            ,##' ,,,,###########################,,,                        '##       
           ' ,,###''''                  '''############,,,                           
         ,,##''                                '''############,,,,        ,,,,,,###''
      ,#''                                            '''#######################'''  
     '                                                          ''''####''''         
             ,#######,   #######,   ,#######,      ##                                
            ,#'     '#,  ##    ##  ,#'     '#,    #''#        ######   ,####,        
            ##       ##  ##   ,#'  ##            #'  '#       #        #'  '#        
            ##       ##  #######   ##           ,######,      #####,   #    #        
            '#,     ,#'  ##    ##  '#,     ,#' ,#      #,         ##   #,  ,#        
             '#######'   ##     ##  '#######'  #'      '#     #####' # '####'        



                  #######################################################
                  #                        -***-                        #
                  #          Department of theory and spectroscopy      #
                  #    Directorship and core code : Frank Neese         #
                  #        Max Planck Institute fuer Kohlenforschung    #
                  #                Kaiser Wilhelm Platz 1               #
                  #                 D-45470 Muelheim/Ruhr               #
                  #                      Germany                        #
                  #                                                     #
                  #                  All rights reserved                #
                  #                        -***-                        #
                  #######################################################


                         Program Version 5.0.4 -  RELEASE  -


 With contributions from (in alphabetic order):
   Daniel Aravena         : Magnetic Suceptibility
   Michael Atanasov       : Ab Initio Ligand Field Theory (pilot matlab implementation)
   Alexander A. Auer      : GIAO ZORA, VPT2 properties, NMR spectrum
   Ute Becker             : Parallelization
   Giovanni Bistoni       : ED, misc. LED, open-shell LED, HFLD
   Martin Brehm           : Molecular dynamics
   Dmytro Bykov           : SCF Hessian
   Vijay G. Chilkuri      : MRCI spin determinant printing, contributions to CSF-ICE
   Dipayan Datta          : RHF DLPNO-CCSD density
   Achintya Kumar Dutta   : EOM-CC, STEOM-CC
   Dmitry Ganyushin       : Spin-Orbit,Spin-Spin,Magnetic field MRCI
   Miquel Garcia          : C-PCM and meta-GGA Hessian, CC/C-PCM, Gaussian charge scheme
   Yang Guo               : DLPNO-NEVPT2, F12-NEVPT2, CIM, IAO-localization
   Andreas Hansen         : Spin unrestricted coupled pair/coupled cluster methods
   Benjamin Helmich-Paris : MC-RPA, TRAH-SCF, COSX integrals
   Lee Huntington         : MR-EOM, pCC
   Robert Izsak           : Overlap fitted RIJCOSX, COSX-SCS-MP3, EOM
   Marcus Kettner         : VPT2
   Christian Kollmar      : KDIIS, OOCD, Brueckner-CCSD(T), CCSD density, CASPT2, CASPT2-K
   Simone Kossmann        : Meta GGA functionals, TD-DFT gradient, OOMP2, MP2 Hessian
   Martin Krupicka        : Initial AUTO-CI
   Lucas Lang             : DCDCAS
   Marvin Lechner         : AUTO-CI (C++ implementation), FIC-MRCC
   Dagmar Lenk            : GEPOL surface, SMD
   Dimitrios Liakos       : Extrapolation schemes; Compound Job, initial MDCI parallelization
   Dimitrios Manganas     : Further ROCIS development; embedding schemes
   Dimitrios Pantazis     : SARC Basis sets
   Anastasios Papadopoulos: AUTO-CI, single reference methods and gradients
   Taras Petrenko         : DFT Hessian,TD-DFT gradient, ASA, ECA, R-Raman, ABS, FL, XAS/XES, NRVS
   Peter Pinski           : DLPNO-MP2, DLPNO-MP2 Gradient
   Christoph Reimann      : Effective Core Potentials
   Marius Retegan         : Local ZFS, SOC
   Christoph Riplinger    : Optimizer, TS searches, QM/MM, DLPNO-CCSD(T), (RO)-DLPNO pert. Triples
   Tobias Risthaus        : Range-separated hybrids, TD-DFT gradient, RPA, STAB
   Michael Roemelt        : Original ROCIS implementation
   Masaaki Saitow         : Open-shell DLPNO-CCSD energy and density
   Barbara Sandhoefer     : DKH picture change effects
   Avijit Sen             : IP-ROCIS
   Kantharuban Sivalingam : CASSCF convergence, NEVPT2, FIC-MRCI
   Bernardo de Souza      : ESD, SOC TD-DFT
   Georgi Stoychev        : AutoAux, RI-MP2 NMR, DLPNO-MP2 response
   Willem Van den Heuvel  : Paramagnetic NMR
   Boris Wezisla          : Elementary symmetry handling
   Frank Wennmohs         : Technical directorship


 We gratefully acknowledge several colleagues who have allowed us to
 interface, adapt or use parts of their codes:
   Stefan Grimme, W. Hujo, H. Kruse, P. Pracht,  : VdW corrections, initial TS optimization,
                  C. Bannwarth, S. Ehlert          DFT functionals, gCP, sTDA/sTD-DF
   Ed Valeev, F. Pavosevic, A. Kumar             : LibInt (2-el integral package), F12 methods
   Garnet Chan, S. Sharma, J. Yang, R. Olivares  : DMRG
   Ulf Ekstrom                                   : XCFun DFT Library
   Mihaly Kallay                                 : mrcc  (arbitrary order and MRCC methods)
   Jiri Pittner, Ondrej Demel                    : Mk-CCSD
   Frank Weinhold                                : gennbo (NPA and NBO analysis)
   Christopher J. Cramer and Donald G. Truhlar   : smd solvation model
   Lars Goerigk                                  : TD-DFT with DH, B97 family of functionals
   V. Asgeirsson, H. Jonsson                     : NEB implementation
   FAccTs GmbH                                   : IRC, NEB, NEB-TS, DLPNO-Multilevel, CI-OPT
                                                   MM, QMMM, 2- and 3-layer-ONIOM, Crystal-QMMM,
                                                   LR-CPCM, SF, NACMEs, symmetry and pop. for TD-DFT,
                                                   nearIR, NL-DFT gradient (VV10), updates on ESD,
                                                   ML-optimized integration grids
   S Lehtola, MJT Oliveira, MAL Marques          : LibXC Library
   Liviu Ungur et al                             : ANISO software


 Your calculation uses the libint2 library for the computation of 2-el integrals
 For citations please refer to: http://libint.valeyev.net

 Your ORCA version has been built with support for libXC version: 5.1.0
 For citations please refer to: https://tddft.org/programs/libxc/

 This ORCA versions uses:
   CBLAS   interface :  Fast vector & matrix operations
   LAPACKE interface :  Fast linear algebra routines
   SCALAPACK package :  Parallel linear algebra routines
   Shared memory     :  Shared parallel matrices
   BLAS/LAPACK       :  OpenBLAS 0.3.15  USE64BITINT DYNAMIC_ARCH NO_AFFINITY Haswell SINGLE_THREADED
        Core in use  :  Haswell
   Copyright (c) 2011-2014, The OpenBLAS Project


================================================================================

----- Orbital basis set information -----
Your calculation utilizes the basis: def2-TZVP
   F. Weigend and R. Ahlrichs, Phys. Chem. Chem. Phys. 7, 3297 (2005).

----- AuxJ basis set information -----
Your calculation utilizes the auxiliary basis: def2/J
   F. Weigend, Phys. Chem. Chem. Phys. 8, 1057 (2006).

================================================================================
                                        WARNINGS
                       Please study these warnings very carefully!
================================================================================


WARNING: Geometry Optimization
  ===> : Switching off AutoStart
         For restart on a previous wavefunction, please use MOREAD

INFO   : the flag for use of the SHARK integral package has been found!

================================================================================
                                       INPUT FILE
================================================================================
NAME = inp.inp
|  1> !OPT PBE def2-TZVP CPCM(water)
|  2> 
|  3> *xyz -1 1
|  4> C     -4.201054   -4.134837   -3.290092
|  5> C     -2.903445   -4.645638   -3.215752
|  6> H     -3.776010   -1.282679   -1.500208
|  7> C     -4.532245   -2.926779   -2.657985
|  8> H     -4.967911   -4.660161   -3.852502
|  9> C     -1.919176   -3.951363   -2.513110
| 10> H     -2.665768   -5.578049   -3.716508
| 11> C     -2.230246   -2.742696   -1.890706
| 12> H     -0.908796   -4.343224   -2.463174
| 13> C     -3.528531   -2.234156   -1.963751
| 14> H     -1.466768   -2.186415   -1.358065
| 15> C     -5.961328   -2.380223   -2.716904
| 16> H     -6.612421   -3.269713   -2.747116
| 17> H     -6.171554   -2.028413   -1.692988
| 18> O     -6.025030   -1.513925   -3.716313
| 19> *
| 20> 
| 21>                          ****END OF INPUT****
================================================================================

                       *****************************
                       * Geometry Optimization Run *
                       *****************************

Geometry optimization settings:
Update method            Update   .... BFGS
Choice of coordinates    CoordSys .... Z-matrix Internals
Initial Hessian          InHess   .... Almoef's Model

Convergence Tolerances:
Energy Change            TolE     ....  5.0000e-06 Eh
Max. Gradient            TolMAXG  ....  3.0000e-04 Eh/bohr
RMS Gradient             TolRMSG  ....  1.0000e-04 Eh/bohr
Max. Displacement        TolMAXD  ....  4.0000e-03 bohr
RMS Displacement         TolRMSD  ....  2.0000e-03 bohr
Strict Convergence                ....  False
------------------------------------------------------------------------------
                        ORCA OPTIMIZATION COORDINATE SETUP
------------------------------------------------------------------------------

The optimization will be done in new redundant internal coordinates
Making redundant internal coordinates   ...  (new redundants) done
Evaluating the initial hessian          ...  (Almloef) done
Evaluating the coordinates              ...  done
Calculating the B-matrix                .... done
Calculating the G-matrix                .... done
Diagonalizing the G-matrix              .... done
The first mode is                       ....   30
The number of degrees of freedom        ....   39

    -----------------------------------------------------------------
                    Redundant Internal Coordinates


    -----------------------------------------------------------------
         Definition                    Initial Value    Approx d2E/dq
    -----------------------------------------------------------------
      1. B(C   1,C   0)                  1.3965         0.610037   
      2. B(C   3,C   0)                  1.4031         0.595471   
      3. B(H   4,C   0)                  1.0864         0.364848   
      4. B(C   5,C   1)                  1.3945         0.614651   
      5. B(H   6,C   1)                  1.0847         0.367141   
      6. B(C   7,C   5)                  1.3946         0.614231   
      7. B(H   8,C   5)                  1.0849         0.366967   
      8. B(C   9,C   7)                  1.3962         0.610632   
      9. B(C   9,C   3)                  1.4033         0.595098   
     10. B(C   9,H   2)                  1.0869         0.364178   
     11. B(H  10,C   7)                  1.0845         0.367504   
     12. B(C  11,C   3)                  1.5312         0.371976   
     13. B(H  12,C  11)                  1.1027         0.343640   
     14. B(H  13,C  11)                  1.1029         0.343444   
     15. B(O  14,C  11)                  1.3241         0.712771   
     16. A(C   3,C   0,H   4)          118.8765         0.351285   
     17. A(C   1,C   0,H   4)          120.4347         0.352724   
     18. A(C   1,C   0,C   3)          120.6821         0.429676   
     19. A(C   0,C   1,C   5)          120.0377         0.432129   
     20. A(C   0,C   1,H   6)          119.5662         0.353098   
     21. A(C   5,C   1,H   6)          120.3927         0.353549   
     22. A(C   9,C   3,C  11)          120.6930         0.393547   
     23. A(C   0,C   3,C   9)          118.6214         0.427770   
     24. A(C   0,C   3,C  11)          120.6844         0.393590   
     25. A(C   1,C   5,C   7)          119.9291         0.432662   
     26. A(C   7,C   5,H   8)          120.0155         0.353480   
     27. A(C   1,C   5,H   8)          120.0490         0.353520   
     28. A(C   5,C   7,H  10)          120.4456         0.353567   
     29. A(C   5,C   7,C   9)          119.9803         0.432152   
     30. A(C   9,C   7,H  10)          119.5702         0.353215   
     31. A(C   3,C   9,C   7)          120.7439         0.429703   
     32. A(H   2,C   9,C   7)          120.5460         0.352672   
     33. A(H   2,C   9,C   3)          118.6985         0.351139   
     34. A(H  13,C  11,O  14)          118.8717         0.356250   
     35. A(H  12,C  11,O  14)          118.5963         0.356284   
     36. A(C   3,C  11,O  14)          107.9071         0.403631   
     37. A(H  12,C  11,H  13)           99.7991         0.286584   
     38. A(C   3,C  11,H  13)          104.8355         0.321584   
     39. A(C   3,C  11,H  12)          105.3193         0.321614   
     40. D(C   5,C   1,C   0,C   3)     -0.2864         0.025702   
     41. D(H   6,C   1,C   0,C   3)   -179.6178         0.025702   
     42. D(C   5,C   1,C   0,H   4)    178.7629         0.025702   
     43. D(H   6,C   1,C   0,H   4)     -0.5685         0.025702   
     44. D(C  11,C   3,C   0,C   1)   -178.8221         0.024425   
     45. D(C   9,C   3,C   0,C   1)      0.7882         0.024425   
     46. D(C   9,C   3,C   0,H   4)   -178.2757         0.024425   
     47. D(C  11,C   3,C   0,H   4)      2.1140         0.024425   
     48. D(H   8,C   5,C   1,H   6)     -0.0921         0.026115   
     49. D(H   8,C   5,C   1,C   0)   -179.4179         0.026115   
     50. D(C   7,C   5,C   1,H   6)    178.9822         0.026115   
     51. D(C   7,C   5,C   1,C   0)     -0.3437         0.026115   
     52. D(C   9,C   7,C   5,H   8)    179.5300         0.026078   
     53. D(C   9,C   7,C   5,C   1)      0.4555         0.026078   
     54. D(H  10,C   7,C   5,C   1)   -178.8306         0.026078   
     55. D(H  10,C   7,C   5,H   8)      0.2439         0.026078   
     56. D(C   3,C   9,C   7,H  10)    179.3532         0.025755   
     57. D(H   2,C   9,C   7,H  10)      0.6071         0.025755   
     58. D(H   2,C   9,C   7,C   5)   -178.6853         0.025755   
     59. D(C   7,C   9,C   3,C  11)    178.9345         0.024392   
     60. D(C   7,C   9,C   3,C   0)     -0.6758         0.024392   
     61. D(C   3,C   9,C   7,C   5)      0.0608         0.025755   
     62. D(H   2,C   9,C   3,C  11)     -2.2967         0.024392   
     63. D(H   2,C   9,C   3,C   0)    178.0931         0.024392   
     64. D(O  14,C  11,C   3,C   9)     84.9483         0.010354   
     65. D(O  14,C  11,C   3,C   0)    -95.4495         0.010354   
     66. D(H  13,C  11,C   3,C   9)    -42.6788         0.010354   
     67. D(H  13,C  11,C   3,C   0)    136.9234         0.010354   
     68. D(H  12,C  11,C   3,C   9)   -147.4587         0.010354   
     69. D(H  12,C  11,C   3,C   0)     32.1435         0.010354   
    -----------------------------------------------------------------

Number of atoms                         .... 15
Number of degrees of freedom            .... 69

         *************************************************************
         *                GEOMETRY OPTIMIZATION CYCLE   1            *
         *************************************************************
---------------------------------
CARTESIAN COORDINATES (ANGSTROEM)
---------------------------------
  C     -4.201054   -4.134837   -3.290092
  C     -2.903445   -4.645638   -3.215752
  H     -3.776010   -1.282679   -1.500208
  C     -4.532245   -2.926779   -2.657985
  H     -4.967911   -4.660161   -3.852502
  C     -1.919176   -3.951363   -2.513110
  H     -2.665768   -5.578049   -3.716508
  C     -2.230246   -2.742696   -1.890706
  H     -0.908796   -4.343224   -2.463174
  C     -3.528531   -2.234156   -1.963751
  H     -1.466768   -2.186415   -1.358065
  C     -5.961328   -2.380223   -2.716904
  H     -6.612421   -3.269713   -2.747116
  H     -6.171554   -2.028413   -1.692988
  O     -6.025030   -1.513925   -3.716313

----------------------------
CARTESIAN COORDINATES (A.U.)
----------------------------
  NO LB      ZA    FRAG     MASS         X           Y           Z
   0 C     6.0000    0    12.011   -7.938842   -7.813710   -6.217373
   1 C     6.0000    0    12.011   -5.486716   -8.778984   -6.076891
   2 H     1.0000    0     1.008   -7.135625   -2.423912   -2.834982
   3 C     6.0000    0    12.011   -8.564702   -5.530811   -5.022864
   4 H     1.0000    0     1.008   -9.387991   -8.806428   -7.280174
   5 C     6.0000    0    12.011   -3.626717   -7.466994   -4.749090
   6 H     1.0000    0     1.008   -5.037571  -10.540985   -7.023182
   7 C     6.0000    0    12.011   -4.214554   -5.182944   -3.572917
   8 H     1.0000    0     1.008   -1.717376   -8.207504   -4.654724
   9 C     6.0000    0    12.011   -6.667957   -4.221943   -3.710952
  10 H     1.0000    0     1.008   -2.771790   -4.131726   -2.566371
  11 C     6.0000    0    12.011  -11.265277   -4.497970   -5.134204
  12 H     1.0000    0     1.008  -12.495665   -6.178862   -5.191297
  13 H     1.0000    0     1.008  -11.662547   -3.833145   -3.199284
  14 O     8.0000    0    15.999  -11.385657   -2.860904   -7.022814

--------------------------------
INTERNAL COORDINATES (ANGSTROEM)
--------------------------------
 C      0   0   0     0.000000000000     0.00000000     0.00000000
 C      1   0   0     1.396507505917     0.00000000     0.00000000
 H      1   2   0     3.393987683000    99.37749720     0.00000000
 C      1   2   3     1.403086194535   120.68213470   359.16683504
 H      1   2   3     1.086434522429   120.43470830   178.21614924
 C      2   1   3     1.394456532184   120.03771289     0.54676042
 H      2   1   3     1.084729090965   119.56620524   181.21533819
 C      6   2   1     1.394642320097   119.92905679   359.65632182
 H      6   2   1     1.084857774926   120.04899545   180.58206600
 C      3   1   2     1.086934427562    21.24806115   357.35950362
 H      8   6   2     1.084460069494   120.44563013   181.16937578
 C      4   1   2     1.531167244486   120.68442708   181.17791423
 H     12   4   1     1.102736287465   105.31925164    32.14350650
 H     12   4   1     1.102891301186   104.83552023   136.92338683
 O     12   4   1     1.324140671866   107.90713770   264.55048424

---------------------------
INTERNAL COORDINATES (A.U.)
---------------------------
 C      0   0   0     0.000000000000     0.00000000     0.00000000
 C      1   0   0     2.639016730148     0.00000000     0.00000000
 H      1   2   0     6.413707222772    99.37749720     0.00000000
 C      1   2   3     2.651448649956   120.68213470   359.16683504
 H      1   2   3     2.053063709828   120.43470830   178.21614924
 C      2   1   3     2.635140951485   120.03771289     0.54676042
 H      2   1   3     2.049840911421   119.56620524   181.21533819
 C      6   2   1     2.635492039760   119.92905679   359.65632182
 H      6   2   1     2.050084088865   120.04899545   180.58206600
 C      3   1   2     2.054008393622    21.24806115   357.35950362
 H      8   6   2     2.049332534516   120.44563013   181.16937578
 C      4   1   2     2.893486757309   120.68442708   181.17791423
 H     12   4   1     2.083869581247   105.31925164    32.14350650
 H     12   4   1     2.084162514726   104.83552023   136.92338683
 O     12   4   1     2.502263232613   107.90713770   264.55048424

---------------------
BASIS SET INFORMATION
---------------------
There are 3 groups of distinct atoms

 Group   1 Type C   : 11s6p2d1f contracted to 5s3p2d1f pattern {62111/411/11/1}
 Group   2 Type H   : 5s1p contracted to 3s1p pattern {311/1}
 Group   3 Type O   : 11s6p2d1f contracted to 5s3p2d1f pattern {62111/411/11/1}

Atom   0C    basis set group =>   1
Atom   1C    basis set group =>   1
Atom   2H    basis set group =>   2
Atom   3C    basis set group =>   1
Atom   4H    basis set group =>   2
Atom   5C    basis set group =>   1
Atom   6H    basis set group =>   2
Atom   7C    basis set group =>   1
Atom   8H    basis set group =>   2
Atom   9C    basis set group =>   1
Atom  10H    basis set group =>   2
Atom  11C    basis set group =>   1
Atom  12H    basis set group =>   2
Atom  13H    basis set group =>   2
Atom  14O    basis set group =>   3
---------------------------------
AUXILIARY/J BASIS SET INFORMATION
---------------------------------
There are 3 groups of distinct atoms

 Group   1 Type C   : 12s5p4d2f1g contracted to 6s4p3d1f1g pattern {711111/2111/211/2/1}
 Group   2 Type H   : 5s2p1d contracted to 3s1p1d pattern {311/2/1}
 Group   3 Type O   : 12s5p4d2f1g contracted to 6s4p3d1f1g pattern {711111/2111/211/2/1}

Atom   0C    basis set group =>   1
Atom   1C    basis set group =>   1
Atom   2H    basis set group =>   2
Atom   3C    basis set group =>   1
Atom   4H    basis set group =>   2
Atom   5C    basis set group =>   1
Atom   6H    basis set group =>   2
Atom   7C    basis set group =>   1
Atom   8H    basis set group =>   2
Atom   9C    basis set group =>   1
Atom  10H    basis set group =>   2
Atom  11C    basis set group =>   1
Atom  12H    basis set group =>   2
Atom  13H    basis set group =>   2
Atom  14O    basis set group =>   3
------------------------------------------------------------------------------
                           ORCA GTO INTEGRAL CALCULATION
                           -- RI-GTO INTEGRALS CHOSEN --
------------------------------------------------------------------------------
------------------------------------------------------------------------------
                   ___                                                        
                  /   \      - P O W E R E D   B Y -                         
                 /     \                                                     
                 |  |  |   _    _      __       _____    __    __             
                 |  |  |  | |  | |    /  \     |  _  \  |  |  /  |          
                  \  \/   | |  | |   /    \    | | | |  |  | /  /          
                 / \  \   | |__| |  /  /\  \   | |_| |  |  |/  /          
                |  |  |   |  __  | /  /__\  \  |    /   |      \           
                |  |  |   | |  | | |   __   |  |    \   |  |\   \          
                \     /   | |  | | |  |  |  |  | |\  \  |  | \   \       
                 \___/    |_|  |_| |__|  |__|  |_| \__\ |__|  \__/        
                                                                              
                      - O R C A' S   B I G   F R I E N D -                    
                                      &                                       
                       - I N T E G R A L  F E E D E R -                       
                                                                              
 v1 FN, 2020, v2 2021                                                         
------------------------------------------------------------------------------


Reading SHARK input file inp.SHARKINP.tmp ... ok
----------------------
SHARK INTEGRAL PACKAGE
----------------------

Number of atoms                             ...     15
Number of basis functions                   ...    290
Number of shells                            ...    116
Maximum angular momentum                    ...      3
Integral batch strategy                     ... SHARK/LIBINT Hybrid
RI-J (if used) integral strategy            ... SPLIT-RIJ (Revised 2003 algorithm where possible)
Printlevel                                  ...      1
Contraction scheme used                     ... SEGMENTED contraction
Coulomb Range Separation                    ... NOT USED
Exchange Range Separation                   ... NOT USED
Finite Nucleus Model                        ... NOT USED
Auxiliary Coulomb fitting basis             ... AVAILABLE
   # of basis functions in Aux-J            ...    469
   # of shells in Aux-J                     ...    155
   Maximum angular momentum in Aux-J        ...      4
Auxiliary J/K fitting basis                 ... NOT available
Auxiliary Correlation fitting basis         ... NOT available
Auxiliary 'external' fitting basis          ... NOT available
Integral threshold                          ...     2.500000e-11
Primitive cut-off                           ...     2.500000e-12
Primitive pair pre-selection threshold      ...     2.500000e-12

Calculating pre-screening integrals         ... done (  0.1 sec) Dimension = 116
Organizing shell pair data                  ... done (  0.3 sec)
Shell pair information
Total number of shell pairs                 ...      6786
Shell pairs after pre-screening             ...      6242
Total number of primitive shell pairs       ...     20700
Primitive shell pairs kept                  ...     14451
          la=0 lb=0:   1657 shell pairs
          la=1 lb=0:   1757 shell pairs
          la=1 lb=1:    474 shell pairs
          la=2 lb=0:    908 shell pairs
          la=2 lb=1:    475 shell pairs
          la=2 lb=2:    131 shell pairs
          la=3 lb=0:    445 shell pairs
          la=3 lb=1:    238 shell pairs
          la=3 lb=2:    122 shell pairs
          la=3 lb=3:     35 shell pairs

Calculating one electron integrals          ... done (  0.0 sec)
Calculating RI/J V-Matrix + Cholesky decomp.... done (  0.4 sec)
Calculating Nuclear repulsion               ... done (  0.0 sec) ENN=    330.583250048082 Eh

SHARK setup successfully completed in   2.1 seconds

Maximum memory used throughout the entire GTOINT-calculation: 93.8 MB
-------------------------------------------------------------------------------
                                 ORCA SCF
-------------------------------------------------------------------------------

------------
SCF SETTINGS
------------
Hamiltonian:
 Density Functional     Method          .... DFT(GTOs)
 Exchange Functional    Exchange        .... PBE
   PBE kappa parameter   XKappa         ....  0.804000
   PBE mue parameter    XMuePBE         ....  0.219520
 Correlation Functional Correlation     .... PBE
   PBE beta parameter  CBetaPBE         ....  0.066725
 LDA part of GGA corr.  LDAOpt          .... PW91-LDA
 Gradients option       PostSCFGGA      .... off
   Density functional embedding theory  .... OFF
   NL short-range parameter             ....  6.400000
 RI-approximation to the Coulomb term is turned on
   Number of AuxJ basis functions       .... 469


General Settings:
 Integral files         IntName         .... inp
 Hartree-Fock type      HFTyp           .... RHF
 Total Charge           Charge          ....   -1
 Multiplicity           Mult            ....    1
 Number of Electrons    NEL             ....   58
 Basis Dimension        Dim             ....  290
 Nuclear Repulsion      ENuc            ....    330.5832500481 Eh

Convergence Acceleration:
 DIIS                   CNVDIIS         .... on
   Start iteration      DIISMaxIt       ....    12
   Startup error        DIISStart       ....  0.200000
   # of expansion vecs  DIISMaxEq       ....     5
   Bias factor          DIISBfac        ....   1.050
   Max. coefficient     DIISMaxC        ....  10.000
 Trust-Rad. Augm. Hess. CNVTRAH         .... auto
   Auto Start mean grad. ratio tolernc. ....  1.125000
   Auto Start start iteration           ....    20
   Auto Start num. interpolation iter.  ....    10
   Max. Number of Micro iterations      ....    16
   Max. Number of Macro iterations      .... Maxiter - #DIIS iter
   Number of Davidson start vectors     ....     2
   Converg. threshold I  (grad. norm)   ....   1.000e-05
   Converg. threshold II (energy diff.) ....   1.000e-08
   Grad. Scal. Fac. for Micro threshold ....   0.100
   Minimum threshold for Micro iter.    ....   0.010
   NR start threshold (gradient norm)   ....   0.001
   Initial trust radius                 ....   0.400
   Minimum AH scaling param. (alpha)    ....   1.000
   Maximum AH scaling param. (alpha)    .... 1000.000
   Orbital update algorithm             .... Taylor
   White noise on init. David. guess    .... on
   Maximum white noise                  ....   0.010
   Quad. conv. algorithm                .... NR
 SOSCF                  CNVSOSCF        .... on
   Start iteration      SOSCFMaxIt      ....   150
   Startup grad/error   SOSCFStart      ....  0.003300
 Level Shifting         CNVShift        .... on
   Level shift para.    LevelShift      ....    0.2500
   Turn off err/grad.   ShiftErr        ....    0.0010
 Zerner damping         CNVZerner       .... off
 Static damping         CNVDamp         .... on
   Fraction old density DampFac         ....    0.7000
   Max. Damping (<1)    DampMax         ....    0.9800
   Min. Damping (>=0)   DampMin         ....    0.0000
   Turn off err/grad.   DampErr         ....    0.1000
 Fernandez-Rico         CNVRico         .... off

SCF Procedure:
 Maximum # iterations   MaxIter         ....   125
 SCF integral mode      SCFMode         .... Direct
   Integral package                     .... SHARK and LIBINT hybrid scheme
 Reset frequency        DirectResetFreq ....    20
 Integral Threshold     Thresh          ....  2.500e-11 Eh
 Primitive CutOff       TCut            ....  2.500e-12 Eh

Convergence Tolerance:
 Convergence Check Mode ConvCheckMode   .... Total+1el-Energy
 Convergence forced     ConvForced      .... 0
 Energy Change          TolE            ....  1.000e-08 Eh
 1-El. energy change                    ....  1.000e-05 Eh
 Orbital Gradient       TolG            ....  1.000e-05
 Orbital Rotation angle TolX            ....  1.000e-05
 DIIS Error             TolErr          ....  5.000e-07


Diagonalization of the overlap matrix:
Smallest eigenvalue                        ... 8.879e-06
Time for diagonalization                   ...    0.015 sec
Threshold for overlap eigenvalues          ... 1.000e-08
Number of eigenvalues below threshold      ... 0
Time for construction of square roots      ...    0.266 sec
Total time needed                          ...    0.281 sec

Time for model grid setup =    0.432 sec

------------------------------
INITIAL GUESS: MODEL POTENTIAL
------------------------------
Loading Hartree-Fock densities                     ... done
Calculating cut-offs                               ... done
Initializing the effective Hamiltonian             ... done
Setting up the integral package (SHARK)            ... done
Starting the Coulomb interaction                   ... done (   0.5 sec)
Reading the grid                                   ... done
Mapping shells                                     ... done
Starting the XC term evaluation                    ... done (   0.5 sec)
  promolecular density results
     # of electrons  =     56.992175816
     EX              =    -45.956459725
     EC              =     -1.877922387
     EX+EC           =    -47.834382112
Transforming the Hamiltonian                       ... done (   0.0 sec)
Diagonalizing the Hamiltonian                      ... done (   0.0 sec)
Back transforming the eigenvectors                 ... done (   0.0 sec)
Now organizing SCF variables                       ... done
                      ------------------
                      INITIAL GUESS DONE (   1.4 sec)
                      ------------------
-------------------
DFT GRID GENERATION
-------------------

General Integration Accuracy     IntAcc      ... 4.388
Radial Grid Type                 RadialGrid  ... OptM3 with GC (2021)
Angular Grid (max. ang.)         AngularGrid ... 4 (Lebedev-302)
Angular grid pruning method      GridPruning ... 4 (adaptive)
Weight generation scheme         WeightScheme... Becke
Basis function cutoff            BFCut       ... 1.0000e-11
Integration weight cutoff        WCut        ... 1.0000e-14
Angular grids for H and He will be reduced by one unit
Partially contracted basis set               ... off
Rotationally invariant grid construction     ... off

Total number of grid points                  ...    70810
Total number of batches                      ...     1114
Average number of points per batch           ...       63
Average number of grid points per atom       ...     4721
Time for grid setup =    1.100 sec


--------------------
CPCM SOLVATION MODEL
--------------------
CPCM parameters:
  Epsilon                                         ...      80.4000
  Refrac                                          ...       1.3300
  Rsolv                                           ...       1.3000
  Surface type                                    ... GAUSSIAN VDW
  Epsilon function type                           ...         CPCM
Radii:
 Radius for C  used is    3.8550 Bohr (=   2.0400 Ang.)
 Radius for H  used is    2.4944 Bohr (=   1.3200 Ang.)
 Radius for O  used is    3.4469 Bohr (=   1.8240 Ang.)
Calculating surface                               ...        done! (  0.0s)
GEPOL surface points                              ...          871
GEPOL Volume                                      ...     957.4835
GEPOL Surface-area                                ...     546.7495
Calculating surface distance matrix               ...        done! (  0.0s)
Performing Cholesky decomposition & store         ...        done! (  0.2s)
Overall time for CPCM initialization              ...                 0.2s
--------------
SCF ITERATIONS
--------------
ITER       Energy         Delta-E        Max-DP      RMS-DP      [F,P]     Damp
               ***  Starting incremental Fock matrix formation  ***
  0   -345.6452439443   0.000000000000 0.58157175  0.00705157  0.3916075 0.7000
  1   -345.8070973140  -0.161853369687 0.34203906  0.00415542  0.1054201 0.7000
                               ***Turning on DIIS***
  2   -345.8535417298  -0.046444415825 0.14053399  0.00254488  0.0276910 0.0000
  3   -345.9439617212  -0.090419991371 0.35218260  0.00415332  0.0433668 0.0000
  4   -345.9609533330  -0.016991611873 0.03312829  0.00052304  0.0468096 0.0000
                      *** Initiating the SOSCF procedure ***
                           *** Shutting down DIIS ***
                      *** Re-Reading the Fockian *** 
                      *** Removing any level shift *** 
ITER      Energy       Delta-E        Grad      Rot      Max-DP    RMS-DP
  5   -345.96406177  -0.0031084338  0.001207  0.001207  0.013695  0.000259
               *** Restarting incremental Fock matrix formation ***
  6   -345.96416118  -0.0000994092  0.000769  0.001295  0.022173  0.000315
  7   -345.96412932   0.0000318518  0.001336  0.002344  0.011703  0.000147
  8   -345.96418025  -0.0000509300  0.000173  0.001426  0.003874  0.000068
  9   -345.96417854   0.0000017099  0.000256  0.000549  0.000918  0.000015
 10   -345.96418182  -0.0000032760  0.000088  0.000378  0.001183  0.000016
 11   -345.96418160   0.0000002212  0.000136  0.000224  0.000410  0.000005
 12   -345.96418193  -0.0000003331  0.000015  0.000063  0.000306  0.000005
 13   -345.96418193   0.0000000007  0.000021  0.000041  0.000101  0.000002
 14   -345.96418194  -0.0000000066  0.000004  0.000019  0.000104  0.000002
 15   -345.96418194  -0.0000000031  0.000003  0.000008  0.000034  0.000001
                  ***Gradient check signals convergence***
              ***Rediagonalizing the Fockian in SOSCF/NRSCF***

               *****************************************************
               *                     SUCCESS                       *
               *           SCF CONVERGED AFTER  16 CYCLES          *
               *****************************************************


----------------
TOTAL SCF ENERGY
----------------

Total Energy       :         -345.96418194 Eh           -9414.16400 eV

Components:
Nuclear Repulsion  :          330.58325005 Eh            8995.62756 eV
Electronic Energy  :         -676.54743199 Eh          -18409.79156 eV
One Electron Energy:        -1134.35026427 Eh          -30867.23995 eV
Two Electron Energy:          457.80283228 Eh           12457.44839 eV
CPCM Dielectric    :           -0.11125840 Eh              -3.02750 eV

Virial components:
Potential Energy   :         -690.58071849 Eh          -18791.65670 eV
Kinetic Energy     :          344.61653656 Eh            9377.49270 eV
Virial Ratio       :            2.00391057


DFT components:
N(Alpha)           :       29.000015227212 electrons
N(Beta)            :       29.000015227212 electrons
N(Total)           :       58.000030454424 electrons
E(X)               :      -47.127001656630 Eh       
E(C)               :       -1.916012132036 Eh       
E(XC)              :      -49.043013788667 Eh       
DFET-embed. en.    :        0.000000000000 Eh       
CPCM Solvation Model Properties:
Surface-charge          :            0.96472774
Charge-correction       :           -0.00530742 Eh              -0.14442 eV
Free-energy (cav+disp)  :  This term is not implemented in the current solvation scheme

---------------
SCF CONVERGENCE
---------------

  Last Energy change         ...    4.0449e-09  Tolerance :   1.0000e-08
  Last MAX-Density change    ...    8.9931e-05  Tolerance :   1.0000e-07
  Last RMS-Density change    ...    1.6457e-06  Tolerance :   5.0000e-09
  Last Orbital Gradient      ...    5.6473e-07  Tolerance :   1.0000e-05
  Last Orbital Rotation      ...    3.5587e-06  Tolerance :   1.0000e-05

             **** THE GBW FILE WAS UPDATED (inp.gbw) ****
             **** DENSITY inp.scfp WAS UPDATED ****
             **** ENERGY FILE WAS UPDATED (inp.en.tmp) ****
             **** THE GBW FILE WAS UPDATED (inp.gbw) ****
             **** DENSITY inp.scfp WAS UPDATED ****
----------------
ORBITAL ENERGIES
----------------

  NO   OCC          E(Eh)            E(eV) 
   0   2.0000     -18.621792      -506.7247 
   1   2.0000      -9.874052      -268.6866 
   2   2.0000      -9.873433      -268.6698 
   3   2.0000      -9.873349      -268.6675 
   4   2.0000      -9.871469      -268.6163 
   5   2.0000      -9.868746      -268.5422 
   6   2.0000      -9.868244      -268.5286 
   7   2.0000      -9.866246      -268.4742 
   8   2.0000      -0.821062       -22.3422 
   9   2.0000      -0.760967       -20.7070 
  10   2.0000      -0.662511       -18.0278 
  11   2.0000      -0.661066       -17.9885 
  12   2.0000      -0.554458       -15.0876 
  13   2.0000      -0.530606       -14.4385 
  14   2.0000      -0.497878       -13.5479 
  15   2.0000      -0.442633       -12.0447 
  16   2.0000      -0.394416       -10.7326 
  17   2.0000      -0.388945       -10.5837 
  18   2.0000      -0.359384        -9.7793 
  19   2.0000      -0.349977        -9.5234 
  20   2.0000      -0.323362        -8.7991 
  21   2.0000      -0.319689        -8.6992 
  22   2.0000      -0.300193        -8.1687 
  23   2.0000      -0.280878        -7.6431 
  24   2.0000      -0.279549        -7.6069 
  25   2.0000      -0.220897        -6.0109 
  26   2.0000      -0.213371        -5.8061 
  27   2.0000      -0.132976        -3.6185 
  28   2.0000      -0.130359        -3.5473 
  29   0.0000      -0.030663        -0.8344 
  30   0.0000      -0.025484        -0.6935 
  31   0.0000       0.042947         1.1686 
  32   0.0000       0.060882         1.6567 
  33   0.0000       0.069529         1.8920 
  34   0.0000       0.090081         2.4512 
  35   0.0000       0.101024         2.7490 
  36   0.0000       0.108937         2.9643 
  37   0.0000       0.111360         3.0303 
  38   0.0000       0.126247         3.4354 
  39   0.0000       0.133430         3.6308 
  40   0.0000       0.136674         3.7191 
  41   0.0000       0.168658         4.5894 
  42   0.0000       0.192138         5.2283 
  43   0.0000       0.198278         5.3954 
  44   0.0000       0.208997         5.6871 
  45   0.0000       0.216540         5.8924 
  46   0.0000       0.223393         6.0788 
  47   0.0000       0.232621         6.3299 
  48   0.0000       0.234517         6.3815 
  49   0.0000       0.263688         7.1753 
  50   0.0000       0.276631         7.5275 
  51   0.0000       0.284035         7.7290 
  52   0.0000       0.290424         7.9028 
  53   0.0000       0.295295         8.0354 
  54   0.0000       0.321291         8.7428 
  55   0.0000       0.329587         8.9685 
  56   0.0000       0.332415         9.0455 
  57   0.0000       0.342280         9.3139 
  58   0.0000       0.350063         9.5257 
  59   0.0000       0.361672         9.8416 
  60   0.0000       0.366363         9.9692 
  61   0.0000       0.391157        10.6439 
  62   0.0000       0.399061        10.8590 
  63   0.0000       0.401961        10.9379 
  64   0.0000       0.408285        11.1100 
  65   0.0000       0.421136        11.4597 
  66   0.0000       0.437214        11.8972 
  67   0.0000       0.439360        11.9556 
  68   0.0000       0.457051        12.4370 
  69   0.0000       0.463114        12.6020 
  70   0.0000       0.468935        12.7604 
  71   0.0000       0.480296        13.0695 
  72   0.0000       0.482642        13.1334 
  73   0.0000       0.510106        13.8807 
  74   0.0000       0.537207        14.6182 
  75   0.0000       0.544879        14.8269 
  76   0.0000       0.560242        15.2450 
  77   0.0000       0.600212        16.3326 
  78   0.0000       0.604378        16.4459 
  79   0.0000       0.613576        16.6963 
  80   0.0000       0.622024        16.9261 
  81   0.0000       0.636968        17.3328 
  82   0.0000       0.650584        17.7033 
  83   0.0000       0.658628        17.9222 
  84   0.0000       0.704063        19.1585 
  85   0.0000       0.708065        19.2674 
  86   0.0000       0.725446        19.7404 
  87   0.0000       0.760809        20.7027 
  88   0.0000       0.771190        20.9851 
  89   0.0000       0.785504        21.3746 
  90   0.0000       0.799665        21.7600 
  91   0.0000       0.836162        22.7531 
  92   0.0000       0.843868        22.9628 
  93   0.0000       0.862559        23.4714 
  94   0.0000       0.902033        24.5456 
  95   0.0000       0.918251        24.9869 
  96   0.0000       0.922156        25.0931 
  97   0.0000       0.966827        26.3087 
  98   0.0000       0.970716        26.4145 
  99   0.0000       0.973907        26.5014 
 100   0.0000       1.007878        27.4258 
 101   0.0000       1.021755        27.8034 
 102   0.0000       1.041060        28.3287 
 103   0.0000       1.078792        29.3554 
 104   0.0000       1.087730        29.5987 
 105   0.0000       1.116432        30.3797 
 106   0.0000       1.162043        31.6208 
 107   0.0000       1.167869        31.7793 
 108   0.0000       1.183581        32.2069 
 109   0.0000       1.185077        32.2476 
 110   0.0000       1.204260        32.7696 
 111   0.0000       1.229959        33.4689 
 112   0.0000       1.242291        33.8045 
 113   0.0000       1.246812        33.9275 
 114   0.0000       1.261812        34.3356 
 115   0.0000       1.303601        35.4728 
 116   0.0000       1.340085        36.4656 
 117   0.0000       1.365681        37.1621 
 118   0.0000       1.400452        38.1082 
 119   0.0000       1.410541        38.3828 
 120   0.0000       1.421438        38.6793 
 121   0.0000       1.427240        38.8372 
 122   0.0000       1.468624        39.9633 
 123   0.0000       1.476154        40.1682 
 124   0.0000       1.505409        40.9643 
 125   0.0000       1.526371        41.5347 
 126   0.0000       1.533634        41.7323 
 127   0.0000       1.551608        42.2214 
 128   0.0000       1.581592        43.0373 
 129   0.0000       1.584972        43.1293 
 130   0.0000       1.603260        43.6269 
 131   0.0000       1.631026        44.3825 
 132   0.0000       1.634781        44.4846 
 133   0.0000       1.636175        44.5226 
 134   0.0000       1.664527        45.2941 
 135   0.0000       1.674755        45.5724 
 136   0.0000       1.683997        45.8239 
 137   0.0000       1.688452        45.9451 
 138   0.0000       1.705172        46.4001 
 139   0.0000       1.750075        47.6220 
 140   0.0000       1.798284        48.9338 
 141   0.0000       1.852729        50.4153 
 142   0.0000       1.865958        50.7753 
 143   0.0000       1.888957        51.4011 
 144   0.0000       1.895366        51.5755 
 145   0.0000       1.953941        53.1694 
 146   0.0000       1.960511        53.3482 
 147   0.0000       2.010720        54.7145 
 148   0.0000       2.026794        55.1519 
 149   0.0000       2.030474        55.2520 
 150   0.0000       2.042323        55.5744 
 151   0.0000       2.078274        56.5527 
 152   0.0000       2.096052        57.0365 
 153   0.0000       2.105685        57.2986 
 154   0.0000       2.147823        58.4452 
 155   0.0000       2.152860        58.5823 
 156   0.0000       2.189307        59.5741 
 157   0.0000       2.195325        59.7378 
 158   0.0000       2.244982        61.0891 
 159   0.0000       2.255785        61.3830 
 160   0.0000       2.291299        62.3494 
 161   0.0000       2.366080        64.3843 
 162   0.0000       2.409576        65.5679 
 163   0.0000       2.416013        65.7431 
 164   0.0000       2.449639        66.6581 
 165   0.0000       2.465202        67.0815 
 166   0.0000       2.466830        67.1258 
 167   0.0000       2.492591        67.8268 
 168   0.0000       2.530506        68.8586 
 169   0.0000       2.544549        69.2407 
 170   0.0000       2.562004        69.7157 
 171   0.0000       2.582789        70.2813 
 172   0.0000       2.603499        70.8448 
 173   0.0000       2.606357        70.9226 
 174   0.0000       2.611957        71.0750 
 175   0.0000       2.619315        71.2752 
 176   0.0000       2.633029        71.6484 
 177   0.0000       2.648731        72.0756 
 178   0.0000       2.683046        73.0094 
 179   0.0000       2.700802        73.4926 
 180   0.0000       2.712511        73.8112 
 181   0.0000       2.715144        73.8828 
 182   0.0000       2.733343        74.3780 
 183   0.0000       2.763646        75.2026 
 184   0.0000       2.765046        75.2407 
 185   0.0000       2.780402        75.6586 
 186   0.0000       2.798511        76.1513 
 187   0.0000       2.805172        76.3326 
 188   0.0000       2.813988        76.5725 
 189   0.0000       2.830827        77.0307 
 190   0.0000       2.873007        78.1785 
 191   0.0000       2.909052        79.1593 
 192   0.0000       2.925771        79.6143 
 193   0.0000       2.963480        80.6404 
 194   0.0000       2.992739        81.4366 
 195   0.0000       3.000004        81.6343 
 196   0.0000       3.016084        82.0718 
 197   0.0000       3.053414        83.0876 
 198   0.0000       3.058510        83.2263 
 199   0.0000       3.064820        83.3980 
 200   0.0000       3.071983        83.5929 
 201   0.0000       3.080991        83.8380 
 202   0.0000       3.095199        84.2247 
 203   0.0000       3.118128        84.8486 
 204   0.0000       3.127146        85.0940 
 205   0.0000       3.133053        85.2547 
 206   0.0000       3.159702        85.9799 
 207   0.0000       3.189383        86.7875 
 208   0.0000       3.198449        87.0342 
 209   0.0000       3.223287        87.7101 
 210   0.0000       3.249933        88.4352 
 211   0.0000       3.251337        88.4734 
 212   0.0000       3.280890        89.2776 
 213   0.0000       3.281375        89.2907 
 214   0.0000       3.302230        89.8582 
 215   0.0000       3.323509        90.4373 
 216   0.0000       3.336076        90.7792 
 217   0.0000       3.349038        91.1320 
 218   0.0000       3.351927        91.2106 
 219   0.0000       3.383225        92.0622 
 220   0.0000       3.397137        92.4408 
 221   0.0000       3.433038        93.4177 
 222   0.0000       3.435408        93.4822 
 223   0.0000       3.477741        94.6341 
 224   0.0000       3.489070        94.9424 
 225   0.0000       3.499314        95.2212 
 226   0.0000       3.558093        96.8206 
 227   0.0000       3.589815        97.6838 
 228   0.0000       3.611542        98.2751 
 229   0.0000       3.624222        98.6201 
 230   0.0000       3.665562        99.7450 
 231   0.0000       3.683531       100.2340 
 232   0.0000       3.688096       100.3582 
 233   0.0000       3.760555       102.3299 
 234   0.0000       3.803168       103.4895 
 235   0.0000       3.818373       103.9032 
 236   0.0000       3.840577       104.5074 
 237   0.0000       3.883073       105.6638 
 238   0.0000       3.934769       107.0705 
 239   0.0000       3.980998       108.3285 
 240   0.0000       4.008738       109.0833 
 241   0.0000       4.038958       109.9056 
 242   0.0000       4.048152       110.1558 
 243   0.0000       4.114109       111.9506 
 244   0.0000       4.125070       112.2489 
 245   0.0000       4.147291       112.8535 
 246   0.0000       4.155599       113.0796 
 247   0.0000       4.161929       113.2518 
 248   0.0000       4.168950       113.4429 
 249   0.0000       4.216937       114.7487 
 250   0.0000       4.220290       114.8399 
 251   0.0000       4.242920       115.4557 
 252   0.0000       4.316952       117.4702 
 253   0.0000       4.399986       119.7297 
 254   0.0000       4.500214       122.4570 
 255   0.0000       4.536210       123.4365 
 256   0.0000       4.562373       124.1485 
 257   0.0000       4.608270       125.3974 
 258   0.0000       4.612008       125.4991 
 259   0.0000       4.633565       126.0857 
 260   0.0000       4.776410       129.9727 
 261   0.0000       4.777965       130.0150 
 262   0.0000       4.868865       132.4885 
 263   0.0000       4.982373       135.5772 
 264   0.0000       5.100734       138.7980 
 265   0.0000       5.113372       139.1419 
 266   0.0000       5.173272       140.7719 
 267   0.0000       5.199869       141.4956 
 268   0.0000       5.255722       143.0155 
 269   0.0000       5.303209       144.3076 
 270   0.0000       5.364561       145.9771 
 271   0.0000       5.452448       148.3687 
 272   0.0000       5.460105       148.5770 
 273   0.0000       5.560345       151.3047 
 274   0.0000       5.910198       160.8247 
 275   0.0000       5.923554       161.1881 
 276   0.0000       6.012705       163.6140 
 277   0.0000       6.352849       172.8698 
 278   0.0000       6.355805       172.9502 
 279   0.0000       6.751041       183.7052 
 280   0.0000       6.835849       186.0129 
 281   0.0000       6.916451       188.2062 
 282   0.0000      21.682729       590.0170 
 283   0.0000      22.294052       606.6520 
 284   0.0000      22.337463       607.8333 
 285   0.0000      22.433901       610.4575 
 286   0.0000      22.474818       611.5709 
 287   0.0000      22.539166       613.3219 
 288   0.0000      22.927886       623.8995 
 289   0.0000      43.509504      1183.9538 

                    ********************************
                    * MULLIKEN POPULATION ANALYSIS *
                    ********************************

-----------------------
MULLIKEN ATOMIC CHARGES
-----------------------
   0 C :   -0.227985
   1 C :   -0.143271
   2 H :    0.119199
   3 C :    0.193978
   4 H :    0.119270
   5 C :   -0.163486
   6 H :    0.123184
   7 C :   -0.145174
   8 H :    0.124548
   9 C :   -0.237985
  10 H :    0.123532
  11 C :   -0.075158
  12 H :   -0.009428
  13 H :   -0.015293
  14 O :   -0.785930
Sum of atomic charges:   -1.0000000

--------------------------------
MULLIKEN REDUCED ORBITAL CHARGES
--------------------------------
  0 C s       :     3.229715  s :     3.229715
      pz      :     0.979758  p :     2.901439
      px      :     0.964578
      py      :     0.957104
      dz2     :     0.008265  d :     0.090100
      dxz     :     0.020942
      dyz     :     0.010498
      dx2y2   :     0.019984
      dxy     :     0.030411
      f0      :     0.000713  f :     0.006730
      f+1     :     0.000315
      f-1     :     0.001175
      f+2     :     0.000915
      f-2     :     0.001072
      f+3     :     0.001471
      f-3     :     0.001069
  1 C s       :     3.198805  s :     3.198805
      pz      :     0.969472  p :     2.848996
      px      :     0.920414
      py      :     0.959110
      dz2     :     0.009855  d :     0.088692
      dxz     :     0.022679
      dyz     :     0.008852
      dx2y2   :     0.027592
      dxy     :     0.019714
      f0      :     0.000776  f :     0.006777
      f+1     :     0.000861
      f-1     :     0.000733
      f+2     :     0.001183
      f-2     :     0.000846
      f+3     :     0.001635
      f-3     :     0.000742
  2 H s       :     0.858892  s :     0.858892
      pz      :     0.006466  p :     0.021910
      px      :     0.004492
      py      :     0.010951
  3 C s       :     3.194811  s :     3.194811
      pz      :     0.848535  p :     2.468608
      px      :     0.821907
      py      :     0.798167
      dz2     :     0.018086  d :     0.132974
      dxz     :     0.024331
      dyz     :     0.021618
      dx2y2   :     0.033934
      dxy     :     0.035005
      f0      :     0.000596  f :     0.009628
      f+1     :     0.001110
      f-1     :     0.001659
      f+2     :     0.001371
      f-2     :     0.001299
      f+3     :     0.002058
      f-3     :     0.001536
  4 H s       :     0.858779  s :     0.858779
      pz      :     0.007055  p :     0.021952
      px      :     0.008574
      py      :     0.006323
  5 C s       :     3.200627  s :     3.200627
      pz      :     0.973824  p :     2.870205
      px      :     0.956278
      py      :     0.940103
      dz2     :     0.016925  d :     0.085891
      dxz     :     0.008650
      dyz     :     0.016345
      dx2y2   :     0.022908
      dxy     :     0.021064
      f0      :     0.000286  f :     0.006762
      f+1     :     0.001006
      f-1     :     0.001477
      f+2     :     0.000985
      f-2     :     0.000857
      f+3     :     0.001141
      f-3     :     0.001011
  6 H s       :     0.855003  s :     0.855003
      pz      :     0.006604  p :     0.021812
      px      :     0.004424
      py      :     0.010784
  7 C s       :     3.200201  s :     3.200201
      pz      :     0.974505  p :     2.849824
      px      :     0.936601
      py      :     0.938718
      dz2     :     0.008325  d :     0.088375
      dxz     :     0.019658
      dyz     :     0.011089
      dx2y2   :     0.020130
      dxy     :     0.029173
      f0      :     0.000761  f :     0.006774
      f+1     :     0.000292
      f-1     :     0.001301
      f+2     :     0.000898
      f-2     :     0.001073
      f+3     :     0.001437
      f-3     :     0.001011
  8 H s       :     0.853589  s :     0.853589
      pz      :     0.004845  p :     0.021864
      px      :     0.011631
      py      :     0.005387
  9 C s       :     3.240385  s :     3.240385
      pz      :     1.002574  p :     2.902072
      px      :     0.941826
      py      :     0.957672
      dz2     :     0.008617  d :     0.088810
      dxz     :     0.021107
      dyz     :     0.009116
      dx2y2   :     0.031131
      dxy     :     0.018840
      f0      :     0.000777  f :     0.006718
      f+1     :     0.000855
      f-1     :     0.000659
      f+2     :     0.001151
      f-2     :     0.000861
      f+3     :     0.001649
      f-3     :     0.000765
 10 H s       :     0.854642  s :     0.854642
      pz      :     0.006879  p :     0.021826
      px      :     0.008403
      py      :     0.006544
 11 C s       :     3.206379  s :     3.206379
      pz      :     0.872816  p :     2.717207
      px      :     0.933104
      py      :     0.911288
      dz2     :     0.043089  d :     0.141342
      dxz     :     0.030580
      dyz     :     0.016844
      dx2y2   :     0.015309
      dxy     :     0.035520
      f0      :     0.001676  f :     0.010229
      f+1     :     0.000827
      f-1     :     0.002428
      f+2     :     0.001308
      f-2     :     0.001979
      f+3     :     0.001251
      f-3     :     0.000759
 12 H s       :     0.988968  s :     0.988968
      pz      :     0.004033  p :     0.020460
      px      :     0.007208
      py      :     0.009219
 13 H s       :     0.994867  s :     0.994867
      pz      :     0.010822  p :     0.020426
      px      :     0.005113
      py      :     0.004492
 14 O s       :     3.806671  s :     3.806671
      pz      :     1.541433  p :     4.954160
      px      :     1.802437
      py      :     1.610291
      dz2     :     0.005965  d :     0.023721
      dxz     :     0.003251
      dyz     :     0.008634
      dx2y2   :     0.003018
      dxy     :     0.002853
      f0      :     0.000215  f :     0.001379
      f+1     :     0.000073
      f-1     :     0.000428
      f+2     :     0.000297
      f-2     :     0.000228
      f+3     :     0.000069
      f-3     :     0.000068


                     *******************************
                     * LOEWDIN POPULATION ANALYSIS *
                     *******************************

----------------------
LOEWDIN ATOMIC CHARGES
----------------------
   0 C :   -0.149459
   1 C :   -0.170347
   2 H :    0.145536
   3 C :   -0.155656
   4 H :    0.145001
   5 C :   -0.179076
   6 H :    0.144527
   7 C :   -0.170518
   8 H :    0.144795
   9 C :   -0.146912
  10 H :    0.144580
  11 C :   -0.538305
  12 H :    0.076095
  13 H :    0.074691
  14 O :   -0.364952

-------------------------------
LOEWDIN REDUCED ORBITAL CHARGES
-------------------------------
  0 C s       :     2.768033  s :     2.768033
      pz      :     0.939473  p :     2.956334
      px      :     1.017685
      py      :     0.999176
      dz2     :     0.031481  d :     0.383902
      dxz     :     0.079237
      dyz     :     0.051537
      dx2y2   :     0.093304
      dxy     :     0.128343
      f0      :     0.004258  f :     0.041189
      f+1     :     0.002650
      f-1     :     0.004495
      f+2     :     0.006754
      f-2     :     0.005129
      f+3     :     0.010027
      f-3     :     0.007876
  1 C s       :     2.771763  s :     2.771763
      pz      :     0.937434  p :     2.965788
      px      :     1.057673
      py      :     0.970682
      dz2     :     0.039147  d :     0.390472
      dxz     :     0.090413
      dyz     :     0.044268
      dx2y2   :     0.120910
      dxy     :     0.095734
      f0      :     0.004704  f :     0.042324
      f+1     :     0.005031
      f-1     :     0.002600
      f+2     :     0.006234
      f-2     :     0.006195
      f+3     :     0.010871
      f-3     :     0.006689
  2 H s       :     0.794697  s :     0.794697
      pz      :     0.017643  p :     0.059767
      px      :     0.012579
      py      :     0.029546
  3 C s       :     2.740151  s :     2.740151
      pz      :     0.873689  p :     2.852240
      px      :     1.005909
      py      :     0.972642
      dz2     :     0.069921  d :     0.508069
      dxz     :     0.088335
      dyz     :     0.077353
      dx2y2   :     0.136618
      dxy     :     0.135843
      f0      :     0.004735  f :     0.055197
      f+1     :     0.005617
      f-1     :     0.005776
      f+2     :     0.008811
      f-2     :     0.008002
      f+3     :     0.012784
      f-3     :     0.009473
  4 H s       :     0.795042  s :     0.795042
      pz      :     0.019263  p :     0.059957
      px      :     0.023357
      py      :     0.017337
  5 C s       :     2.770240  s :     2.770240
      pz      :     0.963312  p :     2.978757
      px      :     0.992781
      py      :     1.022663
      dz2     :     0.066243  d :     0.387624
      dxz     :     0.041904
      dyz     :     0.069498
      dx2y2   :     0.108090
      dxy     :     0.101888
      f0      :     0.003208  f :     0.042456
      f+1     :     0.005155
      f-1     :     0.004874
      f+2     :     0.007055
      f-2     :     0.006351
      f+3     :     0.008578
      f-3     :     0.007235
  6 H s       :     0.795654  s :     0.795654
      pz      :     0.018071  p :     0.059819
      px      :     0.012669
      py      :     0.029079
  7 C s       :     2.771581  s :     2.771581
      pz      :     0.933486  p :     2.966473
      px      :     1.021634
      py      :     1.011353
      dz2     :     0.032915  d :     0.390120
      dxz     :     0.077237
      dyz     :     0.055457
      dx2y2   :     0.096815
      dxy     :     0.127696
      f0      :     0.004298  f :     0.042344
      f+1     :     0.002720
      f-1     :     0.005173
      f+2     :     0.006899
      f-2     :     0.005080
      f+3     :     0.010091
      f-3     :     0.008082
  8 H s       :     0.795241  s :     0.795241
      pz      :     0.013527  p :     0.059964
      px      :     0.031374
      py      :     0.015063
  9 C s       :     2.768234  s :     2.768234
      pz      :     0.938138  p :     2.954011
      px      :     1.045332
      py      :     0.970541
      dz2     :     0.036059  d :     0.383480
      dxz     :     0.082722
      dyz     :     0.042914
      dx2y2   :     0.127436
      dxy     :     0.094349
      f0      :     0.004540  f :     0.041188
      f+1     :     0.004632
      f-1     :     0.002416
      f+2     :     0.005981
      f-2     :     0.006052
      f+3     :     0.010774
      f-3     :     0.006793
 10 H s       :     0.795557  s :     0.795557
      pz      :     0.018773  p :     0.059863
      px      :     0.022985
      py      :     0.018105
 11 C s       :     2.794100  s :     2.794100
      pz      :     0.978212  p :     2.960492
      px      :     0.995114
      py      :     0.987166
      dz2     :     0.221544  d :     0.700072
      dxz     :     0.106058
      dyz     :     0.114795
      dx2y2   :     0.091313
      dxy     :     0.166362
      f0      :     0.011697  f :     0.083641
      f+1     :     0.010926
      f-1     :     0.016892
      f+2     :     0.013362
      f-2     :     0.013984
      f+3     :     0.009742
      f-3     :     0.007038
 12 H s       :     0.865896  s :     0.865896
      pz      :     0.011091  p :     0.058009
      px      :     0.019038
      py      :     0.027880
 13 H s       :     0.867054  s :     0.867054
      pz      :     0.031801  p :     0.058256
      px      :     0.013280
      py      :     0.013175
 14 O s       :     3.468941  s :     3.468941
      pz      :     1.560371  p :     4.830083
      px      :     1.678015
      py      :     1.591697
      dz2     :     0.016361  d :     0.061226
      dxz     :     0.009443
      dyz     :     0.019444
      dx2y2   :     0.007524
      dxy     :     0.008454
      f0      :     0.000840  f :     0.004701
      f+1     :     0.000241
      f-1     :     0.001320
      f+2     :     0.000928
      f-2     :     0.000873
      f+3     :     0.000273
      f-3     :     0.000226


                      *****************************
                      * MAYER POPULATION ANALYSIS *
                      *****************************

  NA   - Mulliken gross atomic population
  ZA   - Total nuclear charge
  QA   - Mulliken gross atomic charge
  VA   - Mayer's total valence
  BVA  - Mayer's bonded valence
  FA   - Mayer's free valence

  ATOM       NA         ZA         QA         VA         BVA        FA
  0 C      6.2280     6.0000    -0.2280     3.9227     3.9227     0.0000
  1 C      6.1433     6.0000    -0.1433     3.8797     3.8797    -0.0000
  2 H      0.8808     1.0000     0.1192     0.9658     0.9658     0.0000
  3 C      5.8060     6.0000     0.1940     3.4097     3.4097     0.0000
  4 H      0.8807     1.0000     0.1193     0.9654     0.9654     0.0000
  5 C      6.1635     6.0000    -0.1635     3.8809     3.8809     0.0000
  6 H      0.8768     1.0000     0.1232     0.9628     0.9628    -0.0000
  7 C      6.1452     6.0000    -0.1452     3.8778     3.8778     0.0000
  8 H      0.8755     1.0000     0.1245     0.9628     0.9628     0.0000
  9 C      6.2380     6.0000    -0.2380     3.9341     3.9341     0.0000
 10 H      0.8765     1.0000     0.1235     0.9626     0.9626     0.0000
 11 C      6.0752     6.0000    -0.0752     4.2837     4.2837     0.0000
 12 H      1.0094     1.0000    -0.0094     0.9166     0.9166     0.0000
 13 H      1.0153     1.0000    -0.0153     0.9149     0.9149     0.0000
 14 O      8.7859     8.0000    -0.7859     1.6044     1.6044     0.0000

  Mayer bond orders larger than 0.100000
B(  0-C ,  1-C ) :   1.4008 B(  0-C ,  3-C ) :   1.3434 B(  0-C ,  4-H ) :   0.9759 
B(  1-C ,  5-C ) :   1.3834 B(  1-C ,  6-H ) :   0.9737 B(  2-H ,  9-C ) :   0.9803 
B(  3-C ,  9-C ) :   1.3230 B(  3-C , 11-C ) :   0.8374 B(  3-C , 14-O ) :  -0.1437 
B(  5-C ,  7-C ) :   1.3747 B(  5-C ,  8-H ) :   0.9694 B(  7-C ,  9-C ) :   1.4058 
B(  7-C , 10-H ) :   0.9740 B( 11-C , 12-H ) :   0.9193 B( 11-C , 13-H ) :   0.9218 
B( 11-C , 14-O ) :   1.5539 

-------
TIMINGS
-------

Total SCF time: 0 days 0 hours 1 min 3 sec 

Total time                  ....      63.550 sec
Sum of individual times     ....      59.529 sec  ( 93.7%)

Fock matrix formation       ....      55.993 sec  ( 88.1%)
  Split-RI-J                ....      10.184 sec  ( 18.2% of F)
  XC integration            ....      27.507 sec  ( 49.1% of F)
    Basis function eval.    ....       8.051 sec  ( 29.3% of XC)
    Density eval.           ....       6.892 sec  ( 25.1% of XC)
    XC-Functional eval.     ....       1.028 sec  (  3.7% of XC)
    XC-Potential eval.      ....       8.301 sec  ( 30.2% of XC)
Diagonalization             ....       0.104 sec  (  0.2%)
Density matrix formation    ....       0.014 sec  (  0.0%)
Population analysis         ....       0.155 sec  (  0.2%)
Initial guess               ....       0.940 sec  (  1.5%)
Orbital Transformation      ....       0.000 sec  (  0.0%)
Orbital Orthonormalization  ....       0.000 sec  (  0.0%)
DIIS solution               ....       0.202 sec  (  0.3%)
SOSCF solution              ....       0.590 sec  (  0.9%)
Grid generation             ....       1.532 sec  (  2.4%)

Maximum memory used throughout the entire SCF-calculation: 117.6 MB

-------------------------   --------------------
FINAL SINGLE POINT ENERGY      -345.964181937271
-------------------------   --------------------

------------------------------------------------------------------------------
                         ORCA SCF GRADIENT CALCULATION
------------------------------------------------------------------------------

Gradient of the Kohn-Sham DFT energy:
Kohn-Sham wavefunction type      ... RKS
Hartree-Fock exchange scaling    ...    0.000
Number of operators              ...    1
Number of atoms                  ...   15
Basis set dimensions             ...  290
Integral neglect threshold       ... 2.5e-11
Integral primitive cutoff        ... 2.5e-12
SHARK Integral package           ... ON

Nuc. rep. gradient       (SHARK) ... done (  0.0 sec)
HCore & Overlap gradient (SHARK) ... done (  0.4 sec)
RI-J gradient            (SHARK) ... done (  2.7 sec)
Exchange-correlation gradient    ... done

------------------
CARTESIAN GRADIENT
------------------

   1   C   :   -0.003561091   -0.005687046   -0.001964756
   2   C   :    0.002404517   -0.001907671    0.002386320
   3   H   :    0.000848293   -0.003488729   -0.004106349
   4   C   :    0.005025272    0.008397040   -0.010542367
   5   H   :    0.003908565    0.003919273    0.001215553
   6   C   :   -0.002020398    0.001276105    0.000462144
   7   H   :   -0.002202431    0.005062678    0.001795288
   8   C   :    0.003505444   -0.003510225    0.001831067
   9   H   :   -0.004574542    0.002167816   -0.000730762
  10   C   :    0.000368326    0.004046311    0.004808947
  11   H   :   -0.004631951   -0.001775887   -0.003257545
  12   C   :   -0.029309235    0.016743368   -0.007860955
  13   H   :    0.012795899    0.014573500    0.008538667
  14   H   :    0.003660200   -0.014949425   -0.015873820
  15   O   :    0.013783133   -0.024867108    0.023298567

Difference to translation invariance:
           :    0.0000000000    0.0000000000    0.0000000000

Difference to rotation invariance:
           :   -0.0013148062   -0.0008617689    0.0004177452

Norm of the cartesian gradient     ...    0.0631791652
RMS gradient                       ...    0.0094181939
MAX gradient                       ...    0.0293092345

-------
TIMINGS
-------

Total SCF gradient time            ...       15.775 sec

One electron gradient       ....       0.436 sec  (  2.8%)
RI-J Coulomb gradient       ....       2.748 sec  ( 17.4%)
XC gradient                 ....      10.620 sec  ( 67.3%)
CPCM gradient               ....       0.732 sec  (  4.6%)
   A-Matrix (El+Nuc)        ....       0.044 sec  (  0.3%)
   Potential                ....       0.688 sec  (  4.4%)

Maximum memory used throughout the entire SCFGRAD-calculation: 110.7 MB
------------------------------------------------------------------------------
                         ORCA GEOMETRY RELAXATION STEP
------------------------------------------------------------------------------

Reading the OPT-File                    .... done
Getting information on internals        .... done
Copying old internal coords+grads       .... done
Making the new internal coordinates     .... (new redundants).... done
Validating the new internal coordinates .... (new redundants).... done
Calculating the B-matrix                .... done
Calculating the G,G- and P matrices     .... done
Transforming gradient to internals      .... done
Projecting the internal gradient        .... done
Number of atoms                         ....  15
Number of internal coordinates          ....  69
Current Energy                          ....  -345.964181937 Eh
Current gradient norm                   ....     0.063179165 Eh/bohr
Maximum allowed component of the step   ....  0.300
Current trust radius                    ....  0.300
Evaluating the initial hessian          ....  (Almloef) done
Projecting the Hessian                  .... done
Forming the augmented Hessian           .... done
Diagonalizing the augmented Hessian     .... done
Last element of RFO vector              ....  0.975868625
Lowest eigenvalues of augmented Hessian:
 -0.007470777  0.010355587  0.019150106  0.024939521  0.025042717
Length of the computed step             ....  0.223758071
The final length of the internal step   ....  0.223758071
Converting the step to cartesian space:
 Initial RMS(Int)=    0.0269373063
Transforming coordinates:
 Iter   0:  RMS(Cart)=    0.0401955126 RMS(Int)=    1.8426382908
 Iter   1:  RMS(Cart)=    0.0007717584 RMS(Int)=    0.0004967848
 Iter   2:  RMS(Cart)=    0.0000256283 RMS(Int)=    0.0000186161
 Iter   3:  RMS(Cart)=    0.0000009440 RMS(Int)=    0.0000005657
 Iter   4:  RMS(Cart)=    0.0000000280 RMS(Int)=    0.0000000289
done
Storing new coordinates                 .... done

                                .--------------------.
          ----------------------|Geometry convergence|-------------------------
          Item                value                   Tolerance       Converged
          ---------------------------------------------------------------------
          RMS gradient        0.0065864576            0.0001000000      NO
          MAX gradient        0.0345323644            0.0003000000      NO
          RMS step            0.0269373063            0.0020000000      NO
          MAX step            0.0832780842            0.0040000000      NO
          ........................................................
          Max(Bonds)      0.0304      Max(Angles)    2.69
          Max(Dihed)        4.77      Max(Improp)    0.00
          ---------------------------------------------------------------------

The optimization has not yet converged - more geometry cycles are needed


    ---------------------------------------------------------------------------
                         Redundant Internal Coordinates
                            (Angstroem and degrees)

        Definition                    Value    dE/dq     Step     New-Value
    ----------------------------------------------------------------------------
     1. B(C   1,C   0)                1.3965 -0.004148  0.0036    1.4001   
     2. B(C   3,C   0)                1.4031 -0.001899  0.0016    1.4047   
     3. B(H   4,C   0)                1.0864 -0.005278  0.0075    1.0939   
     4. B(C   5,C   1)                1.3945 -0.004151  0.0036    1.3981   
     5. B(H   6,C   1)                1.0847 -0.005658  0.0080    1.0927   
     6. B(C   7,C   5)                1.3946 -0.005070  0.0044    1.3990   
     7. B(H   8,C   5)                1.0849 -0.005077  0.0072    1.0920   
     8. B(C   9,C   7)                1.3962 -0.003192  0.0027    1.3990   
     9. B(C   9,C   3)                1.4033 -0.001637  0.0013    1.4046   
    10. B(C   9,H   2)                1.0869 -0.005003  0.0071    1.0941   
    11. B(H  10,C   7)                1.0845 -0.005777  0.0082    1.0926   
    12. B(C  11,C   3)                1.5312 -0.004214  0.0059    1.5370   
    13. B(H  12,C  11)                1.1027 -0.019549  0.0295    1.1322   
    14. B(H  13,C  11)                1.1029 -0.020180  0.0304    1.1333   
    15. B(O  14,C  11)                1.3241 -0.034532  0.0254    1.3495   
    16. A(C   3,C   0,H   4)          118.88  0.000530   -0.05    118.82   
    17. A(C   1,C   0,H   4)          120.43  0.001606   -0.22    120.21   
    18. A(C   1,C   0,C   3)          120.68 -0.002140    0.28    120.97   
    19. A(C   0,C   1,C   5)          120.04  0.000183   -0.01    120.03   
    20. A(C   0,C   1,H   6)          119.57 -0.001301    0.20    119.77   
    21. A(C   5,C   1,H   6)          120.39  0.001112   -0.18    120.21   
    22. A(C   9,C   3,C  11)          120.69  0.000067    0.01    120.70   
    23. A(C   0,C   3,C   9)          118.62  0.002168   -0.32    118.30   
    24. A(C   0,C   3,C  11)          120.68 -0.002245    0.34    121.02   
    25. A(C   1,C   5,C   7)          119.93  0.002020   -0.25    119.68   
    26. A(C   7,C   5,H   8)          120.02 -0.001023    0.13    120.15   
    27. A(C   1,C   5,H   8)          120.05 -0.001005    0.13    120.18   
    28. A(C   5,C   7,H  10)          120.45  0.001241   -0.19    120.25   
    29. A(C   5,C   7,C   9)          119.98 -0.000229    0.04    120.02   
    30. A(C   9,C   7,H  10)          119.57 -0.001020    0.17    119.74   
    31. A(C   3,C   9,C   7)          120.74 -0.002006    0.26    121.00   
    32. A(H   2,C   9,C   7)          120.55  0.001852   -0.26    120.29   
    33. A(H   2,C   9,C   3)          118.70  0.000147    0.01    118.71   
    34. A(H  13,C  11,O  14)          118.87  0.012082   -2.05    116.83   
    35. A(H  12,C  11,O  14)          118.60  0.011226   -1.91    116.69   
    36. A(C   3,C  11,O  14)          107.91 -0.020190    2.69    110.60   
    37. A(H  12,C  11,H  13)           99.80 -0.003276    1.20    101.00   
    38. A(C   3,C  11,H  13)          104.84 -0.001343    0.32    105.15   
    39. A(C   3,C  11,H  12)          105.32  0.000604   -0.03    105.29   
    40. D(C   5,C   1,C   0,C   3)     -0.29 -0.000274    0.36      0.07   
    41. D(H   6,C   1,C   0,C   3)   -179.62  0.000382   -0.74   -180.36   
    42. D(C   5,C   1,C   0,H   4)    178.76 -0.000586    0.94    179.70   
    43. D(H   6,C   1,C   0,H   4)     -0.57  0.000070   -0.16     -0.73   
    44. D(C  11,C   3,C   0,C   1)   -178.82  0.002123   -4.18   -183.00   
    45. D(C   9,C   3,C   0,C   1)      0.79  0.000407   -0.42      0.37   
    46. D(C   9,C   3,C   0,H   4)   -178.28  0.000704   -0.98   -179.26   
    47. D(C  11,C   3,C   0,H   4)      2.11  0.002420   -4.75     -2.63   
    48. D(H   8,C   5,C   1,H   6)     -0.09 -0.000027    0.02     -0.07   
    49. D(H   8,C   5,C   1,C   0)   -179.42  0.000651   -1.09   -180.51   
    50. D(C   7,C   5,C   1,H   6)    178.98 -0.000578    0.89    179.87   
    51. D(C   7,C   5,C   1,C   0)     -0.34  0.000100   -0.22     -0.57   
    52. D(C   9,C   7,C   5,H   8)    179.53 -0.000605    1.01    180.54   
    53. D(C   9,C   7,C   5,C   1)      0.46 -0.000054    0.15      0.60   
    54. D(H  10,C   7,C   5,C   1)   -178.83  0.000655   -1.02   -179.85   
    55. D(H  10,C   7,C   5,H   8)      0.24  0.000104   -0.15      0.09   
    56. D(C   3,C   9,C   7,H  10)    179.35 -0.000500    0.94    180.30   
    57. D(H   2,C   9,C   7,H  10)      0.61 -0.000127    0.26      0.87   
    58. D(H   2,C   9,C   7,C   5)   -178.69  0.000560   -0.89   -179.58   
    59. D(C   7,C   9,C   3,C  11)    178.93 -0.002091    4.11    183.04   
    60. D(C   7,C   9,C   3,C   0)     -0.68 -0.000365    0.34     -0.33   
    61. D(C   3,C   9,C   7,C   5)      0.06  0.000186   -0.21     -0.15   
    62. D(H   2,C   9,C   3,C  11)     -2.30 -0.002436    4.77      2.47   
    63. D(H   2,C   9,C   3,C   0)    178.09 -0.000710    1.01    179.10   
    64. D(O  14,C  11,C   3,C   9)     84.95  0.000793   -1.66     83.28   
    65. D(O  14,C  11,C   3,C   0)    -95.45 -0.000951    2.18    -93.27   
    66. D(H  13,C  11,C   3,C   9)    -42.68 -0.001127   -0.97    -43.65   
    67. D(H  13,C  11,C   3,C   0)    136.92 -0.002871    2.87    139.80   
    68. D(H  12,C  11,C   3,C   9)   -147.46  0.002719   -2.39   -149.85   
    69. D(H  12,C  11,C   3,C   0)     32.14  0.000975    1.45     33.60   
    ----------------------------------------------------------------------------

         *************************************************************
         *                GEOMETRY OPTIMIZATION CYCLE   2            *
         *************************************************************
---------------------------------
CARTESIAN COORDINATES (ANGSTROEM)
---------------------------------
  C     -4.200681   -4.150091   -3.269149
  C     -2.892245   -4.646341   -3.225130
  H     -3.783478   -1.305752   -1.453104
  C     -4.540004   -2.947990   -2.626484
  H     -4.977662   -4.694336   -3.813937
  C     -1.900742   -3.944537   -2.533092
  H     -2.651505   -5.586557   -3.727204
  C     -2.220676   -2.740500   -1.896584
  H     -0.881250   -4.333556   -2.490243
  C     -3.530116   -2.250339   -1.943541
  H     -1.452553   -2.183106   -1.355198
  C     -5.959497   -2.367946   -2.731800
[...]
 244   0.0000       4.113098       111.9231 
 245   0.0000       4.118212       112.0622 
 246   0.0000       4.137943       112.5991 
 247   0.0000       4.145043       112.7924 
 248   0.0000       4.154363       113.0460 
 249   0.0000       4.197169       114.2108 
 250   0.0000       4.203399       114.3803 
 251   0.0000       4.223575       114.9293 
 252   0.0000       4.310307       117.2894 
 253   0.0000       4.397771       119.6694 
 254   0.0000       4.474516       121.7578 
 255   0.0000       4.546073       123.7049 
 256   0.0000       4.557458       124.0147 
 257   0.0000       4.606070       125.3375 
 258   0.0000       4.614544       125.5681 
 259   0.0000       4.619311       125.6978 
 260   0.0000       4.757930       129.4698 
 261   0.0000       4.762688       129.5993 
 262   0.0000       4.862165       132.3062 
 263   0.0000       4.960574       134.9841 
 264   0.0000       5.079874       138.2304 
 265   0.0000       5.094234       138.6212 
 266   0.0000       5.166909       140.5987 
 267   0.0000       5.177536       140.8879 
 268   0.0000       5.231633       142.3600 
 269   0.0000       5.291532       143.9899 
 270   0.0000       5.348462       145.5390 
 271   0.0000       5.393738       146.7711 
 272   0.0000       5.406471       147.1176 
 273   0.0000       5.548920       150.9938 
 274   0.0000       5.811066       158.1272 
 275   0.0000       5.847863       159.1284 
 276   0.0000       5.935897       161.5240 
 277   0.0000       6.337722       172.4582 
 278   0.0000       6.350345       172.8017 
 279   0.0000       6.733021       183.2148 
 280   0.0000       6.803258       185.1261 
 281   0.0000       6.903422       187.8517 
 282   0.0000      21.676385       589.8444 
 283   0.0000      22.228571       604.8702 
 284   0.0000      22.309318       607.0674 
 285   0.0000      22.324527       607.4813 
 286   0.0000      22.413295       609.8968 
 287   0.0000      22.499308       612.2373 
 288   0.0000      22.900583       623.1565 
 289   0.0000      43.476624      1183.0591 

                    ********************************
                    * MULLIKEN POPULATION ANALYSIS *
                    ********************************

-----------------------
MULLIKEN ATOMIC CHARGES
-----------------------
   0 C :   -0.229551
   1 C :   -0.142022
   2 H :    0.119535
   3 C :    0.214840
   4 H :    0.119141
   5 C :   -0.160635
   6 H :    0.125902
   7 C :   -0.141986
   8 H :    0.127922
   9 C :   -0.232733
  10 H :    0.125898
  11 C :   -0.109628
  12 H :   -0.000641
  13 H :   -0.001301
  14 O :   -0.814742
Sum of atomic charges:   -1.0000000

--------------------------------
MULLIKEN REDUCED ORBITAL CHARGES
--------------------------------
  0 C s       :     3.243095  s :     3.243095
      pz      :     0.976707  p :     2.890759
      px      :     0.957322
      py      :     0.956729
      dz2     :     0.008461  d :     0.088990
      dxz     :     0.021228
      dyz     :     0.010165
      dx2y2   :     0.018833
      dxy     :     0.030304
      f0      :     0.000744  f :     0.006707
      f+1     :     0.000280
      f-1     :     0.001201
      f+2     :     0.000949
      f-2     :     0.001029
      f+3     :     0.001376
      f-3     :     0.001127
  1 C s       :     3.201348  s :     3.201348
      pz      :     0.969254  p :     2.845994
      px      :     0.917126
      py      :     0.959614
      dz2     :     0.009267  d :     0.087948
      dxz     :     0.022526
      dyz     :     0.008660
      dx2y2   :     0.027348
      dxy     :     0.020147
      f0      :     0.000777  f :     0.006732
      f+1     :     0.000833
      f-1     :     0.000733
      f+2     :     0.001185
      f-2     :     0.000810
      f+3     :     0.001607
      f-3     :     0.000787
  2 H s       :     0.858792  s :     0.858792
      pz      :     0.006740  p :     0.021674
      px      :     0.004403
      py      :     0.010531
  3 C s       :     3.171183  s :     3.171183
      pz      :     0.849978  p :     2.472721
      px      :     0.821554
      py      :     0.801189
      dz2     :     0.018278  d :     0.131842
      dxz     :     0.022861
      dyz     :     0.022498
      dx2y2   :     0.033133
      dxy     :     0.035071
      f0      :     0.000557  f :     0.009414
      f+1     :     0.001095
      f-1     :     0.001676
      f+2     :     0.001309
      f-2     :     0.001301
      f+3     :     0.001995
      f-3     :     0.001480
  4 H s       :     0.859174  s :     0.859174
      pz      :     0.006718  p :     0.021685
      px      :     0.008502
      py      :     0.006465
  5 C s       :     3.204171  s :     3.204171
      pz      :     0.968410  p :     2.864520
      px      :     0.957114
      py      :     0.938996
      dz2     :     0.017019  d :     0.085231
      dxz     :     0.009078
      dyz     :     0.015622
      dx2y2   :     0.023274
      dxy     :     0.020238
      f0      :     0.000277  f :     0.006713
      f+1     :     0.000990
      f-1     :     0.001478
      f+2     :     0.000969
      f-2     :     0.000879
      f+3     :     0.001115
      f-3     :     0.001006
  6 H s       :     0.852559  s :     0.852559
      pz      :     0.006559  p :     0.021539
      px      :     0.004301
      py      :     0.010678
  7 C s       :     3.201238  s :     3.201238
      pz      :     0.970755  p :     2.846100
      px      :     0.933316
      py      :     0.942029
      dz2     :     0.008705  d :     0.087914
      dxz     :     0.020677
      dyz     :     0.010232
      dx2y2   :     0.019468
      dxy     :     0.028832
      f0      :     0.000758  f :     0.006734
      f+1     :     0.000266
      f-1     :     0.001307
      f+2     :     0.000956
      f-2     :     0.001052
      f+3     :     0.001325
      f-3     :     0.001069
  8 H s       :     0.850472  s :     0.850472
      pz      :     0.004672  p :     0.021606
      px      :     0.011728
      py      :     0.005206
  9 C s       :     3.245918  s :     3.245918
      pz      :     0.991414  p :     2.891283
      px      :     0.936746
      py      :     0.963123
      dz2     :     0.008647  d :     0.088824
      dxz     :     0.021138
      dyz     :     0.009578
      dx2y2   :     0.029659
      dxy     :     0.019802
      f0      :     0.000754  f :     0.006707
      f+1     :     0.000823
      f-1     :     0.000675
      f+2     :     0.001217
      f-2     :     0.000830
      f+3     :     0.001601
      f-3     :     0.000808
 10 H s       :     0.852564  s :     0.852564
      pz      :     0.006820  p :     0.021539
      px      :     0.008311
      py      :     0.006408
 11 C s       :     3.252513  s :     3.252513
      pz      :     0.854912  p :     2.720009
      px      :     0.946518
      py      :     0.918579
      dz2     :     0.035303  d :     0.127584
      dxz     :     0.029953
      dyz     :     0.018838
      dx2y2   :     0.013641
      dxy     :     0.029850
      f0      :     0.001727  f :     0.009522
      f+1     :     0.000978
      f-1     :     0.002112
      f+2     :     0.001196
      f-2     :     0.001734
      f+3     :     0.001098
      f-3     :     0.000676
 12 H s       :     0.981457  s :     0.981457
      pz      :     0.003567  p :     0.019184
      px      :     0.007197
      py      :     0.008420
 13 H s       :     0.982128  s :     0.982128
      pz      :     0.009730  p :     0.019173
      px      :     0.004549
      py      :     0.004893
 14 O s       :     3.829582  s :     3.829582
      pz      :     1.514203  p :     4.961843
      px      :     1.812623
      py      :     1.635017
      dz2     :     0.005942  d :     0.022062
      dxz     :     0.003134
      dyz     :     0.008438
      dx2y2   :     0.002366
      dxy     :     0.002182
      f0      :     0.000206  f :     0.001256
      f+1     :     0.000084
      f-1     :     0.000427
      f+2     :     0.000257
      f-2     :     0.000190
      f+3     :     0.000046
      f-3     :     0.000046


                     *******************************
                     * LOEWDIN POPULATION ANALYSIS *
                     *******************************

----------------------
LOEWDIN ATOMIC CHARGES
----------------------
   0 C :   -0.145631
   1 C :   -0.168367
   2 H :    0.147469
   3 C :   -0.163451
   4 H :    0.147306
   5 C :   -0.174852
   6 H :    0.146693
   7 C :   -0.168343
   8 H :    0.146432
   9 C :   -0.145392
  10 H :    0.146685
  11 C :   -0.498527
  12 H :    0.081287
  13 H :    0.081065
  14 O :   -0.432375

-------------------------------
LOEWDIN REDUCED ORBITAL CHARGES
-------------------------------
  0 C s       :     2.771076  s :     2.771076
      pz      :     0.936079  p :     2.951628
      px      :     1.019556
      py      :     0.995992
      dz2     :     0.032589  d :     0.382149
      dxz     :     0.079621
      dyz     :     0.050439
      dx2y2   :     0.090761
      dxy     :     0.128738
      f0      :     0.004369  f :     0.040778
      f+1     :     0.002638
      f-1     :     0.004434
      f+2     :     0.006627
      f-2     :     0.005119
      f+3     :     0.009567
      f-3     :     0.008025
  1 C s       :     2.775852  s :     2.775852
      pz      :     0.935893  p :     2.964853
      px      :     1.059948
      py      :     0.969013
      dz2     :     0.036261  d :     0.386050
      dxz     :     0.089128
      dyz     :     0.042962
      dx2y2   :     0.120278
      dxy     :     0.097421
      f0      :     0.004549  f :     0.041611
      f+1     :     0.005187
      f-1     :     0.002404
      f+2     :     0.005950
      f-2     :     0.006104
      f+3     :     0.010679
      f-3     :     0.006738
  2 H s       :     0.793884  s :     0.793884
      pz      :     0.018217  p :     0.058647
      px      :     0.012172
      py      :     0.028258
  3 C s       :     2.740616  s :     2.740616
      pz      :     0.881465  p :     2.862792
      px      :     1.005015
      py      :     0.976312
      dz2     :     0.069999  d :     0.505323
      dxz     :     0.085749
      dyz     :     0.078351
      dx2y2   :     0.134412
      dxy     :     0.136813
      f0      :     0.004656  f :     0.054720
      f+1     :     0.005607
      f-1     :     0.005841
      f+2     :     0.008611
      f-2     :     0.008081
      f+3     :     0.012721
      f-3     :     0.009202
  4 H s       :     0.794014  s :     0.794014
      pz      :     0.018181  p :     0.058680
      px      :     0.022968
      py      :     0.017531
  5 C s       :     2.775455  s :     2.775455
      pz      :     0.961627  p :     2.974799
      px      :     0.994667
      py      :     1.018505
      dz2     :     0.066293  d :     0.382928
      dxz     :     0.042931
      dyz     :     0.067560
      dx2y2   :     0.108126
      dxy     :     0.098018
      f0      :     0.003158  f :     0.041670
      f+1     :     0.005175
      f-1     :     0.004766
      f+2     :     0.006720
      f-2     :     0.006514
      f+3     :     0.008260
      f-3     :     0.007077
  6 H s       :     0.794605  s :     0.794605
      pz      :     0.017797  p :     0.058701
      px      :     0.012237
      py      :     0.028667
  7 C s       :     2.775829  s :     2.775829
      pz      :     0.935400  p :     2.964901
      px      :     1.024497
      py      :     1.005005
      dz2     :     0.034733  d :     0.385997
      dxz     :     0.081526
      dyz     :     0.052184
      dx2y2   :     0.093094
      dxy     :     0.124460
      f0      :     0.004431  f :     0.041616
      f+1     :     0.002698
      f-1     :     0.004987
      f+2     :     0.006845
      f-2     :     0.005138
      f+3     :     0.009347
      f-3     :     0.008170
  8 H s       :     0.794536  s :     0.794536
      pz      :     0.012963  p :     0.059032
      px      :     0.031579
      py      :     0.014491
  9 C s       :     2.771043  s :     2.771043
      pz      :     0.937639  p :     2.951288
      px      :     1.047460
      py      :     0.966189
      dz2     :     0.034956  d :     0.382263
      dxz     :     0.083960
      dyz     :     0.044830
      dx2y2   :     0.123448
      dxy     :     0.095069
      f0      :     0.004501  f :     0.040798
      f+1     :     0.004817
      f-1     :     0.002238
      f+2     :     0.006032
      f-2     :     0.005972
      f+3     :     0.010451
      f-3     :     0.006786
 10 H s       :     0.794611  s :     0.794611
      pz      :     0.018499  p :     0.058704
      px      :     0.022629
      py      :     0.017576
 11 C s       :     2.816099  s :     2.816099
      pz      :     0.960502  p :     2.949742
      px      :     1.003444
      py      :     0.985796
      dz2     :     0.192939  d :     0.657785
      dxz     :     0.107624
      dyz     :     0.125792
      dx2y2   :     0.077816
      dxy     :     0.153614
      f0      :     0.011402  f :     0.074901
      f+1     :     0.011199
      f-1     :     0.014815
      f+2     :     0.012536
      f-2     :     0.011255
      f+3     :     0.007836
      f-3     :     0.005858
 12 H s       :     0.865377  s :     0.865377
      pz      :     0.009613  p :     0.053336
      px      :     0.018539
      py      :     0.025184
 13 H s       :     0.865583  s :     0.865583
      pz      :     0.028069  p :     0.053352
      px      :     0.011355
      py      :     0.013928
 14 O s       :     3.506886  s :     3.506886
      pz      :     1.546933  p :     4.867844
      px      :     1.706692
      py      :     1.614219
      dz2     :     0.015296  d :     0.053719
      dxz     :     0.008483
      dyz     :     0.018324
      dx2y2   :     0.005743
      dxy     :     0.005873
      f0      :     0.000768  f :     0.003927
      f+1     :     0.000265
      f-1     :     0.001184
      f+2     :     0.000755
      f-2     :     0.000649
      f+3     :     0.000158
      f-3     :     0.000148


                      *****************************
                      * MAYER POPULATION ANALYSIS *
                      *****************************

  NA   - Mulliken gross atomic population
  ZA   - Total nuclear charge
  QA   - Mulliken gross atomic charge
  VA   - Mayer's total valence
  BVA  - Mayer's bonded valence
  FA   - Mayer's free valence

  ATOM       NA         ZA         QA         VA         BVA        FA
  0 C      6.2296     6.0000    -0.2296     3.9316     3.9316     0.0000
  1 C      6.1420     6.0000    -0.1420     3.8779     3.8779     0.0000
  2 H      0.8805     1.0000     0.1195     0.9642     0.9642     0.0000
  3 C      5.7852     6.0000     0.2148     3.3704     3.3704     0.0000
  4 H      0.8809     1.0000     0.1191     0.9646     0.9646     0.0000
  5 C      6.1606     6.0000    -0.1606     3.8819     3.8819     0.0000
  6 H      0.8741     1.0000     0.1259     0.9621     0.9621     0.0000
  7 C      6.1420     6.0000    -0.1420     3.8777     3.8777     0.0000
  8 H      0.8721     1.0000     0.1279     0.9626     0.9626    -0.0000
  9 C      6.2327     6.0000    -0.2327     3.9340     3.9340     0.0000
 10 H      0.8741     1.0000     0.1259     0.9621     0.9621    -0.0000
 11 C      6.1096     6.0000    -0.1096     4.2916     4.2916     0.0000
 12 H      1.0006     1.0000    -0.0006     0.9201     0.9201     0.0000
 13 H      1.0013     1.0000    -0.0013     0.9198     0.9198    -0.0000
 14 O      8.8147     8.0000    -0.8147     1.5676     1.5676     0.0000

  Mayer bond orders larger than 0.100000
B(  0-C ,  1-C ) :   1.4007 B(  0-C ,  3-C ) :   1.3381 B(  0-C ,  4-H ) :   0.9782 
B(  1-C ,  5-C ) :   1.3813 B(  1-C ,  6-H ) :   0.9712 B(  2-H ,  9-C ) :   0.9793 
B(  3-C ,  9-C ) :   1.3332 B(  3-C , 11-C ) :   0.8118 B(  3-C , 14-O ) :  -0.1652 
B(  5-C ,  7-C ) :   1.3791 B(  5-C ,  8-H ) :   0.9663 B(  7-C ,  9-C ) :   1.4024 
B(  7-C , 10-H ) :   0.9712 B( 11-C , 12-H ) :   0.9294 B( 11-C , 13-H ) :   0.9296 
B( 11-C , 14-O ) :   1.5621 

-------
TIMINGS
-------

Total SCF time: 0 days 0 hours 0 min 32 sec 

Total time                  ....      32.011 sec
Sum of individual times     ....      29.290 sec  ( 91.5%)

Fock matrix formation       ....      27.747 sec  ( 86.7%)
  Split-RI-J                ....       5.148 sec  ( 18.6% of F)
  XC integration            ....      13.299 sec  ( 47.9% of F)
    Basis function eval.    ....       4.254 sec  ( 32.0% of XC)
    Density eval.           ....       3.454 sec  ( 26.0% of XC)
    XC-Functional eval.     ....       0.544 sec  (  4.1% of XC)
    XC-Potential eval.      ....       3.327 sec  ( 25.0% of XC)
Diagonalization             ....       0.018 sec  (  0.1%)
Density matrix formation    ....       0.008 sec  (  0.0%)
Population analysis         ....       0.157 sec  (  0.5%)
Initial guess               ....       0.021 sec  (  0.1%)
Orbital Transformation      ....       0.000 sec  (  0.0%)
Orbital Orthonormalization  ....       0.017 sec  (  0.1%)
DIIS solution               ....       0.004 sec  (  0.0%)
SOSCF solution              ....       0.350 sec  (  1.1%)
Grid generation             ....       0.985 sec  (  3.1%)

Maximum memory used throughout the entire SCF-calculation: 117.2 MB

-------------------------   --------------------
FINAL SINGLE POINT ENERGY      -345.969609150631
-------------------------   --------------------

                                *** OPTIMIZATION RUN DONE ***

                            ***************************************
                            *     ORCA property calculations      *
                            ***************************************

                                    ---------------------
                                    Active property flags
                                    ---------------------
   (+) Dipole Moment


------------------------------------------------------------------------------
                       ORCA ELECTRIC PROPERTIES CALCULATION
------------------------------------------------------------------------------

Dipole Moment Calculation                       ... on
Quadrupole Moment Calculation                   ... off
Polarizability Calculation                      ... off
GBWName                                         ... inp.gbw
Electron density                                ... inp.scfp
The origin for moment calculation is the CENTER OF MASS  = (-7.528439, -5.737542 -5.235528)

-------------
DIPOLE MOMENT
-------------
                                X             Y             Z
Electronic contribution:      2.13371      -0.49485      -0.34581
Nuclear contribution   :      1.20064      -1.86096       1.94721
                        -----------------------------------------
Total Dipole Moment    :      3.33434      -2.35581       1.60141
                        -----------------------------------------
Magnitude (a.u.)       :      4.38545
Magnitude (Debye)      :     11.14694



--------------------
Rotational spectrum 
--------------------
 
Rotational constants in cm-1:     0.157174     0.050087     0.041141 
Rotational constants in MHz :  4711.958756  1501.560492  1233.370901 

 Dipole components along the rotational axes: 
x,y,z [a.u.] :    -4.256033    -0.016111     1.057415 
x,y,z [Debye]:   -10.817976    -0.040951     2.687734 

 

Timings for individual modules:

Sum of individual times         ...      517.469 sec (=   8.624 min)
GTO integral calculation        ...       13.848 sec (=   0.231 min)   2.7 %
SCF iterations                  ...      375.907 sec (=   6.265 min)  72.6 %
SCF Gradient evaluation         ...      126.505 sec (=   2.108 min)  24.4 %
Geometry relaxation             ...        1.209 sec (=   0.020 min)   0.2 %
                             ****ORCA TERMINATED NORMALLY****
TOTAL RUN TIME: 0 days 0 hours 8 minutes 43 seconds 763 msec
