 Entering Gaussian System
 *********************************************
 Gaussian 98:
 frequency output generated by the xtb code
 *********************************************
                         Standard orientation:
 --------------------------------------------------------------------
  Center     Atomic     Atomic              Coordinates (Angstroms)
  Number     Number      Type              X           Y           Z
 --------------------------------------------------------------------
    1          6             0       -5.181188   -6.300683    2.945842
    2          6             0       -4.993462   -5.047952    3.515907
    3          6             0       -6.105874   -7.318165    3.553837
    4          6             0       -4.475310   -6.584183    1.780507
    5          6             0       -4.146161   -4.118093    2.958490
    6          1             0       -5.527507   -4.791152    4.424846
    7          6             0       -3.414736   -4.381220    1.770990
    8          1             0       -4.014744   -3.144973    3.421513
    9          6             0       -3.624398   -5.668932    1.208821
   10          8             0       -2.618527   -3.517461    1.242343
   11          1             0       -4.599882   -7.553504    1.309562
   12          1             0       -6.572970   -6.917390    4.450084
   13          1             0       -6.887845   -7.595975    2.847046
   14          1             0       -5.558259   -8.222273    3.820393
   15          1             0       -3.083199   -5.911231    0.299398
 --------------------------------------------------------------------
     1 basis functions        1 primitive gaussians
     1 alpha electrons        1 beta electrons
 
 Harmonic frequencies (cm**-1), IR intensities (km*mol⁻¹),
 Raman scattering activities (A**4/amu), Raman depolarization ratios,
 reduced masses (AMU), force constants (mDyne/A) and normal coordinates:
                      1                      2                      3
                        a                      a                      a 
 Frequencies --    13.8264               130.2010               305.5540
 Red. masses --     1.4719                11.5199                 9.5992
 Frc consts  --     0.0000                 0.0000                 0.0000
 IR Inten    --     0.0587                 5.2623                 1.2591
 Raman Activ --     0.0000                 0.0000                 0.0000
 Depolar     --     0.0000                 0.0000                 0.0000
 Atom AN      X      Y      Z        X      Y      Z        X      Y      Z
   1   6    -0.04   0.02  -0.03     0.07  -0.03   0.05    -0.05   0.20   0.22
   2   6     0.03  -0.02   0.02     0.20  -0.10   0.15    -0.03   0.22   0.19
   3   6     0.05  -0.02   0.04    -0.35   0.17  -0.25     0.13  -0.33  -0.40
   4   6    -0.09   0.04  -0.07     0.19  -0.09   0.14    -0.09   0.13   0.22
   5   6     0.05  -0.03   0.04     0.22  -0.10   0.16     0.03   0.15   0.05
   6   1     0.02  -0.01   0.01     0.07  -0.03   0.05     0.00   0.09   0.05
   7   6     0.01  -0.01   0.01     0.00  -0.00   0.00    -0.02   0.01   0.02
   8   1     0.03  -0.01   0.02     0.07  -0.03   0.05     0.02   0.05  -0.01
   9   6    -0.07   0.03  -0.05     0.20  -0.10   0.14    -0.09   0.00   0.12
  10   8     0.04  -0.02   0.03    -0.43   0.21  -0.31     0.08  -0.26  -0.27
  11   1    -0.05   0.02  -0.03     0.06  -0.03   0.04    -0.05   0.03   0.09
  12   1    -0.39   0.19  -0.29    -0.19   0.09  -0.14    -0.08  -0.29  -0.09
  13   1     0.34  -0.44  -0.17    -0.03   0.08  -0.16     0.13  -0.07  -0.23
  14   1     0.14   0.22   0.52    -0.19   0.02   0.01     0.12  -0.08  -0.22
  15   1    -0.04   0.02  -0.03     0.06  -0.03   0.05    -0.04  -0.02   0.03
                      4                      5                      6
                        a                      a                      a 
 Frequencies --   310.9514               372.3770               437.5805
 Red. masses --    10.3427                 9.3818                11.9785
 Frc consts  --     0.0000                 0.0000                 0.0000
 IR Inten    --     5.7761                 0.0108                14.3215
 Raman Activ --     0.0000                 0.0000                 0.0000
 Depolar     --     0.0000                 0.0000                 0.0000
 Atom AN      X      Y      Z        X      Y      Z        X      Y      Z
   1   6     0.40  -0.20   0.29    -0.01   0.01  -0.01     0.02   0.21   0.11
   2   6     0.16  -0.08   0.11    -0.33   0.16  -0.24     0.00   0.20   0.12
   3   6    -0.16   0.08  -0.11     0.00  -0.00   0.00     0.11   0.05  -0.11
   4   6     0.18  -0.09   0.12     0.32  -0.15   0.23    -0.07   0.02   0.10
   5   6    -0.26   0.12  -0.19     0.34  -0.16   0.25     0.08  -0.16  -0.22
   6   1     0.05  -0.03   0.04    -0.20   0.09  -0.14     0.03   0.11   0.03
   7   6    -0.16   0.08  -0.12     0.00  -0.00   0.00     0.01  -0.30  -0.21
   8   1    -0.11   0.05  -0.08     0.18  -0.08   0.13     0.11  -0.01  -0.16
   9   6    -0.28   0.14  -0.21    -0.33   0.16  -0.24     0.05  -0.29  -0.27
  10   8     0.22  -0.10   0.16    -0.00   0.00  -0.00    -0.21   0.27   0.48
  11   1     0.06  -0.03   0.04     0.20  -0.09   0.14    -0.09  -0.02   0.11
  12   1    -0.13   0.07  -0.10     0.00  -0.00   0.00    -0.01  -0.06  -0.02
  13   1     0.02   0.14  -0.15    -0.00  -0.01   0.01     0.06   0.02  -0.07
  14   1    -0.20  -0.05   0.03     0.01   0.00  -0.00     0.06   0.02  -0.07
  15   1    -0.13   0.06  -0.09    -0.17   0.08  -0.12    -0.02  -0.16  -0.08
                      7                      8                      9
                        a                      a                      a 
 Frequencies --   444.4981               476.9184               617.6925
 Red. masses --    12.1340                 8.4364                11.5250
 Frc consts  --     0.0000                 0.0000                 0.0000
 IR Inten    --    11.6309                 0.0271                 2.6772
 Raman Activ --     0.0000                 0.0000                 0.0000
 Depolar     --     0.0000                 0.0000                 0.0000
 Atom AN      X      Y      Z        X      Y      Z        X      Y      Z
   1   6     0.24   0.19  -0.20     0.36  -0.17   0.26    -0.02   0.05   0.06
   2   6    -0.02   0.08   0.09    -0.21   0.10  -0.15    -0.31  -0.10   0.36
   3   6     0.28   0.34  -0.16     0.02  -0.01   0.01    -0.02   0.05   0.06
   4   6     0.08  -0.12  -0.20    -0.20   0.10  -0.14     0.20   0.45   0.03
   5   6    -0.10   0.16   0.24     0.06  -0.03   0.04    -0.20  -0.38   0.02
   6   1    -0.05  -0.07   0.02    -0.24   0.11  -0.17    -0.08  -0.01   0.10
   7   6    -0.25  -0.18   0.23     0.36  -0.17   0.26     0.02  -0.06  -0.06
   8   1     0.00   0.05   0.03    -0.18   0.09  -0.13    -0.04  -0.10  -0.01
   9   6     0.01  -0.08  -0.06     0.05  -0.02   0.04     0.28   0.14  -0.30
  10   8    -0.26  -0.42   0.08    -0.15   0.07  -0.11     0.05  -0.17  -0.18
  11   1    -0.01  -0.05  -0.02    -0.24   0.11  -0.17     0.04   0.12   0.02
  12   1     0.09   0.12  -0.05    -0.03   0.02  -0.02     0.02   0.06   0.01
  13   1     0.06   0.09  -0.03     0.03   0.08  -0.06    -0.03   0.01   0.05
  14   1     0.07   0.09  -0.03    -0.09  -0.05   0.02    -0.03   0.01   0.05
  15   1     0.05   0.09  -0.01    -0.18   0.09  -0.13     0.07   0.02  -0.08
                     10                     11                     12
                        a                      a                      a 
 Frequencies --   654.9957               762.4559               779.3854
 Red. masses --    10.3476                11.0560                 6.1400
 Frc consts  --     0.0000                 0.0000                 0.0000
 IR Inten    --     6.7812                28.7568                36.4377
 Raman Activ --     0.0000                 0.0000                 0.0000
 Depolar     --     0.0000                 0.0000                 0.0000
 Atom AN      X      Y      Z        X      Y      Z        X      Y      Z
   1   6     0.30  -0.14   0.22    -0.04  -0.04   0.03     0.11  -0.05   0.08
   2   6    -0.25   0.12  -0.18     0.19   0.19  -0.14    -0.12   0.06  -0.09
   3   6     0.04  -0.02   0.03    -0.31  -0.35   0.20     0.03  -0.01   0.02
   4   6    -0.25   0.12  -0.18     0.17   0.21  -0.09    -0.11   0.05  -0.08
   5   6     0.19  -0.09   0.14     0.13   0.34   0.04    -0.21   0.10  -0.15
   6   1     0.03  -0.01   0.02     0.06   0.07  -0.03     0.21  -0.10   0.15
   7   6    -0.42   0.20  -0.30    -0.11  -0.13   0.07     0.35  -0.17   0.25
   8   1     0.19  -0.09   0.14     0.10   0.12  -0.06     0.33  -0.16   0.24
   9   6     0.19  -0.09   0.14     0.22   0.05  -0.28    -0.21   0.10  -0.15
  10   8     0.09  -0.04   0.07    -0.22  -0.24   0.15    -0.10   0.05  -0.08
  11   1     0.02  -0.01   0.02     0.06   0.06  -0.05     0.20  -0.10   0.15
  12   1    -0.03   0.02  -0.02    -0.08  -0.09   0.05    -0.03   0.01  -0.02
  13   1     0.04   0.08  -0.06    -0.09  -0.10   0.06     0.03   0.06  -0.04
  14   1    -0.09  -0.06   0.03    -0.09  -0.10   0.06    -0.07  -0.04   0.02
  15   1     0.19  -0.09   0.14     0.10   0.09  -0.07     0.32  -0.15   0.23
                     13                     14                     15
                        a                      a                      a 
 Frequencies --   843.1427               870.6764               889.7373
 Red. masses --     3.3027                11.7034                 2.3985
 Frc consts  --     0.0000                 0.0000                 0.0000
 IR Inten    --     0.0079                 2.7298                 0.2394
 Raman Activ --     0.0000                 0.0000                 0.0000
 Depolar     --     0.0000                 0.0000                 0.0000
 Atom AN      X      Y      Z        X      Y      Z        X      Y      Z
   1   6    -0.00   0.00  -0.00    -0.06  -0.07   0.04    -0.02   0.01  -0.02
   2   6    -0.15   0.07  -0.11     0.20  -0.15  -0.38    -0.18   0.08  -0.13
   3   6    -0.00   0.00  -0.00     0.13   0.14  -0.09     0.01  -0.00   0.00
   4   6     0.16  -0.08   0.11     0.01   0.39   0.24    -0.13   0.06  -0.09
   5   6    -0.19   0.09  -0.14     0.08  -0.24  -0.27     0.12  -0.06   0.08
   6   1     0.27  -0.13   0.19     0.10   0.05  -0.11     0.45  -0.22   0.33
   7   6    -0.01   0.00  -0.00    -0.07  -0.08   0.05     0.06  -0.03   0.04
   8   1     0.39  -0.19   0.28     0.00  -0.08  -0.05    -0.31   0.15  -0.22
   9   6     0.19  -0.09   0.14    -0.09   0.24   0.28     0.08  -0.04   0.06
  10   8     0.00  -0.00   0.00    -0.24  -0.26   0.16     0.00  -0.00   0.00
  11   1    -0.28   0.13  -0.20     0.07   0.14  -0.01     0.36  -0.17   0.26
  12   1     0.00  -0.00   0.00     0.05   0.06  -0.03    -0.01   0.01  -0.01
  13   1    -0.00  -0.01   0.01     0.04   0.04  -0.03     0.01   0.03  -0.02
  14   1     0.01   0.01  -0.00     0.04   0.04  -0.03    -0.03  -0.02   0.00
  15   1    -0.39   0.19  -0.28    -0.04   0.03   0.08    -0.26   0.12  -0.19
                     16                     17                     18
                        a                      a                      a 
 Frequencies --   904.5912               997.4308              1003.8608
 Red. masses --     3.6550                 8.3130                 4.1699
 Frc consts  --     0.0000                 0.0000                 0.0000
 IR Inten    --     0.0037                 3.5190                 7.8420
 Raman Activ --     0.0000                 0.0000                 0.0000
 Depolar     --     0.0000                 0.0000                 0.0000
 Atom AN      X      Y      Z        X      Y      Z        X      Y      Z
   1   6     0.00  -0.00   0.00    -0.08  -0.11   0.05     0.03  -0.07  -0.09
   2   6    -0.19   0.09  -0.14     0.09  -0.22  -0.27    -0.04   0.15   0.16
   3   6    -0.00   0.00  -0.00     0.10   0.06  -0.10     0.10  -0.27  -0.31
   4   6     0.23  -0.11   0.16    -0.08   0.27   0.28    -0.04   0.04   0.08
   5   6     0.14  -0.07   0.10    -0.08   0.28   0.29     0.04   0.06  -0.01
   6   1     0.33  -0.16   0.24    -0.05  -0.21  -0.07     0.01   0.09   0.05
   7   6    -0.01   0.00  -0.00     0.01   0.01  -0.01     0.02  -0.05  -0.07
   8   1    -0.24   0.11  -0.17    -0.18   0.01   0.25     0.10   0.06  -0.11
   9   6    -0.17   0.08  -0.12     0.08  -0.25  -0.29    -0.08   0.02   0.13
  10   8     0.00   0.00  -0.00     0.05   0.05  -0.03    -0.00   0.01   0.01
  11   1    -0.42   0.20  -0.30    -0.14   0.02   0.20    -0.00   0.02   0.02
  12   1     0.00  -0.00   0.00     0.08   0.11  -0.04     0.35   0.49  -0.15
  13   1    -0.01  -0.01   0.01    -0.01   0.02   0.01    -0.27  -0.09   0.25
  14   1     0.01   0.01  -0.00     0.00   0.02   0.02    -0.22  -0.11   0.28
  15   1     0.30  -0.14   0.22    -0.09  -0.31  -0.08    -0.06  -0.06   0.03
                     19                     20                     21
                        a                      a                      a 
 Frequencies --  1035.8830              1126.2463              1193.2017
 Red. masses --     4.2570                 3.4902                 1.9509
 Frc consts  --     0.0000                 0.0000                 0.0000
 IR Inten    --     3.8296                 0.2680                55.1771
 Raman Activ --     0.0000                 0.0000                 0.0000
 Depolar     --     0.0000                 0.0000                 0.0000
 Atom AN      X      Y      Z        X      Y      Z        X      Y      Z
   1   6    -0.25   0.12  -0.18     0.04  -0.12  -0.14     0.02   0.04  -0.01
   2   6     0.02  -0.01   0.02    -0.09  -0.01   0.11     0.03   0.15   0.05
   3   6     0.32  -0.15   0.23    -0.02   0.07   0.07    -0.01  -0.01   0.01
   4   6     0.04  -0.02   0.02     0.04   0.13   0.03     0.08  -0.03  -0.13
   5   6     0.01  -0.01   0.01     0.01   0.17   0.10    -0.05  -0.04   0.04
   6   1    -0.03   0.02  -0.02    -0.20  -0.38   0.03     0.19   0.42   0.01
   7   6    -0.01   0.00  -0.01     0.05  -0.17  -0.18     0.05   0.05  -0.03
   8   1    -0.01   0.00  -0.01     0.27   0.16  -0.27    -0.33  -0.14   0.36
   9   6     0.01  -0.00   0.01    -0.09   0.06   0.16    -0.04  -0.06   0.01
  10   8     0.00  -0.00   0.00    -0.00   0.01   0.01    -0.06  -0.07   0.04
  11   1    -0.05   0.02  -0.03     0.29   0.15  -0.30     0.30   0.11  -0.34
  12   1    -0.17   0.08  -0.13    -0.07  -0.10   0.03    -0.00  -0.01   0.00
  13   1     0.20   0.45  -0.28     0.05   0.01  -0.05     0.00  -0.01  -0.00
  14   1    -0.45  -0.34   0.11     0.03   0.02  -0.06    -0.00  -0.01  -0.01
  15   1    -0.01   0.01  -0.01    -0.21  -0.38   0.04    -0.21  -0.44  -0.00
                     22                     23                     24
                        a                      a                      a 
 Frequencies --  1234.1209              1255.7158              1315.3819
 Red. masses --     7.3843                 6.2786                 7.4740
 Frc consts  --     0.0000                 0.0000                 0.0000
 IR Inten    --    86.4364                 0.7753                16.2367
 Raman Activ --     0.0000                 0.0000                 0.0000
 Depolar     --     0.0000                 0.0000                 0.0000
 Atom AN      X      Y      Z        X      Y      Z        X      Y      Z
   1   6     0.38   0.38  -0.28     0.01   0.02   0.00     0.09  -0.32  -0.34
   2   6     0.08   0.11  -0.04    -0.08  -0.19  -0.02     0.02   0.07   0.02
   3   6    -0.17  -0.19   0.11    -0.01  -0.00   0.02    -0.02   0.07   0.08
   4   6     0.06   0.08  -0.04     0.14   0.04  -0.16    -0.06   0.00   0.08
   5   6    -0.01  -0.16  -0.08     0.05  -0.06  -0.11    -0.20   0.01   0.29
   6   1    -0.13  -0.31  -0.02     0.10   0.20  -0.01     0.19   0.41   0.00
   7   6     0.07   0.04  -0.07    -0.12   0.39   0.43     0.05  -0.22  -0.21
   8   1    -0.17  -0.11   0.16     0.28   0.09  -0.33     0.09   0.06  -0.08
   9   6    -0.07   0.10   0.16     0.00  -0.09  -0.07     0.09   0.30   0.08
  10   8    -0.07  -0.07   0.05     0.00  -0.04  -0.03     0.02   0.02  -0.01
  11   1    -0.24  -0.08   0.28    -0.16  -0.07   0.17    -0.24  -0.09   0.27
  12   1    -0.08  -0.11   0.04    -0.00  -0.00   0.00    -0.05  -0.07   0.02
  13   1    -0.08  -0.06   0.07     0.00   0.00  -0.01     0.08  -0.01  -0.07
  14   1    -0.08  -0.06   0.07     0.01   0.00  -0.01     0.04   0.01  -0.10
  15   1    -0.13  -0.20   0.04    -0.19  -0.43  -0.02    -0.06  -0.09   0.02
                     25                     26                     27
                        a                      a                      a 
 Frequencies --  1371.2322              1395.4750              1434.3479
 Red. masses --    11.6698                 3.1888                10.6062
 Frc consts  --     0.0000                 0.0000                 0.0000
 IR Inten    --   470.8314                 0.6604               109.3900
 Raman Activ --     0.0000                 0.0000                 0.0000
 Depolar     --     0.0000                 0.0000                 0.0000
 Atom AN      X      Y      Z        X      Y      Z        X      Y      Z
   1   6    -0.21  -0.25   0.13     0.01   0.02  -0.00    -0.03   0.07   0.09
   2   6    -0.11   0.04   0.17    -0.03  -0.01   0.04     0.28   0.32  -0.17
   3   6     0.11   0.13  -0.06    -0.26  -0.30   0.16     0.01  -0.06  -0.05
   4   6    -0.02  -0.18  -0.09     0.02  -0.01  -0.03    -0.28  -0.30   0.19
   5   6     0.18   0.15  -0.15     0.04   0.03  -0.04    -0.27  -0.32   0.16
   6   1    -0.10  -0.13   0.06    -0.03  -0.04   0.01    -0.04  -0.17  -0.05
   7   6     0.33   0.33  -0.24     0.03   0.01  -0.03    -0.03   0.14   0.13
   8   1    -0.07   0.00   0.10    -0.03  -0.01   0.03     0.09  -0.03  -0.14
   9   6     0.16   0.25  -0.05    -0.00   0.03   0.02     0.28   0.28  -0.21
  10   8    -0.28  -0.31   0.19    -0.03  -0.02   0.02     0.01  -0.05  -0.04
  11   1    -0.14  -0.11   0.12    -0.03  -0.02   0.02     0.10  -0.01  -0.14
  12   1    -0.00  -0.02  -0.01     0.25   0.44  -0.06     0.03   0.03  -0.02
  13   1     0.01  -0.01   0.01     0.17   0.35  -0.34    -0.03   0.05   0.01
  14   1    -0.01   0.00  -0.01     0.45   0.22  -0.13     0.03   0.02   0.05
  15   1    -0.04  -0.12  -0.03    -0.01  -0.02   0.00    -0.02  -0.15  -0.07
                     28                     29                     30
                        a                      a                      a 
 Frequencies --  1485.7832              1490.9200              1516.7585
 Red. masses --     1.5735                 2.5635                10.4262
 Frc consts  --     0.0000                 0.0000                 0.0000
 IR Inten    --     1.2758                 2.2779               521.6509
 Raman Activ --     0.0000                 0.0000                 0.0000
 Depolar     --     0.0000                 0.0000                 0.0000
 Atom AN      X      Y      Z        X      Y      Z        X      Y      Z
   1   6     0.03  -0.01   0.02    -0.04   0.08   0.10     0.24   0.15  -0.23
   2   6     0.00   0.00   0.00    -0.03  -0.14  -0.05    -0.07  -0.19  -0.03
   3   6     0.17  -0.08   0.13     0.08  -0.12  -0.18    -0.06  -0.06   0.04
   4   6    -0.01   0.00   0.00     0.06  -0.02  -0.10    -0.18   0.04   0.27
   5   6     0.00  -0.00  -0.00    -0.03   0.05   0.08    -0.12  -0.01   0.16
   6   1    -0.00  -0.00  -0.00     0.04   0.07  -0.01     0.08   0.16  -0.01
   7   6     0.00   0.00   0.00     0.04  -0.08  -0.10     0.34   0.42  -0.18
   8   1    -0.00  -0.00  -0.00     0.03   0.03  -0.02     0.13   0.07  -0.13
   9   6    -0.00  -0.00  -0.00     0.00   0.07   0.05    -0.08  -0.29  -0.08
  10   8    -0.00  -0.00   0.00    -0.01   0.00   0.01    -0.17  -0.19   0.11
  11   1     0.00  -0.00   0.00    -0.02  -0.02   0.02     0.14   0.09  -0.13
  12   1    -0.54   0.26  -0.40    -0.17  -0.29   0.02    -0.02  -0.03   0.01
  13   1    -0.31   0.06   0.33    -0.30   0.51   0.13    -0.01   0.01  -0.00
  14   1     0.19  -0.02  -0.43     0.22   0.27   0.49     0.01   0.00   0.02
  15   1     0.00   0.00   0.00    -0.02  -0.02   0.01     0.12   0.21  -0.02
                     31                     32                     33
                        a                      a                      a 
 Frequencies --  1535.5329              1623.2923              2977.9127
 Red. masses --    10.4735                11.4927                 1.9337
 Frc consts  --     0.0000                 0.0000                 0.0000
 IR Inten    --    50.8290               280.7593                71.5772
 Raman Activ --     0.0000                 0.0000                 0.0000
 Depolar     --     0.0000                 0.0000                 0.0000
 Atom AN      X      Y      Z        X      Y      Z        X      Y      Z
   1   6     0.08  -0.44  -0.41     0.18   0.23  -0.10    -0.00   0.00  -0.00
   2   6     0.01   0.32   0.20    -0.24  -0.40   0.06    -0.00   0.00  -0.00
   3   6     0.02   0.02  -0.01    -0.03  -0.03   0.01    -0.22   0.11  -0.16
   4   6    -0.13   0.11   0.26    -0.31  -0.21   0.28     0.00  -0.00   0.00
   5   6     0.18  -0.03  -0.27     0.26   0.22  -0.21     0.00   0.00   0.00
   6   1    -0.07  -0.07   0.05     0.04   0.11   0.01    -0.00   0.00   0.00
   7   6    -0.14   0.13   0.28    -0.15  -0.17   0.10    -0.00  -0.00   0.00
   8   1    -0.10  -0.06   0.09    -0.05   0.01   0.07    -0.00  -0.00  -0.00
   9   6    -0.01  -0.17  -0.10     0.24   0.33  -0.11     0.00  -0.00  -0.00
  10   8     0.03   0.02  -0.03     0.03   0.03  -0.02    -0.00   0.00  -0.00
  11   1     0.03   0.05  -0.01     0.07   0.01  -0.09    -0.00   0.00  -0.00
  12   1    -0.09  -0.15   0.03    -0.00  -0.00   0.00    -0.03   0.02  -0.03
  13   1    -0.05   0.18  -0.00    -0.01  -0.03   0.02     0.45   0.19   0.43
  14   1     0.10   0.10   0.12    -0.03  -0.02  -0.00     0.35  -0.59   0.15
  15   1     0.03   0.05  -0.02    -0.02  -0.09  -0.03    -0.00   0.00   0.00
                     34                     35                     36
                        a                      a                      a 
 Frequencies --  2983.4215              2989.2269              2995.5632
 Red. masses --     1.7566                 1.7349                 1.5623
 Frc consts  --     0.0000                 0.0000                 0.0000
 IR Inten    --    91.9134               354.1462                64.4495
 Raman Activ --     0.0000                 0.0000                 0.0000
 Depolar     --     0.0000                 0.0000                 0.0000
 Atom AN      X      Y      Z        X      Y      Z        X      Y      Z
   1   6    -0.00   0.00   0.01     0.01   0.01  -0.00    -0.00  -0.01  -0.00
   2   6    -0.05   0.03   0.09     0.06  -0.03  -0.10     0.00   0.00  -0.00
   3   6     0.00  -0.01  -0.01     0.00   0.00  -0.00    -0.02  -0.19  -0.10
   4   6     0.01   0.07   0.03     0.01   0.09   0.05     0.01   0.04   0.02
   5   6    -0.02  -0.16  -0.07     0.01   0.10   0.04     0.00   0.01   0.01
   6   1     0.21  -0.10  -0.35    -0.22   0.11   0.37    -0.01   0.01   0.02
   7   6     0.00  -0.01  -0.01     0.01   0.01  -0.01     0.00   0.00  -0.00
   8   1     0.08   0.57   0.27    -0.05  -0.36  -0.17    -0.01  -0.04  -0.02
   9   6     0.07  -0.03  -0.12     0.09  -0.04  -0.15    -0.02   0.01   0.03
  10   8    -0.00   0.00   0.00    -0.00  -0.00   0.00    -0.00  -0.00   0.00
  11   1    -0.03  -0.26  -0.12    -0.04  -0.35  -0.17    -0.02  -0.13  -0.06
  12   1    -0.01   0.01   0.02    -0.00   0.00   0.01    -0.05   0.02   0.08
  13   1     0.03   0.01   0.03    -0.01  -0.00  -0.01     0.50   0.14   0.45
  14   1    -0.02   0.03  -0.01     0.01  -0.01   0.00    -0.35   0.52  -0.18
  15   1    -0.26   0.11   0.43    -0.32   0.15   0.54     0.06  -0.02  -0.09
                     37                     38                     39
                        a                      a                      a 
 Frequencies --  2999.9860              3018.2834              3032.1415
 Red. masses --     1.8544                 1.8676                 1.6175
 Frc consts  --     0.0000                 0.0000                 0.0000
 IR Inten    --   798.2594                15.8543                70.6943
 Raman Activ --     0.0000                 0.0000                 0.0000
 Depolar     --     0.0000                 0.0000                 0.0000
 Atom AN      X      Y      Z        X      Y      Z        X      Y      Z
   1   6    -0.00  -0.00  -0.00    -0.01  -0.01   0.00    -0.01  -0.00   0.01
   2   6     0.08  -0.04  -0.14    -0.06   0.03   0.11    -0.01   0.01   0.02
   3   6    -0.01  -0.02  -0.01     0.02  -0.04  -0.05    -0.11   0.07   0.19
   4   6    -0.02  -0.14  -0.07    -0.02  -0.15  -0.08    -0.00  -0.02  -0.01
   5   6    -0.02  -0.12  -0.05     0.01   0.10   0.05     0.00   0.02   0.01
   6   1    -0.29   0.14   0.49     0.22  -0.11  -0.38     0.05  -0.02  -0.08
   7   6    -0.00  -0.00   0.00     0.01   0.01  -0.01     0.00   0.00  -0.00
   8   1     0.05   0.40   0.19    -0.05  -0.35  -0.17    -0.01  -0.06  -0.03
   9   6     0.04  -0.01  -0.06     0.06  -0.03  -0.10     0.01  -0.01  -0.02
  10   8     0.00   0.00  -0.00    -0.00  -0.01   0.00    -0.00  -0.00   0.00
  11   1     0.06   0.51   0.25     0.06   0.52   0.26     0.01   0.06   0.03
  12   1     0.00  -0.01  -0.01    -0.07   0.06   0.14     0.40  -0.37  -0.78
  13   1     0.07   0.02   0.06     0.06   0.01   0.05     0.05   0.04   0.09
  14   1    -0.05   0.07  -0.02    -0.04   0.06  -0.03    -0.06   0.09   0.01
  15   1    -0.11   0.05   0.19    -0.21   0.10   0.35    -0.04   0.02   0.07
