15
 energy: -22.878572643241 gnorm: 0.166563737470 xtb: 6.7.1 (edcfbbe)
C           -5.19623600000000       -6.32654400000000        2.96550700000000
C           -5.01720800000000       -5.01519000000000        3.58720200000000
C           -6.11801600000000       -7.33091100000000        3.56176400000000
C           -4.46440700000000       -6.65471700000000        1.74188500000000
C           -4.11227700000000       -4.03898200000000        2.98832700000000
H           -5.56299200000000       -4.73943100000000        4.47783800000000
C           -3.39492100000000       -4.39058000000000        1.78325000000000
H           -3.99732200000000       -3.05700800000000        3.42724600000000
C           -3.56610000000000       -5.67439800000000        1.14106700000000
O           -2.64663400000000       -3.54307200000000        1.25452400000000
H           -4.58930100000000       -7.61331500000000        1.25981100000000
H           -6.60612200000000       -6.95326000000000        4.46615600000000
H           -6.90357000000000       -7.60248100000000        2.84883800000000
H           -5.57118400000000       -8.23979900000000        3.83371500000000
H           -3.05744800000000       -5.89392900000000        0.21204700000000
15
 energy: -22.903231908125 gnorm: 0.048611908223 xtb: 6.7.1 (edcfbbe)
C           -5.17653915909948       -6.30410272038044        2.95342424540742
C           -4.99754605596899       -5.03608622376896        3.53759060841154
C           -6.10560539991592       -7.31936066513879        3.55396424060541
C           -4.46818305131079       -6.60470077165119        1.77222909343146
C           -4.13290070117378       -4.09465037946972        2.97320187508657
H           -5.54096532287488       -4.76953257141905        4.43646488215944
C           -3.41320742349653       -4.38538633178610        1.77398588300378
H           -4.00934816423752       -3.11542226144250        3.42166274002742
C           -3.60574681448451       -5.67473554942281        1.18883576218147
O           -2.62600237097884       -3.52814909016712        1.24747042773308
H           -4.59457483162718       -7.56980035365450        1.29587801609100
H           -6.58937462471594       -6.93792920212634        4.45436875889358
H           -6.89162968046482       -7.59857588398999        2.84754739425453
H           -5.56865083250655       -8.23171510958182        3.82589215157238
H           -3.08346356714425       -5.90346988600067        0.26666092114092
15
 energy: -22.905396825186 gnorm: 0.011330927279 xtb: 6.7.1 (edcfbbe)
C           -5.17635096232869       -6.29729270516374        2.94649827113603
C           -4.99295534336079       -5.04703791489091        3.51356136625930
C           -6.10233303063433       -7.31620761363575        3.55227415010545
C           -4.47559368216982       -6.58137638960375        1.78283076598878
C           -4.14825267396035       -4.11960151865696        2.95961253672937
H           -5.52752580278575       -4.78987047024642        4.42262122233487
C           -3.40984185184742       -4.38735588398479        1.77737879347370
H           -4.01784010156024       -3.14329114993463        3.41583101483872
C           -3.62817351234584       -5.67095445999424        1.20970781227333
O           -2.61659390385304       -3.52282766662449        1.24636141060091
H           -4.59834726268145       -7.55224147058609        1.31385456727285
H           -6.57476814215092       -6.92115974161391        4.44986750894793
H           -6.88467719745380       -7.59408393460134        2.84415257453484
H           -5.55785706412009       -8.22329771633425        3.81942425676490
H           -3.09262746874746       -5.90701836412871        0.29520074873902
15
 energy: -22.905500950843 gnorm: 0.002209294968 xtb: 6.7.1 (edcfbbe)
C           -5.18028960113874       -6.30047914672110        2.94709050995765
C           -4.99364505292061       -5.04741248956520        3.51641328868068
C           -6.10490829690974       -7.31855281689120        3.55379731022962
C           -4.47565314876239       -6.58431269751375        1.78125467338210
C           -4.14669511803012       -4.11699036258360        2.95853690924091
H           -5.52886080171813       -4.79017529866304        4.42471102590181
C           -3.41746624590900       -4.38018410468725        1.76903112114068
H           -4.01260850010426       -3.14366522782371        3.42004796903629
C           -3.62498456730864       -5.66923084746731        1.20809161760334
O           -2.61558663900621       -3.51946491193512        1.24433461881159
H           -4.60122652828940       -7.55359864604578        1.31035848299459
H           -6.57405124455220       -6.91990796497423        4.45073763924433
H           -6.88676407978761       -7.59592385308622        2.84590481812042
H           -5.55806720195456       -8.22373126362772        3.82023790201039
H           -3.08293097360839       -5.90998736841476        0.29862911364561
15
 energy: -22.905509650644 gnorm: 0.001257184627 xtb: 6.7.1 (edcfbbe)
C           -5.18169670364024       -6.30073749439459        2.94617188149433
C           -4.99409063059279       -5.04743936332033        3.51620839928701
C           -6.10578072257248       -7.31860456390313        3.55389667784536
C           -4.47581242893292       -6.58448173916949        1.78033393115546
C           -4.14599873680374       -4.11734924182159        2.95846860341881
H           -5.52770064338471       -4.79082942556321        4.42554525652041
C           -3.41252171370904       -4.38201400394996        1.77221890173599
H           -4.01505647807735       -3.14348661224664        3.41957594262285
C           -3.62416703287743       -5.66889873723399        1.20837192985728
O           -2.61747054712019       -3.51805984327306        1.24289880306573
H           -4.60012469370134       -7.55409617413109        1.30989526992970
H           -6.57343498483752       -6.91861885022890        4.45048320342160
H           -6.88771598746254       -7.59634554577269        2.84679270548436
H           -5.55807897584275       -8.22289586021120        3.82023968939943
H           -3.08408772044495       -5.90975954478014        0.29807580476168
15
 energy: -22.905511666445 gnorm: 0.000656084464 xtb: 6.7.1 (edcfbbe)
C           -5.18116530242844       -6.30071453150805        2.94581273950436
C           -4.99344736232787       -5.04798370573649        3.51588057360570
C           -6.10584734720627       -7.31820273304177        3.55380218678330
C           -4.47528160026247       -6.58420859403219        1.78047967585622
C           -4.14614915865681       -4.11811960798795        2.95846834340522
H           -5.52749690231392       -4.79118808043467        4.42481820555018
C           -3.41471867863086       -4.38124034884381        1.77097067717595
H           -4.01473932121204       -3.14499966338690        3.42149297990754
C           -3.62437173741884       -5.66895231781630        1.20879841564120
O           -2.61851231590212       -3.51747614806304        1.24232728898264
H           -4.59984691466472       -7.55352998276790        1.30953260673536
H           -6.57294907369908       -6.91743121223480        4.45004853962441
H           -6.88781469709822       -7.59601501576598        2.84700820267347
H           -5.55822838367369       -8.22230801761293        3.82035931259992
H           -3.08316920450464       -5.91124704076720        0.29937725195451
