
                                 *****************
                                 * O   R   C   A *
                                 *****************

                                            #,                                       
                                            ###                                      
                                            ####                                     
                                            #####                                    
                                            ######                                   
                                           ########,                                 
                                     ,,################,,,,,                         
                               ,,#################################,,                 
                          ,,##########################################,,             
                       ,#########################################, ''#####,          
                    ,#############################################,,   '####,        
                  ,##################################################,,,,####,       
                ,###########''''           ''''###############################       
              ,#####''   ,,,,##########,,,,          '''####'''          '####       
            ,##' ,,,,###########################,,,                        '##       
           ' ,,###''''                  '''############,,,                           
         ,,##''                                '''############,,,,        ,,,,,,###''
      ,#''                                            '''#######################'''  
     '                                                          ''''####''''         
             ,#######,   #######,   ,#######,      ##                                
            ,#'     '#,  ##    ##  ,#'     '#,    #''#        ######   ,####,        
            ##       ##  ##   ,#'  ##            #'  '#       #        #'  '#        
            ##       ##  #######   ##           ,######,      #####,   #    #        
            '#,     ,#'  ##    ##  '#,     ,#' ,#      #,         ##   #,  ,#        
             '#######'   ##     ##  '#######'  #'      '#     #####' # '####'        



                  #######################################################
                  #                        -***-                        #
                  #          Department of theory and spectroscopy      #
                  #    Directorship and core code : Frank Neese         #
                  #        Max Planck Institute fuer Kohlenforschung    #
                  #                Kaiser Wilhelm Platz 1               #
                  #                 D-45470 Muelheim/Ruhr               #
                  #                      Germany                        #
                  #                                                     #
                  #                  All rights reserved                #
                  #                        -***-                        #
                  #######################################################


                         Program Version 5.0.4 -  RELEASE  -


 With contributions from (in alphabetic order):
   Daniel Aravena         : Magnetic Suceptibility
   Michael Atanasov       : Ab Initio Ligand Field Theory (pilot matlab implementation)
   Alexander A. Auer      : GIAO ZORA, VPT2 properties, NMR spectrum
   Ute Becker             : Parallelization
   Giovanni Bistoni       : ED, misc. LED, open-shell LED, HFLD
   Martin Brehm           : Molecular dynamics
   Dmytro Bykov           : SCF Hessian
   Vijay G. Chilkuri      : MRCI spin determinant printing, contributions to CSF-ICE
   Dipayan Datta          : RHF DLPNO-CCSD density
   Achintya Kumar Dutta   : EOM-CC, STEOM-CC
   Dmitry Ganyushin       : Spin-Orbit,Spin-Spin,Magnetic field MRCI
   Miquel Garcia          : C-PCM and meta-GGA Hessian, CC/C-PCM, Gaussian charge scheme
   Yang Guo               : DLPNO-NEVPT2, F12-NEVPT2, CIM, IAO-localization
   Andreas Hansen         : Spin unrestricted coupled pair/coupled cluster methods
   Benjamin Helmich-Paris : MC-RPA, TRAH-SCF, COSX integrals
   Lee Huntington         : MR-EOM, pCC
   Robert Izsak           : Overlap fitted RIJCOSX, COSX-SCS-MP3, EOM
   Marcus Kettner         : VPT2
   Christian Kollmar      : KDIIS, OOCD, Brueckner-CCSD(T), CCSD density, CASPT2, CASPT2-K
   Simone Kossmann        : Meta GGA functionals, TD-DFT gradient, OOMP2, MP2 Hessian
   Martin Krupicka        : Initial AUTO-CI
   Lucas Lang             : DCDCAS
   Marvin Lechner         : AUTO-CI (C++ implementation), FIC-MRCC
   Dagmar Lenk            : GEPOL surface, SMD
   Dimitrios Liakos       : Extrapolation schemes; Compound Job, initial MDCI parallelization
   Dimitrios Manganas     : Further ROCIS development; embedding schemes
   Dimitrios Pantazis     : SARC Basis sets
   Anastasios Papadopoulos: AUTO-CI, single reference methods and gradients
   Taras Petrenko         : DFT Hessian,TD-DFT gradient, ASA, ECA, R-Raman, ABS, FL, XAS/XES, NRVS
   Peter Pinski           : DLPNO-MP2, DLPNO-MP2 Gradient
   Christoph Reimann      : Effective Core Potentials
   Marius Retegan         : Local ZFS, SOC
   Christoph Riplinger    : Optimizer, TS searches, QM/MM, DLPNO-CCSD(T), (RO)-DLPNO pert. Triples
   Tobias Risthaus        : Range-separated hybrids, TD-DFT gradient, RPA, STAB
   Michael Roemelt        : Original ROCIS implementation
   Masaaki Saitow         : Open-shell DLPNO-CCSD energy and density
   Barbara Sandhoefer     : DKH picture change effects
   Avijit Sen             : IP-ROCIS
   Kantharuban Sivalingam : CASSCF convergence, NEVPT2, FIC-MRCI
   Bernardo de Souza      : ESD, SOC TD-DFT
   Georgi Stoychev        : AutoAux, RI-MP2 NMR, DLPNO-MP2 response
   Willem Van den Heuvel  : Paramagnetic NMR
   Boris Wezisla          : Elementary symmetry handling
   Frank Wennmohs         : Technical directorship


 We gratefully acknowledge several colleagues who have allowed us to
 interface, adapt or use parts of their codes:
   Stefan Grimme, W. Hujo, H. Kruse, P. Pracht,  : VdW corrections, initial TS optimization,
                  C. Bannwarth, S. Ehlert          DFT functionals, gCP, sTDA/sTD-DF
   Ed Valeev, F. Pavosevic, A. Kumar             : LibInt (2-el integral package), F12 methods
   Garnet Chan, S. Sharma, J. Yang, R. Olivares  : DMRG
   Ulf Ekstrom                                   : XCFun DFT Library
   Mihaly Kallay                                 : mrcc  (arbitrary order and MRCC methods)
   Jiri Pittner, Ondrej Demel                    : Mk-CCSD
   Frank Weinhold                                : gennbo (NPA and NBO analysis)
   Christopher J. Cramer and Donald G. Truhlar   : smd solvation model
   Lars Goerigk                                  : TD-DFT with DH, B97 family of functionals
   V. Asgeirsson, H. Jonsson                     : NEB implementation
   FAccTs GmbH                                   : IRC, NEB, NEB-TS, DLPNO-Multilevel, CI-OPT
                                                   MM, QMMM, 2- and 3-layer-ONIOM, Crystal-QMMM,
                                                   LR-CPCM, SF, NACMEs, symmetry and pop. for TD-DFT,
                                                   nearIR, NL-DFT gradient (VV10), updates on ESD,
                                                   ML-optimized integration grids
   S Lehtola, MJT Oliveira, MAL Marques          : LibXC Library
   Liviu Ungur et al                             : ANISO software


 Your calculation uses the libint2 library for the computation of 2-el integrals
 For citations please refer to: http://libint.valeyev.net

 Your ORCA version has been built with support for libXC version: 5.1.0
 For citations please refer to: https://tddft.org/programs/libxc/

 This ORCA versions uses:
   CBLAS   interface :  Fast vector & matrix operations
   LAPACKE interface :  Fast linear algebra routines
   SCALAPACK package :  Parallel linear algebra routines
   Shared memory     :  Shared parallel matrices
   BLAS/LAPACK       :  OpenBLAS 0.3.15  USE64BITINT DYNAMIC_ARCH NO_AFFINITY Haswell SINGLE_THREADED
        Core in use  :  Haswell
   Copyright (c) 2011-2014, The OpenBLAS Project


Your calculation utilizes the atom-pairwise dispersion correction
with the Becke-Johnson damping scheme (D3BJ)
Cite in your paper:
S.Grimme, S.Ehrlich, L.Goerigk, J Comput Chem, (2011), 32, 1456–1465 
S.Grimme, J.Antony, S.Ehrlich and H.Krieg, J.Chem.Phys., 132, (2010), 154104 
   

================================================================================

----- Orbital basis set information -----
Your calculation utilizes the basis: def2-TZVP
   F. Weigend and R. Ahlrichs, Phys. Chem. Chem. Phys. 7, 3297 (2005).

----- AuxJ basis set information -----
Your calculation utilizes the auxiliary basis: def2/J
   F. Weigend, Phys. Chem. Chem. Phys. 8, 1057 (2006).

================================================================================
                                        WARNINGS
                       Please study these warnings very carefully!
================================================================================


INFO   : the flag for use of the SHARK integral package has been found!

================================================================================
                                       INPUT FILE
================================================================================
NAME = inp.inp
|  1> !SP PBE D3BJ def2-TZVP CPCM(water)
|  2> 
|  3> *xyz -1 1
|  4> N -4.977829 -1.457749 -2.584150
|  5> C -5.262634 -2.881313 -2.650855
|  6> O -4.511634 0.972818 -2.117955
|  7> H -4.689049 0.047843 -2.295370
|  8> H -3.572722 1.070863 -2.276953
|  9> *
| 10> 
| 11>                          ****END OF INPUT****
================================================================================

                       ****************************
                       * Single Point Calculation *
                       ****************************

---------------------------------
CARTESIAN COORDINATES (ANGSTROEM)
---------------------------------
  N     -4.977829   -1.457749   -2.584150
  C     -5.262634   -2.881313   -2.650855
  O     -4.511634    0.972818   -2.117955
  H     -4.689049    0.047843   -2.295370
  H     -3.572722    1.070863   -2.276953

----------------------------
CARTESIAN COORDINATES (A.U.)
----------------------------
  NO LB      ZA    FRAG     MASS         X           Y           Z
   0 N     7.0000    0    14.007   -9.406734   -2.754746   -4.883336
   1 C     6.0000    0    12.011   -9.944937   -5.444892   -5.009390
   2 O     8.0000    0    15.999   -8.525753    1.838360   -4.002355
   3 H     1.0000    0     1.008   -8.861018    0.090410   -4.337621
   4 H     1.0000    0     1.008   -6.751466    2.023638   -4.302818

--------------------------------
INTERNAL COORDINATES (ANGSTROEM)
--------------------------------
 N      0   0   0     0.000000000000     0.00000000     0.00000000
 C      1   0   0     1.453305854645     0.00000000     0.00000000
 O      1   2   0     2.518398597827   171.95014009     0.00000000
 H      3   1   2     0.958400185244     0.00001087     0.00000000
 H      3   1   2     0.957313391619   104.45720904   106.14409315

---------------------------
INTERNAL COORDINATES (A.U.)
---------------------------
 N      0   0   0     0.000000000000     0.00000000     0.00000000
 C      1   0   0     2.746350054104     0.00000000     0.00000000
 O      1   2   0     4.759083645945   171.95014009     0.00000000
 H      3   1   2     1.811113876810     0.00001087     0.00000000
 H      3   1   2     1.809060134495   104.45720904   106.14409315

---------------------
BASIS SET INFORMATION
---------------------
There are 4 groups of distinct atoms

 Group   1 Type N   : 11s6p2d1f contracted to 5s3p2d1f pattern {62111/411/11/1}
 Group   2 Type C   : 11s6p2d1f contracted to 5s3p2d1f pattern {62111/411/11/1}
 Group   3 Type O   : 11s6p2d1f contracted to 5s3p2d1f pattern {62111/411/11/1}
 Group   4 Type H   : 5s1p contracted to 3s1p pattern {311/1}

Atom   0N    basis set group =>   1
Atom   1C    basis set group =>   2
Atom   2O    basis set group =>   3
Atom   3H    basis set group =>   4
Atom   4H    basis set group =>   4
---------------------------------
AUXILIARY/J BASIS SET INFORMATION
---------------------------------
There are 4 groups of distinct atoms

 Group   1 Type N   : 12s5p4d2f1g contracted to 6s4p3d1f1g pattern {711111/2111/211/2/1}
 Group   2 Type C   : 12s5p4d2f1g contracted to 6s4p3d1f1g pattern {711111/2111/211/2/1}
 Group   3 Type O   : 12s5p4d2f1g contracted to 6s4p3d1f1g pattern {711111/2111/211/2/1}
 Group   4 Type H   : 5s2p1d contracted to 3s1p1d pattern {311/2/1}

Atom   0N    basis set group =>   1
Atom   1C    basis set group =>   2
Atom   2O    basis set group =>   3
Atom   3H    basis set group =>   4
Atom   4H    basis set group =>   4
------------------------------------------------------------------------------
                           ORCA GTO INTEGRAL CALCULATION
                           -- RI-GTO INTEGRALS CHOSEN --
------------------------------------------------------------------------------
------------------------------------------------------------------------------
                   ___                                                        
                  /   \      - P O W E R E D   B Y -                         
                 /     \                                                     
                 |  |  |   _    _      __       _____    __    __             
                 |  |  |  | |  | |    /  \     |  _  \  |  |  /  |          
                  \  \/   | |  | |   /    \    | | | |  |  | /  /          
                 / \  \   | |__| |  /  /\  \   | |_| |  |  |/  /          
                |  |  |   |  __  | /  /__\  \  |    /   |      \           
                |  |  |   | |  | | |   __   |  |    \   |  |\   \          
                \     /   | |  | | |  |  |  |  | |\  \  |  | \   \       
                 \___/    |_|  |_| |__|  |__|  |_| \__\ |__|  \__/        
                                                                              
                      - O R C A' S   B I G   F R I E N D -                    
                                      &                                       
                       - I N T E G R A L  F E E D E R -                       
                                                                              
 v1 FN, 2020, v2 2021                                                         
------------------------------------------------------------------------------


Reading SHARK input file inp.SHARKINP.tmp ... ok
----------------------
SHARK INTEGRAL PACKAGE
----------------------

Number of atoms                             ...      5
Number of basis functions                   ...    105
Number of shells                            ...     41
Maximum angular momentum                    ...      3
Integral batch strategy                     ... SHARK/LIBINT Hybrid
RI-J (if used) integral strategy            ... SPLIT-RIJ (Revised 2003 algorithm where possible)
Printlevel                                  ...      1
Contraction scheme used                     ... SEGMENTED contraction
Coulomb Range Separation                    ... NOT USED
Exchange Range Separation                   ... NOT USED
Finite Nucleus Model                        ... NOT USED
Auxiliary Coulomb fitting basis             ... AVAILABLE
   # of basis functions in Aux-J            ...    169
   # of shells in Aux-J                     ...     55
   Maximum angular momentum in Aux-J        ...      4
Auxiliary J/K fitting basis                 ... NOT available
Auxiliary Correlation fitting basis         ... NOT available
Auxiliary 'external' fitting basis          ... NOT available
Integral threshold                          ...     1.000000e-10
Primitive cut-off                           ...     1.000000e-11
Primitive pair pre-selection threshold      ...     1.000000e-11

Calculating pre-screening integrals         ... done (  0.0 sec) Dimension = 41
Organizing shell pair data                  ... done (  0.2 sec)
Shell pair information
Total number of shell pairs                 ...       861
Shell pairs after pre-screening             ...       807
Total number of primitive shell pairs       ...      2700
Primitive shell pairs kept                  ...      2046
          la=0 lb=0:    209 shell pairs
          la=1 lb=0:    222 shell pairs
          la=1 lb=1:     65 shell pairs
          la=2 lb=0:    115 shell pairs
          la=2 lb=1:     63 shell pairs
          la=2 lb=2:     20 shell pairs
          la=3 lb=0:     57 shell pairs
          la=3 lb=1:     33 shell pairs
          la=3 lb=2:     17 shell pairs
          la=3 lb=3:      6 shell pairs

Calculating one electron integrals          ... done (  0.0 sec)
Calculating RI/J V-Matrix + Cholesky decomp.... done (  0.3 sec)
Calculating Nuclear repulsion               ... done (  0.0 sec) ENN=     48.098892186737 Eh

SHARK setup successfully completed in   1.4 seconds

Maximum memory used throughout the entire GTOINT-calculation: 15.8 MB
-------------------------------------------------------------------------------
                                 ORCA SCF
-------------------------------------------------------------------------------

------------
SCF SETTINGS
------------
Hamiltonian:
 Density Functional     Method          .... DFT(GTOs)
 Exchange Functional    Exchange        .... PBE
   PBE kappa parameter   XKappa         ....  0.804000
   PBE mue parameter    XMuePBE         ....  0.219520
 Correlation Functional Correlation     .... PBE
   PBE beta parameter  CBetaPBE         ....  0.066725
 LDA part of GGA corr.  LDAOpt          .... PW91-LDA
 Gradients option       PostSCFGGA      .... off
   Density functional embedding theory  .... OFF
   NL short-range parameter             ....  6.400000
 RI-approximation to the Coulomb term is turned on
   Number of AuxJ basis functions       .... 169


General Settings:
 Integral files         IntName         .... inp
 Hartree-Fock type      HFTyp           .... RHF
 Total Charge           Charge          ....   -1
 Multiplicity           Mult            ....    1
 Number of Electrons    NEL             ....   24
 Basis Dimension        Dim             ....  105
 Nuclear Repulsion      ENuc            ....     48.0988921867 Eh

Convergence Acceleration:
 DIIS                   CNVDIIS         .... on
   Start iteration      DIISMaxIt       ....    12
   Startup error        DIISStart       ....  0.200000
   # of expansion vecs  DIISMaxEq       ....     5
   Bias factor          DIISBfac        ....   1.050
   Max. coefficient     DIISMaxC        ....  10.000
 Trust-Rad. Augm. Hess. CNVTRAH         .... auto
   Auto Start mean grad. ratio tolernc. ....  1.125000
   Auto Start start iteration           ....    20
   Auto Start num. interpolation iter.  ....    10
   Max. Number of Micro iterations      ....    16
   Max. Number of Macro iterations      .... Maxiter - #DIIS iter
   Number of Davidson start vectors     ....     2
   Converg. threshold I  (grad. norm)   ....   5.000e-05
   Converg. threshold II (energy diff.) ....   1.000e-06
   Grad. Scal. Fac. for Micro threshold ....   0.100
   Minimum threshold for Micro iter.    ....   0.010
   NR start threshold (gradient norm)   ....   0.001
   Initial trust radius                 ....   0.400
   Minimum AH scaling param. (alpha)    ....   1.000
   Maximum AH scaling param. (alpha)    .... 1000.000
   Orbital update algorithm             .... Taylor
   White noise on init. David. guess    .... on
   Maximum white noise                  ....   0.010
   Quad. conv. algorithm                .... NR
 SOSCF                  CNVSOSCF        .... on
   Start iteration      SOSCFMaxIt      ....   150
   Startup grad/error   SOSCFStart      ....  0.003300
 Level Shifting         CNVShift        .... on
   Level shift para.    LevelShift      ....    0.2500
   Turn off err/grad.   ShiftErr        ....    0.0010
 Zerner damping         CNVZerner       .... off
 Static damping         CNVDamp         .... on
   Fraction old density DampFac         ....    0.7000
   Max. Damping (<1)    DampMax         ....    0.9800
   Min. Damping (>=0)   DampMin         ....    0.0000
   Turn off err/grad.   DampErr         ....    0.1000
 Fernandez-Rico         CNVRico         .... off

SCF Procedure:
 Maximum # iterations   MaxIter         ....   125
 SCF integral mode      SCFMode         .... Direct
   Integral package                     .... SHARK and LIBINT hybrid scheme
 Reset frequency        DirectResetFreq ....    20
 Integral Threshold     Thresh          ....  1.000e-10 Eh
 Primitive CutOff       TCut            ....  1.000e-11 Eh

Convergence Tolerance:
 Convergence Check Mode ConvCheckMode   .... Total+1el-Energy
 Convergence forced     ConvForced      .... 0
 Energy Change          TolE            ....  1.000e-06 Eh
 1-El. energy change                    ....  1.000e-03 Eh
 Orbital Gradient       TolG            ....  5.000e-05
 Orbital Rotation angle TolX            ....  5.000e-05
 DIIS Error             TolErr          ....  1.000e-06


Diagonalization of the overlap matrix:
Smallest eigenvalue                        ... 1.256e-03
Time for diagonalization                   ...    0.002 sec
Threshold for overlap eigenvalues          ... 1.000e-08
Number of eigenvalues below threshold      ... 0
Time for construction of square roots      ...    0.048 sec
Total time needed                          ...    0.050 sec

Time for model grid setup =    0.138 sec

------------------------------
INITIAL GUESS: MODEL POTENTIAL
------------------------------
Loading Hartree-Fock densities                     ... done
Calculating cut-offs                               ... done
Initializing the effective Hamiltonian             ... done
Setting up the integral package (SHARK)            ... done
Starting the Coulomb interaction                   ... done (   0.2 sec)
Reading the grid                                   ... done
Mapping shells                                     ... done
Starting the XC term evaluation                    ... done (   0.0 sec)
  promolecular density results
     # of electrons  =     23.000243005
     EX              =    -20.158010987
     EC              =     -0.713736858
     EX+EC           =    -20.871747846
Transforming the Hamiltonian                       ... done (   0.0 sec)
Diagonalizing the Hamiltonian                      ... done (   0.0 sec)
Back transforming the eigenvectors                 ... done (   0.0 sec)
Now organizing SCF variables                       ... done
                      ------------------
                      INITIAL GUESS DONE (   0.4 sec)
                      ------------------
-------------------
DFT GRID GENERATION
-------------------

General Integration Accuracy     IntAcc      ... 4.388
Radial Grid Type                 RadialGrid  ... OptM3 with GC (2021)
Angular Grid (max. ang.)         AngularGrid ... 4 (Lebedev-302)
Angular grid pruning method      GridPruning ... 4 (adaptive)
Weight generation scheme         WeightScheme... Becke
Basis function cutoff            BFCut       ... 1.0000e-10
Integration weight cutoff        WCut        ... 1.0000e-14
Angular grids for H and He will be reduced by one unit
Partially contracted basis set               ... off
Rotationally invariant grid construction     ... off

Total number of grid points                  ...    24947
Total number of batches                      ...      393
Average number of points per batch           ...       63
Average number of grid points per atom       ...     4989
Time for grid setup =    0.308 sec


--------------------
CPCM SOLVATION MODEL
--------------------
CPCM parameters:
  Epsilon                                         ...      80.4000
  Refrac                                          ...       1.3300
  Rsolv                                           ...       1.3000
  Surface type                                    ... GAUSSIAN VDW
  Epsilon function type                           ...         CPCM
Radii:
 Radius for N  used is    3.5149 Bohr (=   1.8600 Ang.)
 Radius for C  used is    3.8550 Bohr (=   2.0400 Ang.)
 Radius for O  used is    3.4469 Bohr (=   1.8240 Ang.)
 Radius for H  used is    2.4944 Bohr (=   1.3200 Ang.)
Calculating surface                               ...        done! (  0.0s)
GEPOL surface points                              ...          369
GEPOL Volume                                      ...     482.3540
GEPOL Surface-area                                ...     343.3597
Calculating surface distance matrix               ...        done! (  0.0s)
Performing Cholesky decomposition & store         ...        done! (  0.1s)
Overall time for CPCM initialization              ...                 0.1s
--------------
SCF ITERATIONS
--------------
ITER       Energy         Delta-E        Max-DP      RMS-DP      [F,P]     Damp
               ***  Starting incremental Fock matrix formation  ***
  0   -168.9772775530   0.000000000000 0.08548944  0.00305189  0.3573162 0.7000
  1   -169.0973083385  -0.120030785455 0.04720985  0.00174961  0.1222212 0.7000
                               ***Turning on DIIS***
  2   -169.1169469127  -0.019638574219 0.15018567  0.00305725  0.0723320 0.0000
  3   -169.1836907994  -0.066743886701 0.03827346  0.00126572  0.0703949 0.0000
  4   -169.1913484058  -0.007657606364 0.01912529  0.00046417  0.0464374 0.0000
  5   -169.1948496012  -0.003501195483 0.01183652  0.00022510  0.0189640 0.0000
  6   -169.1953967776  -0.000547176360 0.00570374  0.00009788  0.0057717 0.0000
                      *** Initiating the SOSCF procedure ***
                           *** Shutting down DIIS ***
                      *** Re-Reading the Fockian *** 
                      *** Removing any level shift *** 
ITER      Energy       Delta-E        Grad      Rot      Max-DP    RMS-DP
  7   -169.19544687  -0.0000500883  0.000377  0.000377  0.001309  0.000030
               *** Restarting incremental Fock matrix formation ***
  8   -169.19545159  -0.0000047279  0.000125  0.000685  0.001333  0.000031
  9   -169.19545084   0.0000007496  0.000355  0.000606  0.000349  0.000014
 10   -169.19545138  -0.0000005337  0.000341  0.000317  0.000934  0.000026
 11   -169.19545022   0.0000011591  0.000358  0.000215  0.000534  0.000017
 12   -169.19545220  -0.0000019841  0.000072  0.000101  0.000299  0.000008
 13   -169.19545216   0.0000000396  0.000072  0.000063  0.000198  0.000005
                 **** Energy Check signals convergence ****
              ***Rediagonalizing the Fockian in SOSCF/NRSCF***

               *****************************************************
               *                     SUCCESS                       *
               *           SCF CONVERGED AFTER  14 CYCLES          *
               *****************************************************


----------------
TOTAL SCF ENERGY
----------------

Total Energy       :         -169.19545226 Eh           -4604.04232 eV

Components:
Nuclear Repulsion  :           48.09889219 Eh            1308.83740 eV
Electronic Energy  :         -217.29434445 Eh           -5912.87972 eV
One Electron Energy:         -331.26669746 Eh           -9014.22511 eV
Two Electron Energy:          113.97235301 Eh            3101.34539 eV
CPCM Dielectric    :           -0.10356021 Eh              -2.81802 eV

Virial components:
Potential Energy   :         -337.28669225 Eh           -9178.03750 eV
Kinetic Energy     :          168.09123999 Eh            4573.99518 eV
Virial Ratio       :            2.00656912


DFT components:
N(Alpha)           :       12.000006644731 electrons
N(Beta)            :       12.000006644731 electrons
N(Total)           :       24.000013289462 electrons
E(X)               :      -20.680276323583 Eh       
E(C)               :       -0.758954078378 Eh       
E(XC)              :      -21.439230401960 Eh       
DFET-embed. en.    :        0.000000000000 Eh       
CPCM Solvation Model Properties:
Surface-charge          :            0.97541856
Charge-correction       :           -0.00365379 Eh              -0.09942 eV
Free-energy (cav+disp)  :  This term is not implemented in the current solvation scheme

---------------
SCF CONVERGENCE
---------------

  Last Energy change         ...   -9.6879e-08  Tolerance :   1.0000e-06
  Last MAX-Density change    ...    4.5750e-06  Tolerance :   1.0000e-05
  Last RMS-Density change    ...    1.7570e-07  Tolerance :   1.0000e-06
  Last Orbital Gradient      ...    4.2305e-06  Tolerance :   5.0000e-05
  Last Orbital Rotation      ...    4.6000e-06  Tolerance :   5.0000e-05

             **** THE GBW FILE WAS UPDATED (inp.gbw) ****
             **** DENSITY inp.scfp WAS UPDATED ****
             **** ENERGY FILE WAS UPDATED (inp.en.tmp) ****
             **** THE GBW FILE WAS UPDATED (inp.gbw) ****
             **** DENSITY inp.scfp WAS UPDATED ****
----------------
ORBITAL ENERGIES
----------------

  NO   OCC          E(Eh)            E(eV) 
   0   2.0000     -18.702148      -508.9113 
   1   2.0000     -13.967784      -380.0827 
   2   2.0000      -9.917419      -269.8667 
   3   2.0000      -0.891043       -24.2465 
   4   2.0000      -0.684109       -18.6155 
   5   2.0000      -0.462414       -12.5829 
   6   2.0000      -0.373801       -10.1716 
   7   2.0000      -0.305988        -8.3264 
   8   2.0000      -0.239120        -6.5068 
   9   2.0000      -0.224598        -6.1116 
  10   2.0000      -0.219771        -5.9803 
  11   2.0000      -0.216848        -5.9007 
  12   0.0000      -0.041612        -1.1323 
  13   0.0000      -0.041056        -1.1172 
  14   0.0000       0.047415         1.2902 
  15   0.0000       0.121995         3.3197 
  16   0.0000       0.156807         4.2669 
  17   0.0000       0.190213         5.1760 
  18   0.0000       0.226033         6.1507 
  19   0.0000       0.230233         6.2649 
  20   0.0000       0.289264         7.8713 
  21   0.0000       0.337570         9.1857 
  22   0.0000       0.346038         9.4162 
  23   0.0000       0.370168        10.0728 
  24   0.0000       0.442831        12.0500 
  25   0.0000       0.461561        12.5597 
  26   0.0000       0.472673        12.8621 
  27   0.0000       0.530400        14.4329 
  28   0.0000       0.557925        15.1819 
  29   0.0000       0.652870        17.7655 
  30   0.0000       0.653052        17.7705 
  31   0.0000       0.709449        19.3051 
  32   0.0000       0.761574        20.7235 
  33   0.0000       0.774943        21.0873 
  34   0.0000       0.832968        22.6662 
  35   0.0000       1.019249        27.7352 
  36   0.0000       1.091828        29.7101 
  37   0.0000       1.094538        29.7839 
  38   0.0000       1.145429        31.1687 
  39   0.0000       1.173545        31.9338 
  40   0.0000       1.244038        33.8520 
  41   0.0000       1.277220        34.7549 
  42   0.0000       1.307636        35.5826 
  43   0.0000       1.346023        36.6271 
  44   0.0000       1.451089        39.4861 
  45   0.0000       1.482807        40.3492 
  46   0.0000       1.533594        41.7312 
  47   0.0000       1.581570        43.0367 
  48   0.0000       1.753824        47.7240 
  49   0.0000       1.815526        49.4030 
  50   0.0000       1.910327        51.9826 
  51   0.0000       2.013052        54.7779 
  52   0.0000       2.055449        55.9316 
  53   0.0000       2.061532        56.0971 
  54   0.0000       2.101308        57.1795 
  55   0.0000       2.138509        58.1918 
  56   0.0000       2.174587        59.1735 
  57   0.0000       2.377797        64.7032 
  58   0.0000       2.412096        65.6365 
  59   0.0000       2.567324        69.8605 
  60   0.0000       2.569992        69.9330 
  61   0.0000       2.613146        71.1073 
  62   0.0000       2.651290        72.1453 
  63   0.0000       2.651294        72.1454 
  64   0.0000       2.654124        72.2224 
  65   0.0000       2.654516        72.2330 
  66   0.0000       2.816411        76.6384 
  67   0.0000       2.892439        78.7073 
  68   0.0000       2.914237        79.3004 
  69   0.0000       2.938093        79.9496 
  70   0.0000       2.938359        79.9568 
  71   0.0000       3.055645        83.1483 
  72   0.0000       3.224887        87.7536 
  73   0.0000       3.230135        87.8964 
  74   0.0000       3.327983        90.5590 
  75   0.0000       3.623808        98.6088 
  76   0.0000       3.828697       104.1841 
  77   0.0000       3.858276       104.9890 
  78   0.0000       3.858296       104.9896 
  79   0.0000       4.063499       110.5734 
  80   0.0000       4.066130       110.6450 
  81   0.0000       4.159267       113.1794 
  82   0.0000       4.446584       120.9977 
  83   0.0000       4.447061       121.0107 
  84   0.0000       4.540836       123.5624 
  85   0.0000       4.558248       124.0362 
  86   0.0000       4.947088       134.6171 
  87   0.0000       4.959497       134.9548 
  88   0.0000       5.010527       136.3434 
  89   0.0000       5.127934       139.5382 
  90   0.0000       5.254064       142.9704 
  91   0.0000       5.279555       143.6640 
  92   0.0000       5.301475       144.2605 
  93   0.0000       5.388087       146.6173 
  94   0.0000       5.428487       147.7166 
  95   0.0000       6.041431       164.3957 
  96   0.0000       6.214449       169.1038 
  97   0.0000       6.287999       171.1052 
  98   0.0000       6.344300       172.6372 
  99   0.0000       6.429967       174.9683 
 100   0.0000       6.894949       187.6211 
 101   0.0000       7.057163       192.0352 
 102   0.0000      21.364375       581.3542 
 103   0.0000      31.568036       859.0099 
 104   0.0000      43.017465      1170.5647 

                    ********************************
                    * MULLIKEN POPULATION ANALYSIS *
                    ********************************

-----------------------
MULLIKEN ATOMIC CHARGES
-----------------------
   0 N :   -0.516271
   1 C :   -0.376997
   2 O :   -0.723561
   3 H :    0.290232
   4 H :    0.326598
Sum of atomic charges:   -1.0000000

--------------------------------
MULLIKEN REDUCED ORBITAL CHARGES
--------------------------------
  0 N s       :     3.826729  s :     3.826729
      pz      :     1.244807  p :     3.664164
      px      :     1.247874
      py      :     1.171483
      dz2     :     0.003040  d :     0.023645
      dxz     :     0.000239
      dyz     :     0.005676
      dx2y2   :     0.008915
      dxy     :     0.005775
      f0      :     0.000199  f :     0.001732
      f+1     :     0.000039
      f-1     :     0.000243
      f+2     :     0.000290
      f-2     :     0.000054
      f+3     :     0.000466
      f-3     :     0.000439
  1 C s       :     3.920885  s :     3.920885
      pz      :     0.736091  p :     2.407021
      px      :     0.738993
      py      :     0.931938
      dz2     :     0.003387  d :     0.044690
      dxz     :     0.000634
      dyz     :     0.015003
      dx2y2   :     0.010699
      dxy     :     0.014967
      f0      :     0.000545  f :     0.004401
      f+1     :     0.000109
      f-1     :     0.000543
      f+2     :     0.000778
      f-2     :     0.000142
      f+3     :     0.001234
      f-3     :     0.001052
  2 O s       :     3.760381  s :     3.760381
      pz      :     1.934838  p :     4.943929
      px      :     1.428264
      py      :     1.580828
      dz2     :     0.003435  d :     0.018094
      dxz     :     0.001721
      dyz     :     0.001871
      dx2y2   :     0.010391
      dxy     :     0.000676
      f0      :     0.000186  f :     0.001158
      f+1     :     0.000272
      f-1     :     0.000223
      f+2     :     0.000096
      f-2     :     0.000019
      f+3     :     0.000249
      f-3     :     0.000113
  3 H s       :     0.636858  s :     0.636858
      pz      :     0.016813  p :     0.072910
      px      :     0.012206
      py      :     0.043891
  4 H s       :     0.626173  s :     0.626173
      pz      :     0.016256  p :     0.047229
      px      :     0.018798
      py      :     0.012175


                     *******************************
                     * LOEWDIN POPULATION ANALYSIS *
                     *******************************

----------------------
LOEWDIN ATOMIC CHARGES
----------------------
   0 N :   -0.341420
   1 C :   -0.483689
   2 O :   -0.363645
   3 H :    0.042673
   4 H :    0.146081

-------------------------------
LOEWDIN REDUCED ORBITAL CHARGES
-------------------------------
  0 N s       :     3.482352  s :     3.482352
      pz      :     1.198760  p :     3.781364
      px      :     1.206449
      py      :     1.376155
      dz2     :     0.013259  d :     0.073137
      dxz     :     0.000434
      dyz     :     0.010094
      dx2y2   :     0.036142
      dxy     :     0.013207
      f0      :     0.000314  f :     0.004567
      f+1     :     0.000085
      f-1     :     0.001053
      f+2     :     0.000455
      f-2     :     0.000082
      f+3     :     0.001060
      f-3     :     0.001518
  1 C s       :     3.582901  s :     3.582901
      pz      :     0.753517  p :     2.708961
      px      :     0.764847
      py      :     1.190596
      dz2     :     0.023026  d :     0.167806
      dxz     :     0.001541
      dyz     :     0.036493
      dx2y2   :     0.064399
      dxy     :     0.042347
      f0      :     0.002209  f :     0.024021
      f+1     :     0.000524
      f-1     :     0.004425
      f+2     :     0.003166
      f-2     :     0.000576
      f+3     :     0.006163
      f-3     :     0.006958
  2 O s       :     3.444562  s :     3.444562
      pz      :     1.877353  p :     4.887863
      px      :     1.458109
      py      :     1.552402
      dz2     :     0.005031  d :     0.028838
      dxz     :     0.001601
      dyz     :     0.001751
      dx2y2   :     0.019597
      dxy     :     0.000857
      f0      :     0.000139  f :     0.002381
      f+1     :     0.000400
      f-1     :     0.000315
      f+2     :     0.000288
      f-2     :     0.000019
      f+3     :     0.000763
      f-3     :     0.000458
  3 H s       :     0.705302  s :     0.705302
      pz      :     0.052411  p :     0.252025
      px      :     0.036020
      py      :     0.163595
  4 H s       :     0.687597  s :     0.687597
      pz      :     0.048747  p :     0.166322
      px      :     0.081956
      py      :     0.035619


                      *****************************
                      * MAYER POPULATION ANALYSIS *
                      *****************************

  NA   - Mulliken gross atomic population
  ZA   - Total nuclear charge
  QA   - Mulliken gross atomic charge
  VA   - Mayer's total valence
  BVA  - Mayer's bonded valence
  FA   - Mayer's free valence

  ATOM       NA         ZA         QA         VA         BVA        FA
  0 N      7.5163     7.0000    -0.5163     2.8489     2.8489    -0.0000
  1 C      6.3770     6.0000    -0.3770     2.6914     2.6914     0.0000
  2 O      8.7236     8.0000    -0.7236     1.6893     1.6893    -0.0000
  3 H      0.7098     1.0000     0.2902     1.0528     1.0528    -0.0000
  4 H      0.6734     1.0000     0.3266     0.9105     0.9105    -0.0000

  Mayer bond orders larger than 0.100000
B(  0-N ,  1-C ) :   2.6471 B(  0-N ,  3-H ) :   0.2202 B(  2-O ,  3-H ) :   0.8047 
B(  2-O ,  4-H ) :   0.9017 

-------
TIMINGS
-------

Total SCF time: 0 days 0 hours 0 min 9 sec 

Total time                  ....       9.990 sec
Sum of individual times     ....       8.698 sec  ( 87.1%)

Fock matrix formation       ....       7.475 sec  ( 74.8%)
  Split-RI-J                ....       0.585 sec  (  7.8% of F)
  XC integration            ....       3.903 sec  ( 52.2% of F)
    Basis function eval.    ....       0.950 sec  ( 24.4% of XC)
    Density eval.           ....       0.501 sec  ( 12.8% of XC)
    XC-Functional eval.     ....       0.339 sec  (  8.7% of XC)
    XC-Potential eval.      ....       0.598 sec  ( 15.3% of XC)
Diagonalization             ....       0.015 sec  (  0.1%)
Density matrix formation    ....       0.001 sec  (  0.0%)
Population analysis         ....       0.023 sec  (  0.2%)
Initial guess               ....       0.262 sec  (  2.6%)
Orbital Transformation      ....       0.000 sec  (  0.0%)
Orbital Orthonormalization  ....       0.000 sec  (  0.0%)
DIIS solution               ....       0.186 sec  (  1.9%)
SOSCF solution              ....       0.290 sec  (  2.9%)
Grid generation             ....       0.446 sec  (  4.5%)

Maximum memory used throughout the entire SCF-calculation: 23.5 MB


-------------------------------------------------------------------------------
                          DFT DISPERSION CORRECTION                            
                                                                               
                              DFTD3 V3.1  Rev 1                                
                          USING Becke-Johnson damping                          
-------------------------------------------------------------------------------
The PBE functional is recognized
Active option DFTDOPT                   ...         4   

molecular C6(AA) [au] = 318.457703 


            DFT-D V3
 parameters
 s6 scaling factor         :     1.0000 
 a1 scaling factor         :     0.4289 
 s8 scaling factor         :     0.7875 
 a2 scaling factor         :     4.4407 
 ad hoc parameters k1-k3   :    16.0000     1.3333    -4.0000 

 Edisp/kcal,au: -1.129327849042  -0.001799698292 
 E6   /kcal   :  -0.814124757 
 E8   /kcal   :  -0.315203093 
 % E8         :  27.910680925 

-------------------------   ----------------
Dispersion correction           -0.001799698
-------------------------   ----------------


-------------------------   --------------------
FINAL SINGLE POINT ENERGY      -169.197251958386
-------------------------   --------------------


                            ***************************************
                            *     ORCA property calculations      *
                            ***************************************

                                    ---------------------
                                    Active property flags
                                    ---------------------
   (+) Dipole Moment


------------------------------------------------------------------------------
                       ORCA ELECTRIC PROPERTIES CALCULATION
------------------------------------------------------------------------------

Dipole Moment Calculation                       ... on
Quadrupole Moment Calculation                   ... off
Polarizability Calculation                      ... off
GBWName                                         ... inp.gbw
Electron density                                ... inp.scfp
The origin for moment calculation is the CENTER OF MASS  = (-9.160168, -1.645163 -4.571842)

-------------
DIPOLE MOMENT
-------------
                                X             Y             Z
Electronic contribution:     -0.37437      -1.52590      -0.22794
Nuclear contribution   :      1.34859       2.70709       0.25339
                        -----------------------------------------
Total Dipole Moment    :      0.97422       1.18119       0.02545
                        -----------------------------------------
Magnitude (a.u.)       :      1.53133
Magnitude (Debye)      :      3.89232



--------------------
Rotational spectrum 
--------------------
 
Rotational constants in cm-1:    17.864867     0.140610     0.139830 
Rotational constants in MHz : 535575.250142  4215.373944  4191.998876 

 Dipole components along the rotational axes: 
x,y,z [a.u.] :     1.347511    -0.727389     0.008993 
x,y,z [Debye]:     3.425100    -1.848877     0.022857 

 

Timings for individual modules:

Sum of individual times         ...       11.711 sec (=   0.195 min)
GTO integral calculation        ...        1.531 sec (=   0.026 min)  13.1 %
SCF iterations                  ...       10.180 sec (=   0.170 min)  86.9 %
                             ****ORCA TERMINATED NORMALLY****
TOTAL RUN TIME: 0 days 0 hours 0 minutes 12 seconds 569 msec
