 Entering Gaussian System
 *********************************************
 Gaussian 98:
 frequency output generated by the xtb code
 *********************************************
                         Standard orientation:
 --------------------------------------------------------------------
  Center     Atomic     Atomic              Coordinates (Angstroms)
  Number     Number      Type              X           Y           Z
 --------------------------------------------------------------------
    1          6             0       -3.705682   -3.998119   -2.657462
    2          6             0       -4.208717   -2.584811   -3.160250
    3          8             0       -3.283877   -1.676048   -3.244569
    4          1             0       -6.196563   -2.981912   -2.225941
    5          6             0       -5.421463   -2.211010   -2.215377
    6          1             0       -4.722286   -2.826662   -4.176043
    7          1             0       -5.855087   -1.268513   -2.547088
    8          1             0       -5.060092   -2.080494   -1.195487
    9          1             0       -3.310060   -3.903893   -1.646326
   10          1             0       -4.509093   -4.739533   -2.661205
   11          1             0       -2.902627   -4.343109   -3.307420
 --------------------------------------------------------------------
     1 basis functions        1 primitive gaussians
     1 alpha electrons        1 beta electrons
 
 Harmonic frequencies (cm**-1), IR intensities (km*mol⁻¹),
 Raman scattering activities (A**4/amu), Raman depolarization ratios,
 reduced masses (AMU), force constants (mDyne/A) and normal coordinates:
                      1                      2                      3
                        a                      a                      a 
 Frequencies --   175.9715               221.6800               357.9454
 Red. masses --     1.2598                 2.0042                 8.0307
 Frc consts  --     0.0000                 0.0000                 0.0000
 IR Inten    --     0.0575                 1.4163                 3.7787
 Raman Activ --     0.0000                 0.0000                 0.0000
 Depolar     --     0.0000                 0.0000                 0.0000
 Atom AN      X      Y      Z        X      Y      Z        X      Y      Z
   1   6    -0.07  -0.04  -0.07     0.00   0.03   0.10    -0.38   0.10   0.19
   2   6    -0.02   0.02   0.00    -0.01  -0.01  -0.00     0.17   0.20  -0.15
   3   8     0.02  -0.02  -0.01    -0.05   0.00  -0.22     0.19   0.23  -0.18
   4   1     0.19  -0.17   0.34    -0.15   0.17  -0.27     0.17  -0.25  -0.02
   5   6     0.06   0.05   0.07     0.05  -0.02   0.09     0.11  -0.42   0.06
   6   1    -0.01   0.02   0.00    -0.02  -0.02   0.01     0.06   0.07  -0.04
   7   1    -0.24  -0.18  -0.20     0.26   0.19   0.27    -0.16  -0.16   0.14
   8   1     0.12   0.40  -0.07    -0.04  -0.39   0.10     0.06  -0.17   0.01
   9   1    -0.38  -0.13   0.13    -0.36  -0.06   0.18    -0.16   0.06   0.07
  10   1     0.07  -0.10  -0.41     0.09  -0.08  -0.33    -0.24   0.17   0.09
  11   1     0.24   0.18   0.20     0.27   0.18   0.27    -0.14  -0.19   0.14
                      4                      5                      6
                        a                      a                      a 
 Frequencies --   417.6846               498.3999               758.7690
 Red. masses --    10.8650                 8.3061                 9.1421
 Frc consts  --     0.0000                 0.0000                 0.0000
 IR Inten    --     6.9396                 2.4708                28.2781
 Raman Activ --     0.0000                 0.0000                 0.0000
 Depolar     --     0.0000                 0.0000                 0.0000
 Atom AN      X      Y      Z        X      Y      Z        X      Y      Z
   1   6     0.06   0.36  -0.07    -0.06   0.27   0.01    -0.20   0.44  -0.06
   2   6    -0.16   0.16   0.04    -0.24  -0.12  -0.43    -0.05  -0.16   0.45
   3   8     0.44  -0.46  -0.11    -0.10  -0.19   0.37    -0.12  -0.11  -0.02
   4   1     0.01  -0.12  -0.06     0.00   0.05   0.16     0.10  -0.04  -0.15
   5   6    -0.34  -0.07   0.15     0.26  -0.06  -0.07     0.40  -0.19  -0.21
   6   1    -0.11   0.11   0.03     0.00   0.04  -0.15    -0.08  -0.10   0.10
   7   1    -0.22  -0.06   0.09     0.09   0.04   0.12     0.19  -0.07  -0.22
   8   1    -0.17  -0.06   0.07     0.35  -0.07  -0.11    -0.06   0.02  -0.01
   9   1     0.05   0.18  -0.04    -0.07   0.36  -0.00     0.01  -0.05  -0.03
  10   1     0.13  -0.03   0.02     0.09  -0.04   0.14    -0.07   0.13  -0.10
  11   1     0.05   0.23  -0.05     0.07   0.06   0.12    -0.11   0.23  -0.14
                      7                      8                      9
                        a                      a                      a 
 Frequencies --   804.7106               872.5653               987.2148
 Red. masses --     7.2149                 2.8713                 5.8308
 Frc consts  --     0.0000                 0.0000                 0.0000
 IR Inten    --    43.7938                 4.7916                10.7449
 Raman Activ --     0.0000                 0.0000                 0.0000
 Depolar     --     0.0000                 0.0000                 0.0000
 Atom AN      X      Y      Z        X      Y      Z        X      Y      Z
   1   6     0.03   0.30  -0.22     0.02   0.22   0.15     0.30   0.11  -0.06
   2   6     0.36  -0.38  -0.09     0.11  -0.11  -0.03     0.02   0.03  -0.08
   3   8    -0.01   0.01   0.00     0.04  -0.04  -0.01    -0.26  -0.28   0.13
   4   1    -0.25   0.15   0.16    -0.11   0.04   0.25     0.30  -0.18  -0.25
   5   6    -0.25  -0.08   0.27    -0.25   0.03  -0.09     0.11   0.30  -0.01
   6   1     0.02  -0.02  -0.00     0.25  -0.26  -0.06    -0.09  -0.09  -0.01
   7   1     0.18   0.00  -0.17    -0.13   0.08   0.27    -0.27  -0.00   0.16
   8   1    -0.14   0.14   0.08     0.37  -0.12  -0.16    -0.09  -0.08   0.06
   9   1    -0.14   0.16  -0.01     0.13  -0.40   0.03    -0.07  -0.10   0.06
  10   1    -0.17   0.28  -0.05    -0.09   0.17  -0.20    -0.22   0.35  -0.12
  11   1     0.03  -0.21   0.12    -0.13   0.20  -0.21     0.02  -0.30   0.09
                     10                     11                     12
                        a                      a                      a 
 Frequencies --  1017.4125              1085.5178              1254.9972
 Red. masses --     6.8559                 6.7771                12.1516
 Frc consts  --     0.0000                 0.0000                 0.0000
 IR Inten    --    69.4454                73.7431               398.4513
 Raman Activ --     0.0000                 0.0000                 0.0000
 Depolar     --     0.0000                 0.0000                 0.0000
 Atom AN      X      Y      Z        X      Y      Z        X      Y      Z
   1   6    -0.31   0.02  -0.05     0.00  -0.06  -0.30    -0.09  -0.04   0.00
   2   6     0.38  -0.39  -0.10     0.04  -0.10   0.55     0.53   0.49   0.08
   3   8    -0.11   0.11   0.03     0.04   0.06  -0.11    -0.43  -0.41  -0.02
   4   1     0.23  -0.15  -0.18     0.01  -0.03   0.12    -0.06   0.04   0.06
   5   6     0.01   0.29   0.12    -0.13   0.08  -0.27    -0.04  -0.08  -0.01
   6   1     0.12  -0.13  -0.03     0.03   0.01   0.07     0.13   0.16  -0.15
   7   1    -0.24   0.00   0.15    -0.15   0.07   0.24     0.09   0.02  -0.03
   8   1    -0.14  -0.05   0.10     0.31  -0.14  -0.16     0.08   0.04  -0.04
   9   1     0.04   0.16  -0.07    -0.15   0.34  -0.05     0.03   0.08  -0.03
  10   1     0.17  -0.27   0.08     0.00  -0.02   0.13     0.05  -0.07   0.03
  11   1    -0.02   0.27  -0.08     0.11  -0.20   0.17     0.02   0.09  -0.01
                     13                     14                     15
                        a                      a                      a 
 Frequencies --  1295.4490              1335.1532              1349.5006
 Red. masses --     3.0582                 2.9033                 3.1355
 Frc consts  --     0.0000                 0.0000                 0.0000
 IR Inten    --    98.1956                 0.0846                16.1655
 Raman Activ --     0.0000                 0.0000                 0.0000
 Depolar     --     0.0000                 0.0000                 0.0000
 Atom AN      X      Y      Z        X      Y      Z        X      Y      Z
   1   6    -0.04   0.02  -0.19     0.09  -0.27   0.07    -0.11   0.25  -0.11
   2   6    -0.23   0.24   0.06    -0.03   0.03   0.01     0.08   0.08  -0.03
   3   8     0.04  -0.04  -0.01     0.00  -0.01  -0.00    -0.01  -0.02   0.04
   4   1     0.03  -0.01  -0.09    -0.20   0.20   0.23    -0.21   0.20   0.25
   5   6     0.03  -0.01   0.19     0.24  -0.07  -0.15     0.21  -0.08  -0.19
   6   1     0.58  -0.61  -0.15     0.09  -0.09  -0.02    -0.16  -0.17   0.08
   7   1     0.09  -0.02  -0.11    -0.24  -0.02   0.25    -0.23  -0.01   0.26
   8   1    -0.06   0.05   0.06    -0.36   0.08   0.12    -0.31   0.07   0.10
   9   1    -0.05   0.08  -0.03    -0.08   0.38  -0.01     0.07  -0.33  -0.00
  10   1     0.03  -0.05   0.07    -0.23   0.26  -0.12     0.23  -0.26   0.13
  11   1     0.04  -0.11   0.08    -0.02   0.30  -0.19     0.04  -0.28   0.19
                     16                     17                     18
                        a                      a                      a 
 Frequencies --  1376.6435              1499.0758              1506.2674
 Red. masses --     2.6967                 1.6659                 1.6351
 Frc consts  --     0.0000                 0.0000                 0.0000
 IR Inten    --   139.3583                 2.8024                 7.6356
 Raman Activ --     0.0000                 0.0000                 0.0000
 Depolar     --     0.0000                 0.0000                 0.0000
 Atom AN      X      Y      Z        X      Y      Z        X      Y      Z
   1   6    -0.05  -0.11  -0.02     0.05  -0.04  -0.16     0.07  -0.03  -0.14
   2   6     0.19   0.22  -0.13     0.02  -0.02  -0.01     0.01   0.02  -0.04
   3   8     0.06   0.03   0.11    -0.00   0.00   0.00    -0.01  -0.01   0.01
   4   1     0.01  -0.03  -0.03    -0.22   0.23  -0.40     0.20  -0.21   0.41
   5   6    -0.11  -0.04  -0.01     0.07  -0.09   0.13    -0.06   0.11  -0.11
   6   1    -0.55  -0.60   0.32    -0.02   0.02   0.01    -0.01  -0.00  -0.01
   7   1     0.09   0.02  -0.06    -0.27  -0.12   0.02     0.24   0.08  -0.09
   8   1     0.15  -0.01  -0.07     0.22   0.24  -0.10    -0.21  -0.30   0.11
   9   1    -0.02   0.16  -0.02    -0.22  -0.24   0.10    -0.28  -0.23   0.13
  10   1    -0.04   0.02  -0.02    -0.11   0.12   0.49    -0.09   0.10   0.49
  11   1     0.01   0.10  -0.04     0.13   0.27   0.01     0.08   0.25  -0.04
                     19                     20                     21
                        a                      a                      a 
 Frequencies --  1514.7152              1525.3305              2085.4571
 Red. masses --     1.6851                 1.6477                 1.5830
 Frc consts  --     0.0000                 0.0000                 0.0000
 IR Inten    --     0.3997                 6.1285               628.8597
 Raman Activ --     0.0000                 0.0000                 0.0000
 Depolar     --     0.0000                 0.0000                 0.0000
 Atom AN      X      Y      Z        X      Y      Z        X      Y      Z
   1   6     0.16   0.07   0.03     0.14   0.07   0.06     0.01  -0.02   0.03
   2   6     0.01  -0.01  -0.00     0.04   0.04   0.02     0.02  -0.03   0.18
   3   8    -0.00   0.00   0.00    -0.01  -0.01   0.00     0.08   0.08   0.00
   4   1     0.12  -0.13  -0.10    -0.17   0.17   0.05     0.01   0.01   0.00
   5   6    -0.09  -0.14  -0.05     0.09   0.12   0.07    -0.01   0.00   0.04
   6   1     0.00  -0.00  -0.00    -0.01  -0.02   0.01    -0.39  -0.16  -0.88
   7   1     0.23   0.23   0.35    -0.26  -0.24  -0.34     0.00  -0.01  -0.00
   8   1    -0.05   0.44  -0.04     0.09  -0.40   0.02    -0.01   0.01   0.02
   9   1    -0.41   0.04   0.16    -0.37   0.08   0.14     0.01  -0.02   0.01
  10   1     0.14  -0.15   0.04     0.17  -0.17  -0.04     0.01   0.00  -0.00
  11   1    -0.32  -0.13  -0.33    -0.33  -0.17  -0.32    -0.01   0.00   0.00
                     22                     23                     24
                        a                      a                      a 
 Frequencies --  2920.4822              2934.3821              2981.7170
 Red. masses --     1.7325                 1.7156                 1.8669
 Frc consts  --     0.0000                 0.0000                 0.0000
 IR Inten    --     0.1007               312.7441                 8.1538
 Raman Activ --     0.0000                 0.0000                 0.0000
 Depolar     --     0.0000                 0.0000                 0.0000
 Atom AN      X      Y      Z        X      Y      Z        X      Y      Z
   1   6    -0.14  -0.11  -0.00    -0.14  -0.11  -0.01    -0.01  -0.04  -0.19
   2   6    -0.00   0.00   0.00    -0.01  -0.01  -0.00     0.00  -0.00  -0.00
   3   8     0.00  -0.00  -0.00     0.00   0.00   0.00    -0.00   0.00   0.00
   4   1    -0.47  -0.50  -0.02     0.47   0.49   0.02     0.01  -0.01   0.03
   5   6     0.12   0.14   0.01    -0.12  -0.13  -0.01     0.08  -0.03   0.18
   6   1     0.00  -0.00  -0.00     0.01   0.01   0.01    -0.01   0.01   0.00
   7   1     0.04  -0.01   0.01    -0.03  -0.00  -0.01    -0.08   0.21  -0.05
   8   1     0.01   0.02  -0.01    -0.01  -0.02   0.02    -0.23  -0.08  -0.59
   9   1    -0.02  -0.02   0.01    -0.02  -0.02   0.02     0.24   0.07   0.59
  10   1     0.52   0.44   0.01     0.52   0.45   0.01     0.00  -0.00  -0.03
  11   1     0.00  -0.03  -0.02    -0.01  -0.03  -0.02    -0.18   0.06   0.12
                     25                     26                     27
                        a                      a                      a 
 Frequencies --  2990.4858              3000.1094              3002.9820
 Red. masses --     1.8278                 1.5212                 1.5306
 Frc consts  --     0.0000                 0.0000                 0.0000
 IR Inten    --   210.5643               135.2636                24.2352
 Raman Activ --     0.0000                 0.0000                 0.0000
 Depolar     --     0.0000                 0.0000                 0.0000
 Atom AN      X      Y      Z        X      Y      Z        X      Y      Z
   1   6     0.02   0.03   0.19     0.14  -0.05  -0.05     0.14  -0.05  -0.05
   2   6     0.00   0.00   0.01     0.01  -0.01  -0.00     0.00   0.00  -0.00
   3   8    -0.00  -0.00  -0.00    -0.00   0.00   0.00    -0.00  -0.00   0.00
   4   1     0.03   0.01   0.03    -0.02  -0.05  -0.00     0.01   0.04  -0.00
   5   6     0.08  -0.03   0.17     0.05  -0.14   0.00    -0.05   0.15  -0.00
   6   1    -0.01  -0.01  -0.01     0.00  -0.00  -0.00     0.00  -0.00   0.00
   7   1    -0.07   0.19  -0.04    -0.24   0.55  -0.22     0.25  -0.56   0.22
   8   1    -0.23  -0.08  -0.60     0.09   0.00   0.22    -0.09  -0.00  -0.21
   9   1    -0.24  -0.07  -0.60    -0.06  -0.03  -0.23    -0.05  -0.03  -0.21
  10   1     0.01   0.02   0.03     0.05   0.02  -0.01     0.04   0.01  -0.01
  11   1     0.17  -0.06  -0.11    -0.47   0.19   0.40    -0.47   0.19   0.40
