11
 energy: -14.204833917507 gnorm: 0.049717469736 xtb: 6.7.1 (edcfbbe)
C           -3.70614300000000       -4.00337300000000       -2.67455000000000
C           -4.22442900000000       -2.60399800000000       -3.14501300000000
O           -3.27220900000000       -1.67630300000000       -3.20318600000000
H           -6.26464200000000       -2.94711600000000       -2.20959400000000
C           -5.43102400000000       -2.20689800000000       -2.23008900000000
H           -4.74806800000000       -2.85454100000000       -4.16577000000000
H           -5.83614800000000       -1.22878800000000       -2.56933100000000
H           -5.05992700000000       -2.05934600000000       -1.18934400000000
H           -3.28829700000000       -3.90578800000000       -1.64572200000000
H           -4.47608100000000       -4.80992500000000       -2.67071700000000
H           -2.86830200000000       -4.31823200000000       -3.33407800000000
11
 energy: -14.207492527358 gnorm: 0.019944564827 xtb: 6.7.1 (edcfbbe)
C           -3.70447215244315       -3.99585097701512       -2.66159797490510
C           -4.22827193948846       -2.60478437508193       -3.15644609222142
O           -3.29177368712688       -1.68833008570189       -3.22712040670152
H           -6.22453966935926       -2.95796432863374       -2.21626125568669
C           -5.42019007013452       -2.20871349303526       -2.21946798024692
H           -4.72827743935600       -2.82954694563955       -4.18659946407497
H           -5.83801977771162       -1.25371771228817       -2.55478169627584
H           -5.06414037348310       -2.07220037439514       -1.19096288044064
H           -3.30144844799214       -3.90914194133595       -1.64506776023033
H           -4.48534587807712       -4.76961277904271       -2.66496764318430
H           -2.88879056482776       -4.32444498783055       -3.31412084603227
11
 energy: -14.207903589181 gnorm: 0.008000560370 xtb: 6.7.1 (edcfbbe)
C           -3.70621171058132       -3.99626111999891       -2.65968950318674
C           -4.21424169153532       -2.59242525966216       -3.15127504845949
O           -3.28673266316396       -1.67956482566726       -3.24212306421545
H           -6.20429509079207       -2.97385167410972       -2.22357490424151
C           -5.42021856144021       -2.21100977440324       -2.21794330624495
H           -4.72276024231681       -2.82902203822914       -4.16822586280530
H           -5.84570279813259       -1.26717570453421       -2.55169428071236
H           -5.06064895420767       -2.08090724081927       -1.19969079980913
H           -3.31177240902715       -3.90341468616439       -1.65027566152089
H           -4.50117249602894       -4.74782336738477       -2.66323801871522
H           -2.90151338277397       -4.33285230902694       -3.30966355008895
11
 energy: -14.207986640063 gnorm: 0.003651033800 xtb: 6.7.1 (edcfbbe)
C           -3.70735624421460       -3.99503929643985       -2.65714861594738
C           -4.21158054270328       -2.58772692457347       -3.15990181630306
O           -3.28476737145605       -1.67690368466028       -3.24485232502690
H           -6.19574974804712       -2.98238084666705       -2.22680578197891
C           -5.41847924630878       -2.21278197602981       -2.21621625091649
H           -4.72326566880726       -2.82762772173908       -4.17577813520754
H           -5.84978767261204       -1.26972496789635       -2.54629386180032
H           -5.05618229471815       -2.08566400094706       -1.19750012037572
H           -3.31546293074975       -3.89965351895262       -1.64593508002273
H           -4.50960337611248       -4.73865282100962       -2.66196369705056
H           -2.90303490427049       -4.33815224108480       -3.30499831537039
11
 energy: -14.208006519288 gnorm: 0.001299179021 xtb: 6.7.1 (edcfbbe)
C           -3.70458662987606       -3.99785016260954       -2.65784764473573
C           -4.20992363181805       -2.58602737489990       -3.16029578028743
O           -3.28455523817991       -1.67666132623929       -3.24480636300355
H           -6.19559412977616       -2.98174893590452       -2.22741570309461
C           -5.42116125204021       -2.20989976124605       -2.21556724076063
H           -4.72319498844846       -2.82755257948044       -4.17587197330232
H           -5.85599929715614       -1.26719477618073       -2.54515265707799
H           -5.05899029566564       -2.08171482918440       -1.19580728737815
H           -3.31130271358607       -3.90284762696833       -1.64601555900555
H           -4.50913151701509       -4.73833985426063       -2.66251438426098
H           -2.90083030643821       -4.34447077302617       -3.30609940709306
11
 energy: -14.208008192892 gnorm: 0.000635648431 xtb: 6.7.1 (edcfbbe)
C           -3.70565124264956       -3.99813361870445       -2.65748152211975
C           -4.20869208592694       -2.58482705487714       -3.16026878334347
O           -3.28385636621756       -1.67605967554844       -3.24458301010820
H           -6.19653866862409       -2.98194004647022       -2.22596808085514
C           -5.42144315169828       -2.21103453134316       -2.21539925970888
H           -4.72225579066806       -2.82667877261187       -4.17606438747704
H           -5.85507134126951       -1.26853930298489       -2.54711040405754
H           -5.06007649434200       -2.08051844427645       -1.19550816984593
H           -3.31003346738468       -3.90390721301187       -1.64634384216251
H           -4.50905886371298       -4.73955114304035       -2.66122883092015
H           -2.90259252750633       -4.34311819713115       -3.30743770940139
