 Entering Gaussian System
 *********************************************
 Gaussian 98:
 frequency output generated by the xtb code
 *********************************************
                         Standard orientation:
 --------------------------------------------------------------------
  Center     Atomic     Atomic              Coordinates (Angstroms)
  Number     Number      Type              X           Y           Z
 --------------------------------------------------------------------
    1          6             0       -5.262924   -6.501346    2.936303
    2          6             0       -5.080158   -5.245640    3.498768
    3          6             0       -2.944510   -6.284667   -0.064893
    4          1             0       -4.690822   -7.794794    1.326797
    5          6             0       -4.225840   -4.332996    2.930104
    6          1             0       -5.623970   -4.982615    4.405205
    7          6             0       -3.480030   -4.607571    1.742550
    8          1             0       -4.095996   -3.355760    3.384622
    9          6             0       -3.695312   -5.919763    1.187696
   10          8             0       -2.695130   -3.766997    1.221438
   11          6             0       -4.557436   -6.812731    1.779630
   12          1             0       -5.937976   -7.221961    3.385982
   13          1             0       -2.330763   -5.429556   -0.344751
   14          1             0       -2.294924   -7.151177    0.091009
   15          1             0       -3.624001   -6.518309   -0.890006
 --------------------------------------------------------------------
     1 basis functions        1 primitive gaussians
     1 alpha electrons        1 beta electrons
 
 Harmonic frequencies (cm**-1), IR intensities (km*mol⁻¹),
 Raman scattering activities (A**4/amu), Raman depolarization ratios,
 reduced masses (AMU), force constants (mDyne/A) and normal coordinates:
                      1                      2                      3
                        a                      a                      a 
 Frequencies --    78.6346               146.8555               253.2236
 Red. masses --     1.2939                10.7137                10.1905
 Frc consts  --     0.0000                 0.0000                 0.0000
 IR Inten    --     0.0083                 6.7513                 1.1813
 Raman Activ --     0.0000                 0.0000                 0.0000
 Depolar     --     0.0000                 0.0000                 0.0000
 Atom AN      X      Y      Z        X      Y      Z        X      Y      Z
   1   6    -0.06   0.03  -0.04     0.19  -0.09   0.14     0.22  -0.11   0.17
   2   6     0.03  -0.01   0.02    -0.20   0.10  -0.15     0.21  -0.10   0.16
   3   6     0.01  -0.01   0.01    -0.31   0.15  -0.23     0.17  -0.08   0.13
   4   1    -0.04   0.02  -0.03     0.10  -0.05   0.07    -0.08   0.04  -0.06
   5   6     0.06  -0.03   0.04    -0.28   0.13  -0.21    -0.27   0.13  -0.20
   6   1     0.02  -0.01   0.01    -0.12   0.06  -0.09     0.16  -0.08   0.12
   7   6     0.03  -0.01   0.02     0.05  -0.03   0.04    -0.18   0.09  -0.13
   8   1     0.03  -0.01   0.02    -0.16   0.07  -0.11    -0.08   0.04  -0.06
   9   6    -0.02   0.01  -0.02     0.02  -0.01   0.02    -0.33   0.16  -0.24
  10   8     0.02  -0.01   0.02     0.38  -0.18   0.28     0.24  -0.11   0.17
  11   6    -0.07   0.04  -0.06     0.22  -0.10   0.16    -0.23   0.11  -0.17
  12   1    -0.03   0.01  -0.02     0.11  -0.05   0.08     0.17  -0.08   0.12
  13   1    -0.41   0.19  -0.30    -0.17   0.08  -0.12     0.10  -0.05   0.07
  14   1     0.43   0.35   0.18    -0.02   0.08  -0.14     0.02  -0.02   0.18
  15   1     0.02  -0.56   0.15    -0.16   0.01   0.00     0.17  -0.07  -0.05
                      4                      5                      6
                        a                      a                      a 
 Frequencies --   282.4299               399.7900               432.0995
 Red. masses --    10.0681                 9.2952                11.7576
 Frc consts  --     0.0000                 0.0000                 0.0000
 IR Inten    --     7.3584                 0.0210                 5.0210
 Raman Activ --     0.0000                 0.0000                 0.0000
 Depolar     --     0.0000                 0.0000                 0.0000
 Atom AN      X      Y      Z        X      Y      Z        X      Y      Z
   1   6     0.04  -0.04  -0.09    -0.04   0.02  -0.03    -0.06  -0.27  -0.09
   2   6    -0.01  -0.06  -0.02    -0.19   0.09  -0.14     0.03  -0.24  -0.20
   3   6    -0.21  -0.55  -0.07     0.02  -0.01   0.01    -0.24   0.07   0.36
   4   1     0.05   0.04  -0.04     0.24  -0.12   0.18     0.08   0.02  -0.10
   5   6    -0.03  -0.04   0.01     0.26  -0.13   0.19    -0.01   0.05   0.04
   6   1    -0.01  -0.03  -0.01    -0.07   0.04  -0.05     0.00  -0.08  -0.05
   7   6     0.07   0.14  -0.00    -0.16   0.08  -0.12     0.11   0.30   0.05
   8   1    -0.02  -0.02   0.02     0.22  -0.10   0.16    -0.09  -0.02   0.11
   9   6     0.11   0.14  -0.05    -0.44   0.21  -0.33    -0.09   0.25   0.29
  10   8    -0.01   0.43   0.29     0.08  -0.04   0.06     0.28  -0.06  -0.41
  11   6     0.11   0.12  -0.06     0.29  -0.14   0.22     0.02  -0.03  -0.05
  12   1     0.02  -0.03  -0.05     0.03  -0.01   0.02    -0.02  -0.07  -0.02
  13   1     0.02  -0.28  -0.20     0.05  -0.02   0.03    -0.04  -0.02   0.04
  14   1    -0.15  -0.21   0.06    -0.02   0.01   0.15    -0.10   0.00   0.14
  15   1    -0.15  -0.21   0.07     0.12  -0.06  -0.08    -0.10   0.00   0.14
                      7                      8                      9
                        a                      a                      a 
 Frequencies --   503.9757               523.8074               561.4831
 Red. masses --    10.0367                11.9841                11.7040
 Frc consts  --     0.0000                 0.0000                 0.0000
 IR Inten    --     0.2264                 4.6044                 0.7710
 Raman Activ --     0.0000                 0.0000                 0.0000
 Depolar     --     0.0000                 0.0000                 0.0000
 Atom AN      X      Y      Z        X      Y      Z        X      Y      Z
   1   6     0.40  -0.19   0.30     0.25   0.17  -0.23    -0.18  -0.05   0.21
   2   6    -0.32   0.15  -0.24    -0.07   0.07   0.13    -0.30  -0.12   0.33
   3   6     0.03  -0.01   0.02     0.01  -0.10  -0.09     0.14  -0.01  -0.20
   4   1    -0.16   0.08  -0.12     0.05   0.02  -0.05     0.02   0.12   0.05
   5   6     0.20  -0.09   0.15    -0.13   0.28   0.36    -0.17  -0.33   0.02
   6   1    -0.24   0.11  -0.18    -0.08  -0.10   0.04    -0.06   0.02   0.09
   7   6     0.26  -0.12   0.19    -0.21  -0.00   0.28     0.09   0.06  -0.07
   8   1    -0.06   0.03  -0.05    -0.04   0.08   0.10    -0.07  -0.10   0.03
   9   6    -0.09   0.04  -0.07     0.10   0.12  -0.06     0.16   0.16  -0.12
  10   8    -0.13   0.06  -0.10    -0.12  -0.47  -0.14     0.17  -0.09  -0.29
  11   6    -0.25   0.12  -0.18     0.20   0.07  -0.22     0.07   0.43   0.18
  12   1     0.11  -0.05   0.08     0.08   0.02  -0.10    -0.02  -0.11  -0.04
  13   1     0.04  -0.02   0.03     0.04  -0.09  -0.12     0.05  -0.02  -0.08
  14   1    -0.01  -0.00   0.08    -0.05  -0.06   0.03     0.03  -0.01  -0.04
  15   1     0.07  -0.03  -0.03    -0.05  -0.06   0.03     0.03  -0.01  -0.04
                     10                     11                     12
                        a                      a                      a 
 Frequencies --   670.6762               744.1242               768.9212
 Red. masses --    10.5884                 3.4498                10.6335
 Frc consts  --     0.0000                 0.0000                 0.0000
 IR Inten    --    13.3572                16.7202                 2.4997
 Raman Activ --     0.0000                 0.0000                 0.0000
 Depolar     --     0.0000                 0.0000                 0.0000
 Atom AN      X      Y      Z        X      Y      Z        X      Y      Z
   1   6     0.17  -0.08   0.13     0.21  -0.10   0.15     0.18   0.16  -0.14
   2   6    -0.21   0.10  -0.16     0.12  -0.06   0.09    -0.00   0.05   0.04
   3   6     0.04  -0.02   0.03    -0.01   0.01  -0.01    -0.22   0.15   0.39
   4   1     0.04  -0.02   0.03    -0.17   0.08  -0.13     0.07   0.09  -0.04
   5   6     0.16  -0.08   0.12     0.06  -0.03   0.04     0.05  -0.35  -0.29
   6   1     0.09  -0.04   0.06    -0.21   0.10  -0.15     0.02   0.06   0.01
   7   6    -0.49   0.23  -0.36    -0.22   0.10  -0.16    -0.05  -0.28  -0.12
   8   1     0.21  -0.10   0.15    -0.15   0.07  -0.11     0.11  -0.06  -0.19
   9   6     0.30  -0.14   0.22    -0.03   0.01  -0.02     0.06   0.15   0.02
  10   8     0.13  -0.06   0.10     0.07  -0.03   0.05    -0.19  -0.18   0.14
  11   6    -0.20   0.09  -0.15     0.10  -0.05   0.07     0.18   0.29  -0.06
  12   1     0.07  -0.03   0.05    -0.59   0.28  -0.43     0.07  -0.02  -0.11
  13   1    -0.04   0.02  -0.03     0.01  -0.01   0.01    -0.04   0.01   0.06
  14   1     0.03  -0.01  -0.13    -0.01   0.00   0.04    -0.10   0.02   0.15
  15   1    -0.10   0.04   0.08     0.03  -0.01  -0.03    -0.10   0.02   0.15
                     13                     14                     15
                        a                      a                      a 
 Frequencies --   811.2559               847.2978               881.7002
 Red. masses --     4.5327                11.6297                 3.4840
 Frc consts  --     0.0000                 0.0000                 0.0000
 IR Inten    --     8.6625                 3.9432                 0.5878
 Raman Activ --     0.0000                 0.0000                 0.0000
 Depolar     --     0.0000                 0.0000                 0.0000
 Atom AN      X      Y      Z        X      Y      Z        X      Y      Z
   1   6    -0.18   0.09  -0.13    -0.26  -0.26   0.18    -0.07   0.03  -0.05
   2   6     0.12  -0.06   0.09     0.28  -0.09  -0.44    -0.12   0.06  -0.09
   3   6    -0.01   0.00  -0.00     0.11   0.01  -0.14    -0.02   0.01  -0.01
   4   1     0.02  -0.01   0.02     0.08   0.12  -0.02    -0.62   0.30  -0.46
   5   6     0.30  -0.14   0.22     0.12   0.17  -0.05     0.03  -0.01   0.02
   6   1    -0.21   0.10  -0.15     0.12   0.07  -0.12     0.15  -0.07   0.11
   7   6    -0.20   0.09  -0.15    -0.13  -0.07   0.12    -0.09   0.04  -0.06
   8   1    -0.52   0.25  -0.38     0.01   0.03   0.01     0.04  -0.02   0.03
   9   6     0.03  -0.02   0.02     0.08   0.16  -0.00     0.01  -0.00   0.00
  10   8     0.06  -0.03   0.04    -0.24  -0.26   0.15     0.02  -0.01   0.01
  11   6    -0.01   0.01  -0.01     0.03   0.36   0.19     0.31  -0.15   0.23
  12   1     0.27  -0.13   0.20    -0.08  -0.04   0.08     0.16  -0.08   0.12
  13   1     0.01  -0.00   0.01     0.06  -0.05  -0.12     0.02  -0.01   0.01
  14   1    -0.00   0.00   0.03    -0.02  -0.02   0.00    -0.02   0.01   0.06
  15   1     0.02  -0.01  -0.01    -0.01  -0.02   0.01     0.04  -0.02  -0.04
                     16                     17                     18
                        a                      a                      a 
 Frequencies --   902.0900               983.9061              1036.3755
 Red. masses --     2.7237                 4.9296                 4.2598
 Frc consts  --     0.0000                 0.0000                 0.0000
 IR Inten    --     0.0425                 7.8910                 2.0455
 Raman Activ --     0.0000                 0.0000                 0.0000
 Depolar     --     0.0000                 0.0000                 0.0000
 Atom AN      X      Y      Z        X      Y      Z        X      Y      Z
   1   6    -0.05   0.02  -0.04     0.06   0.01  -0.07     0.01  -0.00   0.01
   2   6     0.25  -0.12   0.18     0.03  -0.09  -0.10    -0.01   0.00  -0.00
   3   6     0.02  -0.01   0.01    -0.23  -0.35   0.09     0.32  -0.15   0.23
   4   1    -0.11   0.05  -0.08     0.03   0.09   0.02    -0.07   0.03  -0.05
   5   6    -0.14   0.06  -0.10    -0.01   0.10   0.08     0.03  -0.01   0.02
   6   1    -0.56   0.27  -0.41    -0.02  -0.09  -0.03    -0.00   0.00  -0.00
   7   6    -0.07   0.03  -0.05    -0.00   0.01   0.01     0.02  -0.01   0.02
   8   1     0.34  -0.16   0.25    -0.04   0.01   0.07    -0.06   0.03  -0.04
   9   6     0.04  -0.02   0.03     0.01  -0.12  -0.09    -0.25   0.12  -0.19
  10   8     0.01  -0.00   0.00     0.01   0.02   0.00    -0.01   0.00  -0.00
  11   6    -0.00   0.00  -0.00     0.09   0.31   0.07     0.04  -0.02   0.03
  12   1     0.18  -0.09   0.13     0.04  -0.07  -0.10    -0.00   0.00  -0.00
  13   1    -0.01   0.00  -0.01    -0.27   0.24   0.52    -0.15   0.07  -0.11
  14   1     0.01  -0.00  -0.03     0.23   0.09  -0.21     0.15  -0.09  -0.54
  15   1    -0.02   0.01   0.02     0.19   0.10  -0.24    -0.39   0.20   0.37
                     19                     20                     21
                        a                      a                      a 
 Frequencies --  1083.9323              1121.5134              1176.2556
 Red. masses --     7.1478                 7.0114                 2.0610
 Frc consts  --     0.0000                 0.0000                 0.0000
 IR Inten    --     0.7686                 9.7131                 1.9079
 Raman Activ --     0.0000                 0.0000                 0.0000
 Depolar     --     0.0000                 0.0000                 0.0000
 Atom AN      X      Y      Z        X      Y      Z        X      Y      Z
   1   6     0.22   0.39  -0.05     0.05  -0.01  -0.08     0.02   0.07   0.01
   2   6     0.13  -0.16  -0.28     0.02  -0.12  -0.10    -0.01  -0.06  -0.03
   3   6     0.05  -0.00  -0.07    -0.01   0.20   0.14     0.01  -0.04  -0.04
   4   1    -0.22  -0.06   0.26    -0.23  -0.03   0.30     0.21   0.09  -0.23
   5   6    -0.10  -0.35  -0.09    -0.03   0.25   0.19    -0.07  -0.05   0.06
   6   1     0.04  -0.05  -0.09    -0.18  -0.40  -0.02    -0.24  -0.51  -0.00
   7   6    -0.04   0.17   0.17     0.08  -0.25  -0.27     0.04  -0.13  -0.14
   8   1    -0.32  -0.21   0.29    -0.03   0.06   0.07     0.13   0.04  -0.15
   9   6    -0.05  -0.01   0.06     0.04  -0.21  -0.19     0.01   0.16   0.09
  10   8    -0.02  -0.05  -0.01     0.07   0.12  -0.01     0.01   0.01  -0.01
  11   6    -0.06   0.05   0.12    -0.08   0.19   0.23    -0.03   0.02   0.05
  12   1     0.02   0.24   0.13     0.06  -0.12  -0.15    -0.13   0.44   0.47
  13   1     0.02  -0.02  -0.04     0.06  -0.05  -0.12    -0.01   0.01   0.02
  14   1    -0.00  -0.01  -0.01    -0.12  -0.02   0.12     0.04   0.01  -0.03
  15   1     0.00  -0.01  -0.01    -0.10  -0.03   0.13     0.03   0.01  -0.04
                     22                     23                     24
                        a                      a                      a 
 Frequencies --  1198.0928              1242.3968              1321.3229
 Red. masses --     5.5503                 7.7695                 7.0954
 Frc consts  --     0.0000                 0.0000                 0.0000
 IR Inten    --    25.3803                 8.5991                17.3151
 Raman Activ --     0.0000                 0.0000                 0.0000
 Depolar     --     0.0000                 0.0000                 0.0000
 Atom AN      X      Y      Z        X      Y      Z        X      Y      Z
   1   6    -0.11  -0.04   0.12     0.12   0.03  -0.15    -0.06   0.26   0.25
   2   6     0.03   0.10   0.02     0.07   0.18   0.02    -0.03  -0.06   0.00
   3   6    -0.10   0.08   0.19     0.10  -0.05  -0.16     0.05   0.07  -0.02
   4   1     0.17   0.04  -0.20     0.22   0.10  -0.23     0.31   0.12  -0.34
   5   6    -0.09   0.06   0.16    -0.04   0.01   0.05     0.20   0.03  -0.26
   6   1     0.12   0.25   0.01    -0.00  -0.00   0.00    -0.14  -0.30   0.00
   7   6     0.05  -0.18  -0.19     0.12  -0.25  -0.32    -0.06   0.19   0.20
   8   1    -0.36  -0.11   0.42    -0.25  -0.09   0.28    -0.09  -0.05   0.09
   9   6     0.18  -0.15  -0.34    -0.22   0.17   0.41    -0.15  -0.42  -0.07
  10   8     0.01   0.04   0.01    -0.05  -0.02   0.05     0.00   0.01   0.01
  11   6     0.10  -0.02  -0.15    -0.16  -0.02   0.20     0.05   0.06  -0.03
  12   1    -0.10   0.18   0.25     0.09  -0.17  -0.24     0.06  -0.16  -0.18
  13   1    -0.02   0.01   0.04     0.04  -0.03  -0.07     0.02  -0.00  -0.03
  14   1    -0.05   0.00   0.07     0.06   0.01  -0.08    -0.08  -0.04   0.08
  15   1    -0.05   0.00   0.07     0.06   0.01  -0.08    -0.07  -0.04   0.08
                     25                     26                     27
                        a                      a                      a 
 Frequencies --  1374.4614              1387.3398              1482.9490
 Red. masses --     4.9675                 6.6952                10.1550
 Frc consts  --     0.0000                 0.0000                 0.0000
 IR Inten    --    30.4421                30.6858                44.1756
 Raman Activ --     0.0000                 0.0000                 0.0000
 Depolar     --     0.0000                 0.0000                 0.0000
 Atom AN      X      Y      Z        X      Y      Z        X      Y      Z
   1   6    -0.09  -0.03   0.10    -0.13  -0.09   0.12    -0.07   0.07   0.14
   2   6    -0.02   0.09   0.08    -0.02   0.17   0.14     0.30   0.35  -0.19
   3   6    -0.22   0.05   0.33     0.07  -0.12  -0.18    -0.06  -0.04   0.06
   4   1    -0.09  -0.06   0.08    -0.19  -0.12   0.18     0.08  -0.02  -0.12
   5   6     0.14   0.04  -0.16     0.22   0.07  -0.25    -0.26  -0.29   0.17
   6   1    -0.11  -0.20   0.02    -0.16  -0.28   0.04    -0.05  -0.18  -0.05
   7   6     0.09   0.13  -0.04     0.09   0.05  -0.09    -0.12  -0.01   0.15
   8   1    -0.10  -0.04   0.11    -0.18  -0.07   0.21     0.05  -0.04  -0.09
   9   6     0.10   0.10  -0.07     0.14   0.31   0.01     0.29   0.18  -0.27
  10   8    -0.12  -0.14   0.08    -0.14  -0.14   0.10     0.08   0.05  -0.08
  11   6     0.04  -0.07  -0.10     0.06  -0.14  -0.18    -0.22  -0.24   0.14
  12   1    -0.01  -0.05  -0.01    -0.03  -0.07  -0.00     0.05  -0.20  -0.20
  13   1     0.14  -0.24  -0.34    -0.12   0.17   0.27    -0.02   0.00   0.02
  14   1     0.18   0.07  -0.38    -0.04   0.00   0.23     0.06   0.06   0.06
  15   1     0.33  -0.00  -0.27    -0.19   0.07   0.12    -0.03   0.10  -0.00
                     28                     29                     30
                        a                      a                      a 
 Frequencies --  1498.1361              1499.2053              1529.2086
 Red. masses --     1.6152                 2.4853                10.7094
 Frc consts  --     0.0000                 0.0000                 0.0000
 IR Inten    --     1.4767                17.0629                30.1420
 Raman Activ --     0.0000                 0.0000                 0.0000
 Depolar     --     0.0000                 0.0000                 0.0000
 Atom AN      X      Y      Z        X      Y      Z        X      Y      Z
   1   6     0.00  -0.01  -0.01    -0.02   0.13   0.10     0.14  -0.41  -0.46
   2   6     0.00   0.01   0.00    -0.06  -0.17  -0.04     0.01   0.31   0.18
   3   6     0.18  -0.07   0.13    -0.06  -0.20  -0.02    -0.01  -0.01   0.01
   4   1     0.00  -0.00   0.00    -0.00  -0.00   0.00     0.05   0.06  -0.03
   5   6    -0.00  -0.00  -0.00     0.01   0.06   0.03     0.09  -0.06  -0.16
   6   1    -0.00  -0.00   0.00     0.03   0.05  -0.01    -0.05  -0.03   0.05
   7   6     0.00   0.01   0.00     0.01  -0.07  -0.05     0.02   0.26   0.15
   8   1     0.00  -0.00   0.00     0.02   0.02  -0.01    -0.06  -0.04   0.05
   9   6     0.02  -0.01   0.01    -0.05  -0.03   0.05     0.01  -0.22  -0.15
  10   8     0.00  -0.00   0.00     0.01   0.02  -0.00    -0.05  -0.07   0.02
  11   6    -0.01   0.00   0.00     0.06   0.01  -0.08    -0.18   0.12   0.32
  12   1    -0.00   0.00   0.00     0.01  -0.00  -0.02    -0.04   0.12   0.13
  13   1    -0.56   0.27  -0.40     0.06  -0.15  -0.25     0.03  -0.04  -0.07
  14   1    -0.36  -0.25   0.15     0.35   0.33   0.36     0.08   0.08   0.13
  15   1     0.23   0.26  -0.25    -0.14   0.62  -0.05    -0.08   0.15   0.02
                     31                     32                     33
                        a                      a                      a 
 Frequencies --  1560.1216              1619.3924              2920.7485
 Red. masses --    11.8936                11.7160                 1.9321
 Frc consts  --     0.0000                 0.0000                 0.0000
 IR Inten    --   272.5087               386.4525               114.0092
 Raman Activ --     0.0000                 0.0000                 0.0000
 Depolar     --     0.0000                 0.0000                 0.0000
 Atom AN      X      Y      Z        X      Y      Z        X      Y      Z
   1   6     0.08   0.19   0.01    -0.11  -0.10   0.09     0.00  -0.00   0.00
   2   6    -0.10  -0.28  -0.04     0.22   0.33  -0.09     0.00  -0.00   0.00
   3   6    -0.01   0.02   0.02     0.03   0.02  -0.04    -0.22   0.10  -0.16
   4   1     0.09   0.01  -0.12    -0.07  -0.02   0.09    -0.00   0.00  -0.00
   5   6    -0.05   0.06   0.11    -0.28  -0.22   0.24     0.00  -0.00   0.00
   6   1     0.06   0.12  -0.01    -0.03  -0.09  -0.02    -0.00   0.00   0.00
   7   6     0.40   0.40  -0.28     0.27   0.27  -0.20    -0.00   0.00  -0.00
   8   1     0.09   0.07  -0.08     0.07   0.00  -0.09    -0.00   0.00  -0.00
   9   6     0.15   0.04  -0.18    -0.26  -0.29   0.17    -0.00   0.00  -0.00
  10   8    -0.27  -0.29   0.18    -0.12  -0.12   0.08     0.00  -0.00   0.00
  11   6    -0.22  -0.16   0.20     0.29   0.17  -0.28     0.00  -0.00   0.00
  12   1     0.04  -0.01  -0.06    -0.02  -0.03   0.01     0.00   0.00  -0.00
  13   1    -0.02   0.04   0.07     0.01  -0.01  -0.02    -0.04   0.02  -0.03
  14   1    -0.03  -0.01   0.04    -0.01   0.00   0.03     0.38  -0.55   0.09
  15   1    -0.04  -0.01   0.04    -0.03   0.01   0.02     0.42   0.17   0.50
                     34                     35                     36
                        a                      a                      a 
 Frequencies --  2939.3865              2946.1119              2951.8415
 Red. masses --     1.5698                 1.7520                 1.6833
 Frc consts  --     0.0000                 0.0000                 0.0000
 IR Inten    --    12.4679               292.6511               127.4633
 Raman Activ --     0.0000                 0.0000                 0.0000
 Depolar     --     0.0000                 0.0000                 0.0000
 Atom AN      X      Y      Z        X      Y      Z        X      Y      Z
   1   6     0.01   0.01  -0.00     0.01   0.02  -0.00    -0.04  -0.04   0.03
   2   6     0.01  -0.00  -0.02    -0.12   0.06   0.19     0.05  -0.03  -0.08
   3   6     0.02   0.16   0.08     0.00   0.05   0.03     0.01   0.08   0.04
   4   1     0.06   0.46   0.21    -0.04  -0.29  -0.13    -0.09  -0.65  -0.30
   5   6     0.00   0.00   0.00    -0.01  -0.03  -0.01     0.01   0.02   0.01
   6   1    -0.04   0.02   0.07     0.42  -0.21  -0.70    -0.19   0.09   0.32
   7   6    -0.00   0.00   0.00     0.00  -0.01  -0.00    -0.00  -0.00   0.00
   8   1    -0.00  -0.01  -0.01     0.02   0.12   0.05    -0.01  -0.08  -0.04
   9   6    -0.00   0.00   0.00    -0.00   0.00   0.01    -0.00   0.01   0.01
  10   8     0.00  -0.00  -0.00    -0.00   0.00   0.00     0.00   0.00  -0.00
  11   6    -0.01  -0.12  -0.06     0.01   0.08   0.03     0.02   0.18   0.08
  12   1    -0.04  -0.04   0.03    -0.06  -0.06   0.04     0.16   0.17  -0.11
  13   1    -0.02  -0.01   0.02    -0.00   0.01   0.00    -0.00   0.00   0.01
  14   1     0.36  -0.45   0.12     0.12  -0.15   0.04     0.19  -0.24   0.06
  15   1    -0.38  -0.09  -0.43    -0.13  -0.03  -0.15    -0.20  -0.05  -0.23
                     37                     38                     39
                        a                      a                      a 
 Frequencies --  3000.0031              3011.5141              3014.0218
 Red. masses --     1.8298                 1.6914                 1.8452
 Frc consts  --     0.0000                 0.0000                 0.0000
 IR Inten    --   295.3582                29.2327               108.6280
 Raman Activ --     0.0000                 0.0000                 0.0000
 Depolar     --     0.0000                 0.0000                 0.0000
 Atom AN      X      Y      Z        X      Y      Z        X      Y      Z
   1   6    -0.14  -0.15   0.10     0.01   0.02  -0.01    -0.08  -0.09   0.05
   2   6    -0.01   0.00   0.02     0.01  -0.00  -0.01    -0.04   0.02   0.07
   3   6    -0.00  -0.00  -0.00     0.14   0.19  -0.06     0.03   0.03  -0.01
   4   1     0.02   0.15   0.07    -0.00  -0.03  -0.01     0.01   0.10   0.05
   5   6    -0.02  -0.12  -0.06    -0.00  -0.04  -0.02     0.03   0.20   0.09
   6   1     0.04  -0.02  -0.07    -0.02   0.01   0.03     0.11  -0.06  -0.19
   7   6    -0.00  -0.00   0.00    -0.00  -0.00   0.00     0.01   0.01  -0.00
   8   1     0.06   0.44   0.21     0.02   0.13   0.06    -0.10  -0.72  -0.33
   9   6     0.00   0.00  -0.00     0.01   0.00  -0.01     0.00  -0.00  -0.00
  10   8     0.00   0.00   0.00    -0.00  -0.00   0.00    -0.00  -0.00   0.00
  11   6    -0.01  -0.05  -0.02     0.00   0.01   0.00    -0.01  -0.03  -0.01
  12   1     0.50   0.53  -0.33    -0.05  -0.06   0.03     0.27   0.29  -0.18
  13   1    -0.00  -0.00   0.00    -0.53  -0.75   0.24    -0.10  -0.14   0.05
  14   1    -0.01   0.02  -0.00     0.01   0.04  -0.01    -0.01   0.03  -0.01
  15   1     0.01   0.00   0.01     0.03   0.03   0.01     0.02   0.01   0.02
