      -----------------------------------------------------------      
     |                   =====================                   |     
     |                           x T B                           |     
     |                   =====================                   |     
     |                         S. Grimme                         |     
     |          Mulliken Center for Theoretical Chemistry        |     
     |                    University of Bonn                     |     
      -----------------------------------------------------------      

   * xtb version 6.7.1 (edcfbbe) compiled by 'albert@albert-system' on 2024-07-22

   xtb is free software: you can redistribute it and/or modify it under
   the terms of the GNU Lesser General Public License as published by
   the Free Software Foundation, either version 3 of the License, or
   (at your option) any later version.
   
   xtb is distributed in the hope that it will be useful,
   but WITHOUT ANY WARRANTY; without even the implied warranty of
   MERCHANTABILITY or FITNESS FOR A PARTICULAR PURPOSE.  See the
   GNU Lesser General Public License for more details.
   
   Cite this work as:
   * C. Bannwarth, E. Caldeweyher, S. Ehlert, A. Hansen, P. Pracht,
     J. Seibert, S. Spicher, S. Grimme, WIREs Comput. Mol. Sci., 2020, 11,
     e01493. DOI: 10.1002/wcms.1493
   
   for GFN2-xTB:
   * C. Bannwarth, S. Ehlert and S. Grimme., J. Chem. Theory Comput., 2019,
     15, 1652-1671. DOI: 10.1021/acs.jctc.8b01176
   for GFN1-xTB:
   * S. Grimme, C. Bannwarth, P. Shushkov, J. Chem. Theory Comput., 2017,
     13, 1989-2009. DOI: 10.1021/acs.jctc.7b00118
   for GFN0-xTB:
   * P. Pracht, E. Caldeweyher, S. Ehlert, S. Grimme, ChemRxiv, 2019, preprint.
     DOI: 10.26434/chemrxiv.8326202.v1
   for GFN-FF:
   * S. Spicher and S. Grimme, Angew. Chem. Int. Ed., 2020, 59, 15665-15673.
     DOI: 10.1002/anie.202004239
   
   for ALPB and GBSA implicit solvation:
   * S. Ehlert, M. Stahn, S. Spicher, S. Grimme, J. Chem. Theory Comput.,
     2021, 17, 4250-4261. DOI: 10.1021/acs.jctc.1c00471
   
   for ddCOSMO and CPCM-X implicit solvation:
   * M. Stahn, S. Ehlert, S. Grimme, J. Phys. Chem. A,
     2023, XX, XXXX-XXXX. DOI: 10.1021/acs.jpca.3c04382
   
   for DFT-D4:
   * E. Caldeweyher, C. Bannwarth and S. Grimme, J. Chem. Phys., 2017,
     147, 034112. DOI: 10.1063/1.4993215
   * E. Caldeweyher, S. Ehlert, A. Hansen, H. Neugebauer, S. Spicher,
     C. Bannwarth and S. Grimme, J. Chem. Phys., 2019, 150, 154122.
     DOI: 10.1063/1.5090222
   * E. Caldeweyher, J.-M. Mewes, S. Ehlert and S. Grimme, Phys. Chem. Chem. Phys.
     2020, 22, 8499-8512. DOI: 10.1039/D0CP00502A
   
   for sTDA-xTB:
   * S. Grimme and C. Bannwarth, J. Chem. Phys., 2016, 145, 054103.
     DOI: 10.1063/1.4959605
   
   in the mass-spec context:
   * V. Asgeirsson, C. Bauer and S. Grimme, Chem. Sci., 2017, 8, 4879.
     DOI: 10.1039/c7sc00601b
   * J. Koopman and S. Grimme, ACS Omega 2019, 4, 12, 15120-15133.
     DOI: 10.1021/acsomega.9b02011
   
   for metadynamics refer to:
   * S. Grimme, J. Chem. Theory Comput., 2019, 155, 2847-2862
     DOI: 10.1021/acs.jctc.9b00143
   
   for SPH calculations refer to:
   * S. Spicher and S. Grimme, J. Chem. Theory Comput., 2021, 17, 1701-1714
     DOI: 10.1021/acs.jctc.0c01306
   
   for ONIOM refer to:
   * C. Plett, A. Katbashev, S. Ehlert, S. Grimme, M. Bursch,
     Phys. Chem. Chem. Phys., 2023, 25, 17860-17868. DOI: 10.1039/D3CP02178E
   
   for DIPRO refer to:
   * J. Kohn, N. Gildemeister, S. Grimme, D. Fazzi, A. Hansen,
     J. Chem. Phys., 2023, just accepted.
   
   for PTB refer to:
   * S. Grimme, M. Mueller, A. Hansen, J. Chem. Phys., 2023, 158, 124111.
     DOI: 10.1063/5.0137838
   
   with help from (in alphabetical order)
   P. Atkinson, C. Bannwarth, F. Bohle, G. Brandenburg, E. Caldeweyher
   M. Checinski, S. Dohm, S. Ehlert, S. Ehrlich, I. Gerasimov, C. Hölzer
   A. Katbashev, J. Kohn, J. Koopman, C. Lavigne, S. Lehtola, F. März, M. Müller,
   F. Musil, H. Neugebauer, J. Pisarek, C. Plett, P. Pracht, F. Pultar,
   J. Seibert, P. Shushkov, S. Spicher, M. Stahn, M. Steiner, T. Strunk,
   J. Stückrath, T. Rose, and J. Unsleber
   
 * started run on 2025/10/18 at 02:24:22.150     
   ID    Z sym.   atoms
    1    6 C      1-3, 5, 7, 9, 11
    2    1 H      4, 6, 8, 12-15
    3    8 O      10

           -------------------------------------------------
          |                Calculation Setup                |
           -------------------------------------------------

          program call               : xtb xyz.xyz --charge -1 --ohess
          hostname                   : m003
          coordinate file            : xyz.xyz
          omp threads                :                     2


           -------------------------------------------------
          |                 G F N 2 - x T B                 |
           -------------------------------------------------

        Reference                      10.1021/acs.jctc.8b01176
      * Hamiltonian:
        H0-scaling (s, p, d)           1.850000    2.230000    2.230000
        zeta-weighting                 0.500000
      * Dispersion:
        s8                             2.700000
        a1                             0.520000
        a2                             5.000000
        s9                             5.000000
      * Repulsion:
        kExp                           1.500000    1.000000
        rExp                           1.000000
      * Coulomb:
        alpha                          2.000000
        third order                    shell-resolved
        anisotropic                    true
        a3                             3.000000
        a5                             4.000000
        cn-shift                       1.200000
        cn-exp                         4.000000
        max-rad                        5.000000


          ...................................................
          :                      SETUP                      :
          :.................................................:
          :  # basis functions                  39          :
          :  # atomic orbitals                  39          :
          :  # shells                           23          :
          :  # electrons                        42          :
          :  max. iterations                   250          :
          :  Hamiltonian                  GFN2-xTB          :
          :  restarted?                      false          :
          :  GBSA solvation                  false          :
          :  PC potential                    false          :
          :  electronic temp.          300.0000000     K    :
          :  accuracy                    1.0000000          :
          :  -> integral cutoff          0.2500000E+02      :
          :  -> integral neglect         0.1000000E-07      :
          :  -> SCF convergence          0.1000000E-05 Eh   :
          :  -> wf. convergence          0.1000000E-03 e    :
          :  Broyden damping             0.4000000          :
          :  net charge                         -1          :
          :  unpaired electrons                  0          :
          ...................................................

 iter      E             dE          RMSdq      gap      omega  full diag
   1    -23.0744298 -0.230744E+02  0.426E+00    3.80       0.0  T
   2    -23.1436804 -0.692507E-01  0.190E+00    2.86       1.0  T
   3    -23.1421365  0.154395E-02  0.119E+00    3.04       1.0  T
   4    -23.1487437 -0.660720E-02  0.503E-01    2.95       1.0  T
   5    -23.1507148 -0.197106E-02  0.912E-02    2.97       1.0  T
   6    -23.1507464 -0.316017E-04  0.549E-02    2.98       1.0  T
   7    -23.1507495 -0.316821E-05  0.182E-02    2.98       1.4  T
   8    -23.1507528 -0.326646E-05  0.720E-03    2.98       3.6  T
   9    -23.1507531 -0.317726E-06  0.328E-03    2.98       7.9  T
  10    -23.1507532 -0.407567E-07  0.117E-03    2.98      22.1  T
  11    -23.1507532 -0.169511E-08  0.282E-04    2.98      91.6  T
  12    -23.1507532 -0.817881E-09  0.960E-05    2.98     269.1  T

   *** convergence criteria satisfied after 12 iterations ***

         #    Occupation            Energy/Eh            Energy/eV
      -------------------------------------------------------------
         1        2.0000           -0.4517322             -12.2923
       ...           ...                  ...                  ...
        15        2.0000           -0.2812902              -7.6543
        16        2.0000           -0.2501116              -6.8059
        17        2.0000           -0.2471367              -6.7249
        18        2.0000           -0.2396104              -6.5201
        19        2.0000           -0.2053268              -5.5872
        20        2.0000           -0.1508879              -4.1059
        21        2.0000           -0.1463346              -3.9820 (HOMO)
        22                         -0.0368679              -1.0032 (LUMO)
        23                         -0.0030048              -0.0818
        24                          0.1058811               2.8812
        25                          0.2698547               7.3431
        26                          0.2895571               7.8792
       ...                                ...                  ...
        39                          0.8496895              23.1212
      -------------------------------------------------------------
                  HL-Gap            0.1094667 Eh            2.9787 eV
             Fermi-level           -0.0916013 Eh           -2.4926 eV

 SCC (total)                   0 d,  0 h,  0 min,  0.037 sec
 SCC setup                      ...        0 min,  0.000 sec (  0.743%)
 Dispersion                     ...        0 min,  0.000 sec (  0.540%)
 classical contributions        ...        0 min,  0.000 sec (  0.116%)
 integral evaluation            ...        0 min,  0.001 sec (  3.980%)
 iterations                     ...        0 min,  0.032 sec ( 87.276%)
 molecular gradient             ...        0 min,  0.003 sec (  6.823%)
 printout                       ...        0 min,  0.000 sec (  0.410%)

         :::::::::::::::::::::::::::::::::::::::::::::::::::::
         ::                     SUMMARY                     ::
         :::::::::::::::::::::::::::::::::::::::::::::::::::::
         :: total energy             -22.810575149013 Eh    ::
         :: gradient norm              0.067987646769 Eh/a0 ::
         :: HOMO-LUMO gap              2.978741827519 eV    ::
         ::.................................................::
         :: SCC energy               -23.150729472722 Eh    ::
         :: -> isotropic ES            0.154319106261 Eh    ::
         :: -> anisotropic ES          0.017904837842 Eh    ::
         :: -> anisotropic XC          0.007524450783 Eh    ::
         :: -> dispersion             -0.012637959456 Eh    ::
         :: repulsion energy           0.340154323709 Eh    ::
         :: add. restraining           0.000000000000 Eh    ::
         :: total charge              -1.000000000000 e     ::
         :::::::::::::::::::::::::::::::::::::::::::::::::::::

      ----------------------------------------------------------- 
     |                   =====================                   |
     |                        A N C O P T                        |
     |                   =====================                   |
     |               Approximate Normal Coordinate               |
     |                Rational Function Optimizer                |
      ----------------------------------------------------------- 
      ----------------------------------------------------------- 
     |                   =====================                   |
     |                        A N C O P T                        |
     |                   =====================                   |
     |               Approximate Normal Coordinate               |
     |                Rational Function Optimizer                |
      ----------------------------------------------------------- 

          ...................................................
          :                      SETUP                      :
          :.................................................:
          :   optimization level            normal          :
          :   max. optcycles                   200          :
          :   ANC micro-cycles                  20          :
          :   degrees of freedom                39          :
          :.................................................:
          :   RF solver                   davidson          :
          :   write xtbopt.log                true          :
          :   linear?                        false          :
          :   energy convergence         0.5000000E-05 Eh   :
          :   grad. convergence          0.1000000E-02 Eh/α :
          :   maxmium RF displ.          1.0000000          :
          :   Hlow (freq-cutoff)         0.1000000E-01      :
          :   Hmax (freq-cutoff)         5.0000000          :
          :   S6 in model hess.         20.0000000          :
          ...................................................

generating ANC from exact Hessian ...
Using Lindh-Hessian (1995)
 Shifting diagonal of input Hessian by   4.894523548410044E-003
 Lowest  eigenvalues of input Hessian
    0.000000    0.000000    0.000000    0.000000    0.000000    0.000000
    0.010000    0.012769    0.019342    0.020560    0.023306    0.029683
    0.046808    0.047743    0.070526    0.075303    0.088618    0.098070
 Highest eigenvalues
    1.415814    1.535342    1.764522    1.808877    1.935307    2.142745
 

........................................................................
.............................. CYCLE    1 ..............................
........................................................................

 iter      E             dE          RMSdq      gap      omega  full diag
   1    -23.1507532 -0.231508E+02  0.479E-05    2.98       0.0  T
   2    -23.1507532 -0.402167E-11  0.278E-05    2.98     929.5  T
   3    -23.1507532 -0.236255E-11  0.201E-05    2.98    1286.1  T
     SCC iter.                  ...        0 min,  0.001 sec
     gradient                   ...        0 min,  0.002 sec
 * total energy  :   -22.8105751 Eh     change       -0.2313527E-10 Eh
   gradient norm :     0.0679868 Eh/α   predicted     0.0000000E+00 (-100.00%)
   displ. norm   :     0.1832175 α      lambda       -0.4687279E-02
   maximum displ.:     0.1164494 α      in ANC's #9, #4, #15, ...

........................................................................
.............................. CYCLE    2 ..............................
........................................................................

 iter      E             dE          RMSdq      gap      omega  full diag
   1    -23.1619206 -0.231619E+02  0.204E-01    3.11       0.0  T
   2    -23.1620713 -0.150666E-03  0.118E-01    3.14       1.0  T
   3    -23.1621185 -0.472237E-04  0.660E-02    3.14       1.0  T
   4    -23.1621260 -0.755986E-05  0.131E-02    3.14       2.0  T
   5    -23.1621271 -0.106499E-05  0.472E-03    3.14       5.5  T
   6    -23.1621273 -0.185439E-06  0.208E-03    3.14      12.4  T
   7    -23.1621273 -0.465393E-07  0.585E-04    3.14      44.1  T
   8    -23.1621273 -0.338407E-09  0.260E-04    3.14      99.2  T
     SCC iter.                  ...        0 min,  0.003 sec
     gradient                   ...        0 min,  0.002 sec
 * total energy  :   -22.8137565 Eh     change       -0.3181337E-02 Eh
   gradient norm :     0.0276485 Eh/α   predicted    -0.2422314E-02 ( -23.86%)
   displ. norm   :     0.1815189 α      lambda       -0.1321708E-02
   maximum displ.:     0.1680716 α      in ANC's #4, #9, #15, ...

........................................................................
.............................. CYCLE    3 ..............................
........................................................................

 iter      E             dE          RMSdq      gap      omega  full diag
   1    -23.1655775 -0.231656E+02  0.128E-01    3.21       0.0  T
   2    -23.1656633 -0.857229E-04  0.697E-02    3.24       1.0  T
   3    -23.1656890 -0.257219E-04  0.376E-02    3.24       1.0  T
   4    -23.1656910 -0.197571E-05  0.108E-02    3.23       2.4  T
   5    -23.1656916 -0.623597E-06  0.360E-03    3.24       7.2  T
   6    -23.1656917 -0.960986E-07  0.155E-03    3.24      16.7  T
   7    -23.1656917 -0.240589E-07  0.413E-04    3.24      62.5  T
   8    -23.1656917 -0.293522E-09  0.183E-04    3.24     140.9  T
     SCC iter.                  ...        0 min,  0.003 sec
     gradient                   ...        0 min,  0.002 sec
 * total energy  :   -22.8145026 Eh     change       -0.7461168E-03 Eh
   gradient norm :     0.0065245 Eh/α   predicted    -0.6826320E-03 (  -8.51%)
   displ. norm   :     0.0751009 α      lambda       -0.1384494E-03
   maximum displ.:     0.0730891 α      in ANC's #4, #7, #12, ...

........................................................................
.............................. CYCLE    4 ..............................
........................................................................

 iter      E             dE          RMSdq      gap      omega  full diag
   1    -23.1649982 -0.231650E+02  0.341E-02    3.23       0.0  T
   2    -23.1650022 -0.399976E-05  0.193E-02    3.24       1.3  T
   3    -23.1650026 -0.401736E-06  0.108E-02    3.24       2.4  T
   4    -23.1650029 -0.254603E-06  0.255E-03    3.24      10.1  T
   5    -23.1650029 -0.579453E-07  0.917E-04    3.24      28.2  T
   6    -23.1650029 -0.169353E-08  0.407E-04    3.24      63.4  T
     SCC iter.                  ...        0 min,  0.002 sec
     gradient                   ...        0 min,  0.002 sec
 * total energy  :   -22.8145949 Eh     change       -0.9226460E-04 Eh
   gradient norm :     0.0038999 Eh/α   predicted    -0.6961604E-04 ( -24.55%)
   displ. norm   :     0.0410780 α      lambda       -0.3631417E-04
   maximum displ.:     0.0396152 α      in ANC's #4, #7, #14, ...

........................................................................
.............................. CYCLE    5 ..............................
........................................................................

 iter      E             dE          RMSdq      gap      omega  full diag
   1    -23.1647691 -0.231648E+02  0.164E-02    3.23       0.0  T
   2    -23.1647694 -0.332711E-06  0.943E-03    3.23       2.7  T
   3    -23.1647694  0.267603E-07  0.400E-03    3.23       6.5  T
   4    -23.1647695 -0.822749E-07  0.101E-03    3.23      25.7  T
   5    -23.1647695 -0.631228E-08  0.488E-04    3.23      53.0  T
   6    -23.1647695 -0.593968E-09  0.203E-04    3.23     126.9  T
     SCC iter.                  ...        0 min,  0.002 sec
     gradient                   ...        0 min,  0.002 sec
 * total energy  :   -22.8146156 Eh     change       -0.2075709E-04 Eh
   gradient norm :     0.0017448 Eh/α   predicted    -0.1818572E-04 ( -12.39%)
   displ. norm   :     0.0122399 α      lambda       -0.3182952E-05
   maximum displ.:     0.0113730 α      in ANC's #4, #17, #14, ...

........................................................................
.............................. CYCLE    6 ..............................
........................................................................

 iter      E             dE          RMSdq      gap      omega  full diag
   1    -23.1649692 -0.231650E+02  0.903E-03    3.23       0.0  T
   2    -23.1649694 -0.199004E-06  0.476E-03    3.23       5.4  T
   3    -23.1649694 -0.426200E-07  0.314E-03    3.23       8.2  T
   4    -23.1649695 -0.293178E-07  0.577E-04    3.23      44.8  T
   5    -23.1649695 -0.388565E-08  0.240E-04    3.23     107.6  T
     SCC iter.                  ...        0 min,  0.002 sec
     gradient                   ...        0 min,  0.002 sec
 * total energy  :   -22.8146180 Eh     change       -0.2375702E-05 Eh
   gradient norm :     0.0004260 Eh/α   predicted    -0.1593318E-05 ( -32.93%)
   displ. norm   :     0.0035170 α      lambda       -0.3203209E-06
   maximum displ.:     0.0030902 α      in ANC's #4, #12, #15, ...

   *** GEOMETRY OPTIMIZATION CONVERGED AFTER 6 ITERATIONS ***

------------------------------------------------------------------------
 total energy gain   :        -0.0040429 Eh       -2.5369 kcal/mol
 total RMSD          :         0.1178827 a0        0.0624 Å
 total power (kW/mol):        -1.7690839 (step) -317.9033 (real)
------------------------------------------------------------------------

 ANCopt (total)                0 d,  0 h,  0 min,  0.033 sec
 optimizer setup                ...        0 min,  0.000 sec (  0.943%)
 model hessian                  ...        0 min,  0.002 sec (  5.487%)
 ANC generation                 ...        0 min,  0.000 sec (  0.748%)
 coordinate transformation      ...        0 min,  0.000 sec (  0.136%)
 single point calculation       ...        0 min,  0.030 sec ( 88.947%)
 optimization log               ...        0 min,  0.000 sec (  1.031%)
 hessian update                 ...        0 min,  0.000 sec (  0.173%)
 rational function              ...        0 min,  0.001 sec (  1.712%)

================
 final structure:
================
15
 xtb: 6.7.1 (edcfbbe)
C           -5.26290004612665       -6.50137804472222        2.93627346740864
C           -5.08014178012310       -5.24567248148102        3.49874074050367
C           -2.94447705747791       -6.28468136770964       -0.06491402383676
H           -4.69078528808631       -7.79481978082603        1.32676665203496
C           -4.22582746315259       -4.33302290308742        2.93008105234116
H           -5.62395838462431       -4.98265212430693        4.40517595954822
C           -3.48001151100931       -4.60759162210893        1.74252950090538
H           -4.09599017342443       -3.35578660382150        3.38460201550814
C           -3.69528485017122       -5.91978400150208        1.18767283256538
O           -2.69511474056046       -3.76701260665165        1.22142194415245
C           -4.55740589185005       -6.81275766379622        1.77960203428222
H           -5.93794986788290       -7.22199694299589        3.38594792166976
H           -2.33073346429214       -5.42956687228204       -0.34476872592722
H           -2.29488636565971       -7.15118803241476        0.09098864832736
H           -3.62396311555890       -6.51832595229366       -0.89003001948334
 
 Bond Distances (Angstroems)
 ---------------------------
C1-C2=1.3880         C1-C11=1.3902        C1-H12=1.0850        C2-C1=1.3880         C2-C5=1.3734         C2-H6=1.0893         
C3-C9=1.5053         C3-H13=1.0891        C3-H14=1.0941        C3-H15=1.0941        H4-C11=1.0896        C5-C2=1.3734         
C5-C7=1.4290         C5-H8=1.0856         H6-C2=1.0893         C7-C5=1.4290         C7-C9=1.4409         C7-O10=1.2626        
H8-C5=1.0856         C9-C3=1.5053         C9-C7=1.4409         C9-C11=1.3751        O10-C7=1.2626        C11-C1=1.3902        
C11-H4=1.0896        C11-C9=1.3751        H12-C1=1.0850        H13-C3=1.0891        H14-C3=1.0941        H15-C3=1.0941        
 C  H  Rav=1.0895 sigma=0.0034  Rmin=1.0850  Rmax=1.0941     7
 C  C  Rav=1.4145 sigma=0.0442  Rmin=1.3734  Rmax=1.5053     7
 O  C  Rav=1.2626 sigma=0.0000  Rmin=1.2626  Rmax=1.2626     1
 
 selected bond angles (degree)
 --------------------
C11-C1-C2=118.23               H12-C1-C2=120.99               H12-C1-C11=120.79              C5-C2-C1=121.02                
H6-C2-C1=119.34                H6-C2-C5=119.65                H13-C3-C9=107.73               H14-C3-C9=111.69               
H14-C3-H13=108.90              H15-C3-C9=111.69               H15-C3-H13=108.90              H15-C3-H14=107.88              
C7-C5-C2=122.76                H8-C5-C2=119.95                H8-C5-C7=117.29                C9-C7-C5=114.65                
O10-C7-C5=122.65               O10-C7-C9=122.70               C7-C9-C3=117.82                C11-C9-C3=120.90               
C11-C9-C7=121.28               
 
 selected dihedral angles (degree)
 ---------------------------------
C5-C2-C1-C11=  0.00           C5-C2-C1-H12=180.00           H6-C2-C1-C11=180.00           H6-C2-C1-H12=  0.00           
C7-C5-C2-C1=  0.00            C7-C5-C2-H6=180.00            H8-C5-C2-C1=180.00            H8-C5-C2-H6=  0.00            
C9-C7-C5-C2=  0.00            C9-C7-C5-H8=180.00            O10-C7-C5-C2=180.00           O10-C7-C5-H8=  0.00           
C7-C9-C3-H13=  0.00           C7-C9-C3-H14=119.54           C7-C9-C3-H15=240.46           C11-C9-C3-H13=180.00          
C11-C9-C3-H14=299.54          C11-C9-C3-H15= 60.46          C3-C9-C7-C5=180.00            C3-C9-C7-O10=  0.00           
C11-C9-C7-C5=  0.00           C11-C9-C7-O10=180.00          
           -------------------------------------------------
          |                Final Singlepoint                |
           -------------------------------------------------

          ...................................................
          :                      SETUP                      :
          :.................................................:
          :  # basis functions                  39          :
          :  # atomic orbitals                  39          :
          :  # shells                           23          :
          :  # electrons                        42          :
          :  max. iterations                   250          :
          :  Hamiltonian                  GFN2-xTB          :
          :  restarted?                      false          :
          :  GBSA solvation                  false          :
          :  PC potential                    false          :
          :  electronic temp.          300.0000000     K    :
          :  accuracy                    1.0000000          :
          :  -> integral cutoff          0.2500000E+02      :
          :  -> integral neglect         0.1000000E-07      :
          :  -> SCF convergence          0.1000000E-05 Eh   :
          :  -> wf. convergence          0.1000000E-03 e    :
          :  Broyden damping             0.4000000          :
          :  net charge                         -1          :
          :  unpaired electrons                  0          :
          ...................................................

 iter      E             dE          RMSdq      gap      omega  full diag
   1    -23.1649695 -0.231650E+02  0.104E-04    3.23       0.0  T
   2    -23.1649695 -0.400320E-10  0.686E-05    3.23     376.2  T
   3    -23.1649695 -0.372751E-10  0.358E-05    3.23     722.0  T

   *** convergence criteria satisfied after 3 iterations ***

         #    Occupation            Energy/Eh            Energy/eV
      -------------------------------------------------------------
         1        2.0000           -0.4534242             -12.3383
       ...           ...                  ...                  ...
        15        2.0000           -0.2803741              -7.6294
        16        2.0000           -0.2490677              -6.7775
        17        2.0000           -0.2489192              -6.7734
        18        2.0000           -0.2407938              -6.5523
        19        2.0000           -0.2086520              -5.6777
        20        2.0000           -0.1550403              -4.2189
        21        2.0000           -0.1460525              -3.9743 (HOMO)
        22                         -0.0274626              -0.7473 (LUMO)
        23                         -0.0030613              -0.0833
        24                          0.1084997               2.9524
        25                          0.2756100               7.4997
        26                          0.2873541               7.8193
       ...                                ...                  ...
        39                          0.8729276              23.7536
      -------------------------------------------------------------
                  HL-Gap            0.1185899 Eh            3.2270 eV
             Fermi-level           -0.0867576 Eh           -2.3608 eV

 SCC (total)                   0 d,  0 h,  0 min,  0.004 sec
 SCC setup                      ...        0 min,  0.000 sec (  1.893%)
 Dispersion                     ...        0 min,  0.000 sec (  1.466%)
 classical contributions        ...        0 min,  0.000 sec (  0.330%)
 integral evaluation            ...        0 min,  0.001 sec ( 20.954%)
 iterations                     ...        0 min,  0.001 sec ( 25.974%)
 molecular gradient             ...        0 min,  0.002 sec ( 46.983%)
 printout                       ...        0 min,  0.000 sec (  1.796%)

         :::::::::::::::::::::::::::::::::::::::::::::::::::::
         ::                     SUMMARY                     ::
         :::::::::::::::::::::::::::::::::::::::::::::::::::::
         :: total energy             -22.814618000116 Eh    ::
         :: gradient norm              0.000426516629 Eh/a0 ::
         :: HOMO-LUMO gap              3.226996150200 eV    ::
         ::.................................................::
         :: SCC energy               -23.164946308366 Eh    ::
         :: -> isotropic ES            0.151477673526 Eh    ::
         :: -> anisotropic ES          0.016897442270 Eh    ::
         :: -> anisotropic XC          0.007274105701 Eh    ::
         :: -> dispersion             -0.012701773434 Eh    ::
         :: repulsion energy           0.350328308249 Eh    ::
         :: add. restraining           0.000000000000 Eh    ::
         :: total charge              -1.000000000000 e     ::
         :::::::::::::::::::::::::::::::::::::::::::::::::::::

           ------------------------------------------------- 
          |                Numerical Hessian                |
           ------------------------------------------------- 
step length          :   0.00500
SCC accuracy         :   0.30000
Hessian scale factor :   1.00000
frozen atoms in %    :   0.00000    0
RMS gradient         :   0.00043
estimated CPU  time      0.02 min
estimated wall time      0.01 min

writing file <hessian>.

 projected vibrational frequencies (cm⁻¹)
eigval :       -0.00    -0.00    -0.00     0.00     0.00     0.00
eigval :       78.63   146.86   253.22   282.43   399.79   432.10
eigval :      503.98   523.81   561.48   670.68   744.12   768.92
eigval :      811.26   847.30   881.70   902.09   983.91  1036.38
eigval :     1083.93  1121.51  1176.26  1198.09  1242.40  1321.32
eigval :     1374.46  1387.34  1482.95  1498.14  1499.21  1529.21
eigval :     1560.12  1619.39  2920.75  2939.39  2946.11  2951.84
eigval :     3000.00  3011.51  3014.02
           -------------------------------------------------
          |                Property Printout                |
           -------------------------------------------------

    * Orbital Energies and Occupations

         #    Occupation            Energy/Eh            Energy/eV
      -------------------------------------------------------------
         1        2.0000           -0.4534242             -12.3383
       ...           ...                  ...                  ...
         9        2.0000           -0.3279899              -8.9251
        10        2.0000           -0.3246387              -8.8339
        11        2.0000           -0.3163608              -8.6086
        12        2.0000           -0.2927450              -7.9660
        13        2.0000           -0.2864896              -7.7958
        14        2.0000           -0.2859412              -7.7809
        15        2.0000           -0.2803742              -7.6294
        16        2.0000           -0.2490679              -6.7775
        17        2.0000           -0.2489193              -6.7734
        18        2.0000           -0.2407939              -6.5523
        19        2.0000           -0.2086522              -5.6777
        20        2.0000           -0.1550405              -4.2189
        21        2.0000           -0.1460527              -3.9743 (HOMO)
        22                         -0.0274627              -0.7473 (LUMO)
        23                         -0.0030615              -0.0833
        24                          0.1084995               2.9524
        25                          0.2756100               7.4997
        26                          0.2873540               7.8193
        27                          0.3226483               8.7797
        28                          0.3269483               8.8967
        29                          0.3405797               9.2676
        30                          0.3684252              10.0254
        31                          0.3717275              10.1152
        32                          0.3992515              10.8642
       ...                                ...                  ...
        39                          0.8729275              23.7536
      -------------------------------------------------------------
                  HL-Gap            0.1185900 Eh            3.2270 eV
             Fermi-level           -0.0867577 Eh           -2.3608 eV

     #   Z          covCN         q      C6AA      α(0)
     1   6 C        2.914    -0.088    30.209     9.013
     2   6 C        2.913    -0.052    29.299     8.876
     3   6 C        3.755    -0.080    22.082     6.700
     4   1 H        0.925    -0.037     3.781     3.041
     5   6 C        2.916    -0.102    30.563     9.066
     6   1 H        0.925    -0.040     3.864     3.074
     7   6 C        2.832     0.176    24.209     8.063
     8   1 H        0.925    -0.023     3.486     2.920
     9   6 C        2.964    -0.063    29.554     8.917
    10   8 O        0.857    -0.615    26.492     6.901
    11   6 C        2.917    -0.057    29.405     8.892
    12   1 H        0.925    -0.044     3.945     3.106
    13   1 H        0.925     0.041     2.431     2.438
    14   1 H        0.924    -0.009     3.217     2.805
    15   1 H        0.924    -0.009     3.217     2.805

 Mol. C6AA /au·bohr⁶  :       3010.823971
 Mol. C8AA /au·bohr⁸  :      70795.735108
 Mol. α(0) /au        :         86.615872


Wiberg/Mayer (AO) data.
largest (>0.10) Wiberg bond orders for each atom

 ---------------------------------------------------------------------------
     #   Z sym  total        # sym  WBO       # sym  WBO       # sym  WBO
 ---------------------------------------------------------------------------
     1   6 C    3.967 --     2 C    1.393    11 C    1.384    12 H    0.971
     2   6 C    3.986 --     5 C    1.505     1 C    1.393     6 H    0.969
     3   6 C    3.994 --     9 C    1.015    13 H    0.982    15 H    0.980
                            14 H    0.980
     4   1 H    0.999 --    11 C    0.968
     5   6 C    3.975 --     2 C    1.505     7 C    1.217     8 H    0.972
                            10 O    0.106
     6   1 H    0.998 --     2 C    0.969
     7   6 C    3.972 --    10 O    1.461     5 C    1.217     9 C    1.184
     8   1 H    0.999 --     5 C    0.972
     9   6 C    3.972 --    11 C    1.498     7 C    1.184     3 C    1.015
                            10 O    0.103
    10   8 O    1.791 --     7 C    1.461     5 C    0.106     9 C    0.103
    11   6 C    3.985 --     9 C    1.498     1 C    1.384     4 H    0.968
    12   1 H    0.998 --     1 C    0.971
    13   1 H    0.998 --     3 C    0.982
    14   1 H    1.000 --     3 C    0.980
    15   1 H    1.000 --     3 C    0.980
 ---------------------------------------------------------------------------

Topologies differ in total number of bonds
Writing topology from bond orders to xtbtopo.mol

molecular dipole:
                 x           y           z       tot (Debye)
 q only:        6.872       9.123      -3.426
   full:        6.683       8.869      -3.333      29.469
molecular quadrupole (traceless):
                xx          xy          yy          xz          yz          zz
 q only:        1.308    -100.656     -56.584      41.016      48.579      55.277
  q+dip:       -0.399     -94.752     -52.262      37.353      48.027      52.661
   full:        0.341     -95.622     -53.042      38.513      47.406      52.700

           -------------------------------------------------
          |                Geometry Summary                 |
           -------------------------------------------------

      molecular mass/u    :      107.1301415
   center of mass at/Å    :       -3.9504712      -5.4134516       1.8600148
  moments of inertia/u·Å² :        0.1513733E+03   0.2222597E+03   0.3704788E+03
rotational constants/cm⁻¹ :        0.1113646E+00   0.7584656E-01   0.4550228E-01

 * 12 selected distances

     #   Z          #   Z                                           value/Å
     1   6 C        2   6 C                                       1.3880082
     2   6 C        5   6 C                                       1.3733741
     2   6 C        6   1 H                                       1.0892847
     5   6 C        7   6 C                                       1.4289536 (max)
     5   6 C        8   1 H                                       1.0855589
     1   6 C       11   6 C                                       1.3901685
     4   1 H       11   6 C                                       1.0896312
     9   6 C       11   6 C                                       1.3751491
     1   6 C       12   1 H                                       1.0849844 (min)
     3   6 C       13   1 H                                       1.0891377
     3   6 C       14   1 H                                       1.0941242
     3   6 C       15   1 H                                       1.0941242

 * 2 distinct bonds (by element types)

   Z      Z             #   av. dist./Å        max./Å        min./Å
   1 H    6 C           7     1.0895493     1.0941242     1.0849844
   6 C    6 C           5     1.3911307     1.4289536     1.3733741

           -------------------------------------------------
          |               Frequency Printout                |
           -------------------------------------------------
 projected vibrational frequencies (cm⁻¹)
eigval :       -0.00    -0.00    -0.00     0.00     0.00     0.00
eigval :       78.63   146.86   253.22   282.43   399.79   432.10
eigval :      503.98   523.81   561.48   670.68   744.12   768.92
eigval :      811.26   847.30   881.70   902.09   983.91  1036.38
eigval :     1083.93  1121.51  1176.26  1198.09  1242.40  1321.32
eigval :     1374.46  1387.34  1482.95  1498.14  1499.21  1529.21
eigval :     1560.12  1619.39  2920.75  2939.39  2946.11  2951.84
eigval :     3000.00  3011.51  3014.02
 reduced masses (amu)
   1: 11.21   2: 10.60   3: 11.57   4: 11.83   5: 10.86   6: 12.86   7:  1.29   8: 10.71
   9: 10.19  10: 10.07  11:  9.30  12: 11.76  13: 10.04  14: 11.98  15: 11.70  16: 10.59
  17:  3.45  18: 10.63  19:  4.53  20: 11.63  21:  3.48  22:  2.72  23:  4.93  24:  4.26
  25:  7.15  26:  7.01  27:  2.06  28:  5.55  29:  7.77  30:  7.10  31:  4.97  32:  6.70
  33: 10.16  34:  1.62  35:  2.49  36: 10.71  37: 11.89  38: 11.72  39:  1.93  40:  1.57
  41:  1.75  42:  1.68  43:  1.83  44:  1.69  45:  1.85
 IR intensities (km·mol⁻¹)
   1:  2.72   2:  1.78   3:  7.79   4:  7.81   5:  3.36   6:  9.52   7:  0.01   8:  6.75
   9:  1.18  10:  7.36  11:  0.02  12:  5.02  13:  0.23  14:  4.60  15:  0.77  16: 13.36
  17: 16.72  18:  2.50  19:  8.66  20:  3.94  21:  0.59  22:  0.04  23:  7.89  24:  2.05
  25:  0.77  26:  9.71  27:  1.91  28: 25.38  29:  8.60  30: 17.32  31: 30.44  32: 30.69
  33: 44.18  34:  1.48  35: 17.06  36: 30.14  37:272.51  38:386.45  39:114.01  40: 12.47
  41:292.65  42:127.46  43:295.36  44: 29.23  45:108.63
 Raman intensities (Ä⁴*amu⁻¹)
   1:  0.00   2:  0.00   3:  0.00   4:  0.00   5:  0.00   6:  0.00   7:  0.00   8:  0.00
   9:  0.00  10:  0.00  11:  0.00  12:  0.00  13:  0.00  14:  0.00  15:  0.00  16:  0.00
  17:  0.00  18:  0.00  19:  0.00  20:  0.00  21:  0.00  22:  0.00  23:  0.00  24:  0.00
  25:  0.00  26:  0.00  27:  0.00  28:  0.00  29:  0.00  30:  0.00  31:  0.00  32:  0.00
  33:  0.00  34:  0.00  35:  0.00  36:  0.00  37:  0.00  38:  0.00  39:  0.00  40:  0.00
  41:  0.00  42:  0.00  43:  0.00  44:  0.00  45:  0.00
 output can be read by thermo (or use thermo option).
 writing <g98.out> molden fake output.
 recommended (thermochemical) frequency scaling factor: 1.0
           -------------------------------------------------
          |             Thermodynamic Functions             |
           -------------------------------------------------

Refinement of some symmetry elements was terminated before convergence was reached.
Some symmetry elements may remain unidentified.
Molecule has the following symmetry elements: (sigma) 
It seems to be the Cs point group
cs  symmetry found (for desy threshold:  0.10E+00) used in thermo

          ...................................................
          :                      SETUP                      :
          :.................................................:
          :  # frequencies                          39      :
          :  # imaginary freq.                       0      :
          :  linear?                             false      :
          :  only rotor calc.                    false      :
          :  symmetry                               cs      :
          :  rotational number                       1      :
          :  scaling factor                  1.0000000      :
          :  rotor cutoff                   50.0000000 cm⁻¹ :
          :  imag. cutoff                  -20.0000000 cm⁻¹ :
          :.................................................:

    mode    ω/cm⁻¹     T·S(HO)/kcal·mol⁻¹    T·S(FR)/kcal·mol⁻¹   T·S(vib)
   ------------------------------------------------------------------------
       1     78.63    -1.17014 ( 85.95%)    -0.92216 ( 14.05%)    -1.13530
       2    146.86    -0.80875 ( 98.67%)    -0.73723 (  1.33%)    -0.80780
       3    253.22    -0.50925 ( 99.85%)    -0.57589 (  0.15%)    -0.50935
       4    282.43    -0.45286 ( 99.90%)    -0.54356 (  0.10%)    -0.45295
   ------------------------------------------------------------------------

   temp. (K)  partition function   enthalpy   heat capacity  entropy
                                   cal/mol     cal/K/mol   cal/K/mol   J/K/mol
 298.15  VIB   24.7                 2719.491     20.844     15.378
         ROT  0.270E+06              888.752      2.981     27.832
         INT  0.667E+07             3608.243     23.825     43.210
         TR   0.107E+28             1481.254      4.968     39.905
         TOT                        5089.4972    28.7931    83.1152   347.7538

       T/K    H(0)-H(T)+PV         H(T)/Eh          T*S/Eh         G(T)/Eh
   ------------------------------------------------------------------------
    298.15    0.811063E-02    0.123629E+00    0.394907E-01    0.841381E-01
   ------------------------------------------------------------------------

         :::::::::::::::::::::::::::::::::::::::::::::::::::::
         ::                  THERMODYNAMIC                  ::
         :::::::::::::::::::::::::::::::::::::::::::::::::::::
         :: total free energy         -22.730479926181 Eh   ::
         ::.................................................::
         :: total energy              -22.814618000120 Eh   ::
         :: zero point energy           0.115518138351 Eh   ::
         :: G(RRHO) w/o ZPVE           -0.031380064412 Eh   ::
         :: G(RRHO) contrib.            0.084138073939 Eh   ::
         :::::::::::::::::::::::::::::::::::::::::::::::::::::

optimized geometry written to: xtbopt.xyz


           -------------------------------------------------
          | TOTAL ENERGY              -22.814618000120 Eh   |
          | TOTAL ENTHALPY            -22.690989231647 Eh   |
          | TOTAL FREE ENERGY         -22.730479926181 Eh   |
          | GRADIENT NORM               0.000426568452 Eh/α |
          | HOMO-LUMO GAP               3.226997466660 eV   |
           -------------------------------------------------

------------------------------------------------------------------------
 * finished run on 2025/10/18 at 02:24:22.855     
------------------------------------------------------------------------
 total:
 * wall-time:     0 d,  0 h,  0 min,  0.704 sec
 *  cpu-time:     0 d,  0 h,  0 min,  1.084 sec
 * ratio c/w:     1.540 speedup
 SCF:
 * wall-time:     0 d,  0 h,  0 min,  0.037 sec
 *  cpu-time:     0 d,  0 h,  0 min,  0.053 sec
 * ratio c/w:     1.417 speedup
 ANC optimizer:
 * wall-time:     0 d,  0 h,  0 min,  0.213 sec
 *  cpu-time:     0 d,  0 h,  0 min,  0.251 sec
 * ratio c/w:     1.180 speedup
 analytical hessian:
 * wall-time:     0 d,  0 h,  0 min,  0.345 sec
 *  cpu-time:     0 d,  0 h,  0 min,  0.660 sec
 * ratio c/w:     1.915 speedup

