15
 energy: -22.810575149036 gnorm: 0.067986815921 xtb: 6.7.1 (edcfbbe)
C           -5.25717000000000       -6.50659100000000        2.92514700000000
C           -5.09435300000000       -5.26126200000000        3.50793700000000
C           -2.94598000000000       -6.29266600000000       -0.06802900000000
H           -4.66742600000000       -7.77936500000000        1.30509000000000
C           -4.22294300000000       -4.32969000000000        2.92832400000000
H           -5.63387400000000       -4.99633000000000        4.40978700000000
C           -3.47459100000000       -4.57474600000000        1.75637300000000
H           -4.11300800000000       -3.35661500000000        3.40712500000000
C           -3.66814200000000       -5.86195600000000        1.18820400000000
O           -2.69616100000000       -3.68220700000000        1.27754700000000
C           -4.54657200000000       -6.80559800000000        1.76954400000000
H           -5.92758100000000       -7.23638500000000        3.36261700000000
H           -2.28091200000000       -5.52569900000000       -0.47428200000000
H           -2.33543600000000       -7.17755800000000        0.14183700000000
H           -3.67528100000000       -6.53956900000000       -0.84713100000000
15
 energy: -22.813756485540 gnorm: 0.027648538300 xtb: 6.7.1 (edcfbbe)
C           -5.25280488712254       -6.49929314588860        2.92394133897035
C           -5.08654296444554       -5.25101359572517        3.50396768056283
C           -2.95036041273996       -6.29909551835676       -0.06624190774130
H           -4.66303692905274       -7.77121405872929        1.30440178752340
C           -4.22891285808615       -4.33027952259960        2.93603121058852
H           -5.62869624904522       -4.98898543431135        4.40750967519777
C           -3.47810158260780       -4.58607816350564        1.75381957391531
H           -4.11441088886357       -3.35809300178624        3.40807158303703
C           -3.67772370894713       -5.88278955051774        1.18774581969825
O           -2.69843361354318       -3.71548213392212        1.25915994669825
C           -4.54287298402303       -6.79736843189111        1.76984043213523
H           -5.92473013804470       -7.23097265998156        3.36224707876976
H           -2.30653644708343       -5.48913739322345       -0.41597992850090
H           -2.32749997305093       -7.18016944068801        0.11910560739429
H           -3.65876636334407       -6.54626494887336       -0.86352989824879
15
 energy: -22.814502602363 gnorm: 0.006524737931 xtb: 6.7.1 (edcfbbe)
C           -5.25790786001949       -6.49957082228737        2.93067593396739
C           -5.08155536259343       -5.24562998628340        3.50068353699424
C           -2.94790047974504       -6.29208070655586       -0.06504915125309
H           -4.67472453537796       -7.77928090837504        1.31503149156774
C           -4.22964679355197       -4.33223099296207        2.93576633922055
H           -5.62568696707835       -4.98451619802968        4.40631561028153
C           -3.47915116653620       -4.59937940603660        1.74666051827263
H           -4.10521631371732       -3.35721777065385        3.39617919114412
C           -3.68933531765303       -5.90651215758177        1.18817381731179
O           -2.69663531779925       -3.74983222894698        1.23456479372080
C           -4.54939306197270       -6.80142204834126        1.77605891221582
H           -5.93172956422578       -7.22738260110425        3.37404617234292
H           -2.32160576696062       -5.45010156354377       -0.37038202686879
H           -2.31056088376249       -7.16667139182005        0.10072797727601
H           -3.63838060900637       -6.53440821747804       -0.87936311619366
15
 energy: -22.814594866963 gnorm: 0.003899939422 xtb: 6.7.1 (edcfbbe)
C           -5.26151651309670       -6.50120848339057        2.93450843918122
C           -5.08066798477078       -5.24539937900329        3.49963001424355
C           -2.94591500598941       -6.28757894300191       -0.06483502098202
H           -4.68378972966393       -7.78780222826034        1.32181592112851
C           -4.22785667271807       -4.33259758314469        2.93310461050887
H           -5.62512631650133       -4.98388803497928        4.40596117653724
C           -3.47898337195838       -4.60380262519479        1.74358048809906
H           -4.09946046345335       -3.35596222395525        3.38919054088605
C           -3.69297786635684       -5.91439138769700        1.18802603524413
O           -2.69524767995290       -3.76037633575678        1.22588289270896
C           -4.55428147761447       -6.80725851553767        1.77891648525838
H           -5.93596944260410       -7.22535339413333        3.38109950178378
H           -2.32656102130635       -5.43774725555306       -0.35569876662245
H           -2.30123696057577       -7.15775336042238        0.09478821304888
H           -3.62983949343762       -6.52511724996964       -0.88588053102415
15
 energy: -22.814615624050 gnorm: 0.001744754420 xtb: 6.7.1 (edcfbbe)
C           -5.26298575664592       -6.50172721532939        2.93616441308379
C           -5.08024564243077       -5.24561225390259        3.49892053651251
C           -2.94482718020276       -6.28519839886174       -0.06477307130199
H           -4.68927125169116       -7.79332789102613        1.32567746584023
C           -4.22637094605948       -4.33285977945883        2.93092260298775
H           -5.62448623930112       -4.98332268998459        4.40545859330008
C           -3.47937198138431       -4.60641274025949        1.74242265404710
H           -4.09642711512715       -3.35556468652558        3.38533759596886
C           -3.69474280162158       -5.91843964733438        1.18780552117310
O           -2.69491097235299       -3.76542021955016        1.22217316244087
C           -4.55691184673704       -6.81139858107790        1.77980947752515
H           -5.93780322770717       -7.22318014313009        3.38498588705009
H           -2.32965086247695       -5.43160474411946       -0.34755016467417
H           -2.29614363232857       -7.15252922489277        0.09189921526189
H           -3.62528054393302       -6.51963878454689       -0.88916388921526
15
 energy: -22.814617999752 gnorm: 0.000426038335 xtb: 6.7.1 (edcfbbe)
C           -5.26290004612665       -6.50137804472222        2.93627346740864
C           -5.08014178012310       -5.24567248148102        3.49874074050367
C           -2.94447705747791       -6.28468136770964       -0.06491402383676
H           -4.69078528808631       -7.79481978082603        1.32676665203496
C           -4.22582746315259       -4.33302290308742        2.93008105234116
H           -5.62395838462431       -4.98265212430693        4.40517595954822
C           -3.48001151100931       -4.60759162210893        1.74252950090538
H           -4.09599017342443       -3.35578660382150        3.38460201550814
C           -3.69528485017122       -5.91978400150208        1.18767283256538
O           -2.69511474056046       -3.76701260665165        1.22142194415245
C           -4.55740589185005       -6.81275766379622        1.77960203428222
H           -5.93794986788290       -7.22199694299589        3.38594792166976
H           -2.33073346429214       -5.42956687228204       -0.34476872592722
H           -2.29488636565971       -7.15118803241476        0.09098864832736
H           -3.62396311555890       -6.51832595229366       -0.89003001948334
