 Entering Gaussian System
 *********************************************
 Gaussian 98:
 frequency output generated by the xtb code
 *********************************************
                         Standard orientation:
 --------------------------------------------------------------------
  Center     Atomic     Atomic              Coordinates (Angstroms)
  Number     Number      Type              X           Y           Z
 --------------------------------------------------------------------
    1          6             0       -2.056264   -2.873674    1.611816
    2          6             0       -2.538841   -2.207225    0.423893
    3          6             0       -3.708435   -2.544571   -0.175302
    4          6             0       -4.516332   -3.576843    0.346002
    5          6             0       -4.084979   -4.253849    1.506018
    6          6             0       -2.916597   -3.922086    2.110670
    7          8             0       -6.395860   -4.830307    0.212824
    8          8             0       -0.981374   -2.569145    2.162135
    9          1             0       -1.922554   -1.414061    0.020806
   10          1             0       -4.053563   -2.033768   -1.064442
   11          7             0       -5.703634   -3.917760   -0.266442
   12          1             0       -4.716255   -5.041968    1.894550
   13          8             0       -6.059739   -3.306373   -1.286974
   14          1             0       -2.589927   -4.443822    3.000880
 --------------------------------------------------------------------
     1 basis functions        1 primitive gaussians
     1 alpha electrons        1 beta electrons
 
 Harmonic frequencies (cm**-1), IR intensities (km*mol⁻¹),
 Raman scattering activities (A**4/amu), Raman depolarization ratios,
 reduced masses (AMU), force constants (mDyne/A) and normal coordinates:
                      1                      2                      3
                        a                      a                      a 
 Frequencies --    87.0731                94.8591               213.3551
 Red. masses --    14.0519                13.7604                14.0578
 Frc consts  --     0.0000                 0.0000                 0.0000
 IR Inten    --     0.0048                19.2987                 8.9156
 Raman Activ --     0.0000                 0.0000                 0.0000
 Depolar     --     0.0000                 0.0000                 0.0000
 Atom AN      X      Y      Z        X      Y      Z        X      Y      Z
   1   6     0.00  -0.00  -0.00     0.02  -0.03  -0.03    -0.01  -0.05   0.05
   2   6     0.13  -0.17  -0.15    -0.12   0.16   0.14     0.13   0.07   0.03
   3   6     0.10  -0.14  -0.12    -0.16   0.23   0.19     0.14   0.21  -0.13
   4   6    -0.00   0.00   0.00    -0.12   0.17   0.14     0.05   0.23  -0.23
   5   6    -0.10   0.14   0.12    -0.16   0.22   0.19    -0.06   0.15  -0.23
   6   6    -0.13   0.18   0.15    -0.11   0.15   0.13    -0.12  -0.00  -0.10
   7   8     0.29  -0.40  -0.34     0.14  -0.19  -0.16     0.35  -0.05   0.36
   8   8     0.00  -0.01  -0.00     0.29  -0.41  -0.35    -0.05  -0.25   0.24
   9   1     0.07  -0.10  -0.08    -0.04   0.05   0.04     0.07   0.01   0.04
  10   1     0.05  -0.07  -0.06    -0.06   0.08   0.07     0.08   0.09  -0.04
  11   7     0.00  -0.00  -0.00     0.04  -0.05  -0.05     0.00   0.02  -0.02
  12   1    -0.06   0.08   0.07    -0.06   0.08   0.07    -0.05   0.05  -0.10
  13   8    -0.29   0.39   0.33     0.15  -0.20  -0.17    -0.42  -0.28  -0.04
  14   1    -0.07   0.10   0.08    -0.03   0.05   0.04    -0.07  -0.03  -0.03
                      4                      5                      6
                        a                      a                      a 
 Frequencies --   252.6543               352.6890               372.5733
 Red. masses --    11.8034                14.3784                 9.5288
 Frc consts  --     0.0000                 0.0000                 0.0000
 IR Inten    --     0.4561                 0.3671                 0.0431
 Raman Activ --     0.0000                 0.0000                 0.0000
 Depolar     --     0.0000                 0.0000                 0.0000
 Atom AN      X      Y      Z        X      Y      Z        X      Y      Z
   1   6    -0.10   0.13   0.11     0.32   0.09   0.17    -0.00   0.00  -0.00
   2   6    -0.18   0.25   0.22     0.12  -0.05   0.16     0.21  -0.29  -0.25
   3   6     0.10  -0.13  -0.11     0.08  -0.06   0.14    -0.21   0.29   0.25
   4   6     0.27  -0.37  -0.31    -0.14  -0.04  -0.07     0.00  -0.00   0.00
   5   6     0.10  -0.13  -0.11     0.12   0.12  -0.04     0.21  -0.29  -0.25
   6   6    -0.18   0.25   0.22     0.16   0.13  -0.02    -0.21   0.29   0.25
   7   8    -0.09   0.13   0.11    -0.36  -0.07  -0.22    -0.02   0.02   0.02
   8   8     0.15  -0.21  -0.18     0.39   0.11   0.20    -0.00  -0.00   0.00
   9   1    -0.09   0.13   0.11    -0.00  -0.00   0.01     0.09  -0.13  -0.11
  10   1     0.03  -0.05  -0.04     0.07   0.02   0.04    -0.13   0.18   0.16
  11   7     0.07  -0.10  -0.09    -0.26  -0.08  -0.14     0.00  -0.00   0.00
  12   1     0.03  -0.05  -0.04     0.07   0.02   0.03     0.13  -0.18  -0.16
  13   8    -0.09   0.13   0.11    -0.38  -0.14  -0.16     0.02  -0.02  -0.02
  14   1    -0.09   0.13   0.11     0.00   0.01  -0.00    -0.09   0.13   0.11
                      7                      8                      9
                        a                      a                      a 
 Frequencies --   431.3681               442.0650               545.9571
 Red. masses --    13.1261                 8.9065                13.1917
 Frc consts  --     0.0000                 0.0000                 0.0000
 IR Inten    --     9.9304                 0.3258                 0.1278
 Raman Activ --     0.0000                 0.0000                 0.0000
 Depolar     --     0.0000                 0.0000                 0.0000
 Atom AN      X      Y      Z        X      Y      Z        X      Y      Z
   1   6     0.05   0.24  -0.24     0.22  -0.30  -0.26     0.02   0.10  -0.10
   2   6     0.07   0.27  -0.26     0.05  -0.07  -0.06     0.02   0.06  -0.05
   3   6    -0.04  -0.03   0.01    -0.14   0.19   0.16    -0.03  -0.26   0.27
   4   6    -0.01  -0.07   0.07     0.23  -0.31  -0.27    -0.04  -0.18   0.18
   5   6     0.03  -0.01   0.04    -0.14   0.19   0.16    -0.09  -0.27   0.25
   6   6     0.05   0.27  -0.27     0.05  -0.07  -0.06     0.00   0.06  -0.06
   7   8    -0.17  -0.09  -0.05    -0.03   0.05   0.04     0.40   0.23   0.07
   8   8    -0.10  -0.45   0.44    -0.10   0.14   0.12    -0.00  -0.02   0.02
   9   1    -0.05   0.09  -0.15    -0.10   0.14   0.12    -0.05   0.03  -0.08
  10   1    -0.06  -0.05  -0.00    -0.16   0.22   0.19    -0.07  -0.12   0.07
  11   7    -0.02  -0.10   0.10     0.08  -0.10  -0.09     0.05   0.24  -0.24
  12   1     0.05  -0.01   0.06    -0.16   0.22   0.19     0.03  -0.09   0.13
  13   8     0.15   0.01   0.12    -0.03   0.05   0.04    -0.34   0.01  -0.31
  14   1     0.10   0.13  -0.08    -0.10   0.14   0.12     0.07   0.07  -0.01
                     10                     11                     12
                        a                      a                      a 
 Frequencies --   610.8739               622.4360               663.3479
 Red. masses --    11.8389                13.3469                11.1132
 Frc consts  --     0.0000                 0.0000                 0.0000
 IR Inten    --     0.1973                35.0803                 7.6921
 Raman Activ --     0.0000                 0.0000                 0.0000
 Depolar     --     0.0000                 0.0000                 0.0000
 Atom AN      X      Y      Z        X      Y      Z        X      Y      Z
   1   6    -0.01  -0.04   0.04     0.20   0.06   0.10     0.23  -0.32  -0.27
   2   6    -0.38  -0.21  -0.07    -0.21  -0.23   0.09    -0.10   0.13   0.11
   3   6    -0.34   0.01  -0.30    -0.21  -0.17   0.02     0.14  -0.20  -0.17
   4   6     0.00   0.01  -0.01    -0.25  -0.07  -0.13    -0.08   0.12   0.10
   5   6     0.39   0.22   0.07    -0.16   0.06  -0.21     0.14  -0.20  -0.17
   6   6     0.33  -0.01   0.29    -0.13   0.13  -0.26    -0.10   0.13   0.12
   7   8     0.12   0.10  -0.01     0.24  -0.11   0.33     0.08  -0.11  -0.10
   8   8    -0.04  -0.20   0.20     0.27   0.08   0.14    -0.06   0.08   0.06
   9   1    -0.11  -0.06  -0.03    -0.13  -0.05  -0.05    -0.13   0.18   0.15
  10   1    -0.10  -0.00  -0.08    -0.01  -0.02   0.01    -0.03   0.04   0.04
  11   7     0.02   0.08  -0.08    -0.10  -0.03  -0.05    -0.25   0.34   0.29
  12   1     0.11   0.06   0.03    -0.01   0.01  -0.02    -0.03   0.04   0.04
  13   8    -0.09   0.04  -0.12     0.32   0.27  -0.04     0.08  -0.11  -0.09
  14   1     0.10   0.00   0.08    -0.12  -0.02  -0.08    -0.13   0.18   0.15
                     13                     14                     15
                        a                      a                      a 
 Frequencies --   716.0230               786.7553               820.0074
 Red. masses --    13.1971                13.6700                 6.4845
 Frc consts  --     0.0000                 0.0000                 0.0000
 IR Inten    --    57.3342                 0.0096                38.5197
 Raman Activ --     0.0000                 0.0000                 0.0000
 Depolar     --     0.0000                 0.0000                 0.0000
 Atom AN      X      Y      Z        X      Y      Z        X      Y      Z
   1   6    -0.17   0.24   0.20     0.17   0.05   0.09    -0.22   0.30   0.25
   2   6     0.06  -0.09  -0.08    -0.19  -0.10  -0.04     0.14  -0.20  -0.17
   3   6    -0.06   0.08   0.07    -0.18   0.03  -0.19     0.07  -0.10  -0.09
   4   6     0.23  -0.32  -0.27     0.14   0.04   0.07    -0.11   0.15   0.13
   5   6    -0.06   0.08   0.06    -0.22  -0.15  -0.02     0.07  -0.09  -0.08
   6   6     0.06  -0.09  -0.08    -0.17  -0.00  -0.14     0.14  -0.19  -0.16
   7   8     0.10  -0.14  -0.11     0.02   0.29  -0.33    -0.01   0.01   0.01
   8   8     0.05  -0.06  -0.05     0.27   0.08   0.14     0.06  -0.09  -0.07
   9   1     0.03  -0.04  -0.04    -0.09  -0.02  -0.06    -0.22   0.30   0.26
  10   1    -0.02   0.03   0.02    -0.10  -0.03  -0.05    -0.12   0.17   0.15
  11   7    -0.33   0.46   0.39     0.33   0.10   0.17     0.04  -0.06  -0.05
  12   1    -0.02   0.03   0.02    -0.10  -0.03  -0.05    -0.11   0.16   0.13
  13   8     0.10  -0.13  -0.12    -0.11  -0.32   0.28    -0.01   0.01   0.01
  14   1     0.03  -0.04  -0.04    -0.10  -0.03  -0.04    -0.21   0.29   0.24
                     16                     17                     18
                        a                      a                      a 
 Frequencies --   820.1317               855.0371               919.7254
 Red. masses --     3.3713                12.2226                 2.6838
 Frc consts  --     0.0000                 0.0000                 0.0000
 IR Inten    --     0.0326                 7.8538                 1.2400
 Raman Activ --     0.0000                 0.0000                 0.0000
 Depolar     --     0.0000                 0.0000                 0.0000
 Atom AN      X      Y      Z        X      Y      Z        X      Y      Z
   1   6    -0.01   0.01   0.01    -0.15  -0.04  -0.08     0.05  -0.07  -0.06
   2   6    -0.10   0.14   0.12    -0.06  -0.29   0.29     0.06  -0.09  -0.08
   3   6    -0.12   0.16   0.14     0.06  -0.22   0.31    -0.11   0.15   0.13
   4   6    -0.00   0.00   0.00    -0.03  -0.01  -0.01     0.01  -0.01  -0.01
   5   6     0.12  -0.16  -0.14     0.17   0.29  -0.19    -0.11   0.15   0.13
   6   6     0.11  -0.15  -0.13     0.07   0.30  -0.29     0.07  -0.09  -0.08
   7   8    -0.01   0.01   0.01     0.05   0.17  -0.16     0.00  -0.00  -0.00
   8   8     0.00  -0.00  -0.00    -0.28  -0.08  -0.15    -0.01   0.01   0.01
   9   1     0.23  -0.32  -0.27    -0.02  -0.08   0.08    -0.17   0.23   0.20
  10   1     0.18  -0.25  -0.22     0.11  -0.00   0.09     0.26  -0.36  -0.31
  11   7     0.00  -0.00  -0.00     0.15   0.04   0.08    -0.02   0.03   0.02
  12   1    -0.19   0.26   0.22     0.12   0.07   0.03     0.26  -0.37  -0.31
  13   8     0.01  -0.01  -0.01    -0.03  -0.17   0.17     0.00  -0.00  -0.00
  14   1    -0.24   0.34   0.29     0.02   0.08  -0.08    -0.17   0.24   0.20
                     19                     20                     21
                        a                      a                      a 
 Frequencies --   922.6555               972.6274              1104.7005
 Red. masses --     3.5040                 8.8459                 4.2687
 Frc consts  --     0.0000                 0.0000                 0.0000
 IR Inten    --     0.1503                 2.8971                 2.3510
 Raman Activ --     0.0000                 0.0000                 0.0000
 Depolar     --     0.0000                 0.0000                 0.0000
 Atom AN      X      Y      Z        X      Y      Z        X      Y      Z
   1   6     0.00  -0.00   0.00     0.02   0.01   0.01    -0.05  -0.24   0.24
   2   6     0.11  -0.15  -0.12     0.07   0.27  -0.25     0.09   0.16  -0.12
   3   6    -0.12   0.17   0.15    -0.03  -0.29   0.32    -0.04   0.07  -0.11
   4   6    -0.00   0.00  -0.00    -0.10  -0.03  -0.05    -0.03  -0.14   0.14
   5   6     0.12  -0.17  -0.14     0.10   0.31  -0.28     0.07   0.10  -0.06
   6   6    -0.11   0.15   0.12    -0.05  -0.26   0.27    -0.02   0.13  -0.17
   7   8    -0.00   0.00  -0.00     0.05   0.09  -0.06     0.02   0.02  -0.01
   8   8    -0.00   0.00  -0.00     0.01   0.00   0.01     0.00   0.02  -0.02
   9   1    -0.19   0.27   0.23    -0.15   0.11  -0.25     0.28  -0.01   0.25
  10   1     0.23  -0.32  -0.27    -0.14  -0.17   0.08    -0.38  -0.24  -0.04
  11   7     0.00   0.00   0.00     0.05   0.01   0.03     0.00  -0.00   0.00
  12   1    -0.23   0.32   0.27    -0.08   0.11  -0.19     0.32  -0.04   0.32
  13   8     0.00  -0.00   0.00     0.02  -0.07   0.10    -0.01   0.01  -0.02
  14   1     0.19  -0.27  -0.23    -0.22  -0.21   0.06    -0.33  -0.18  -0.06
                     22                     23                     24
                        a                      a                      a 
 Frequencies --  1151.3927              1193.2864              1234.8691
 Red. masses --     6.8367                 5.7530                 5.5880
 Frc consts  --     0.0000                 0.0000                 0.0000
 IR Inten    --     0.1300               115.8025                14.1568
 Raman Activ --     0.0000                 0.0000                 0.0000
 Depolar     --     0.0000                 0.0000                 0.0000
 Atom AN      X      Y      Z        X      Y      Z        X      Y      Z
   1   6     0.01   0.00   0.00     0.03   0.01   0.01     0.09   0.41  -0.41
   2   6     0.04   0.10  -0.09    -0.10  -0.09   0.02    -0.03  -0.07   0.06
   3   6     0.02   0.08  -0.07     0.10   0.06   0.02    -0.11  -0.08  -0.00
   4   6    -0.43  -0.12  -0.22     0.32   0.09   0.17    -0.01  -0.05   0.05
   5   6    -0.01  -0.07   0.08     0.09  -0.01   0.08     0.09  -0.02   0.10
   6   6    -0.01  -0.09   0.10    -0.07   0.04  -0.11    -0.01  -0.07   0.07
   7   8     0.16   0.21  -0.10    -0.16  -0.19   0.08     0.01   0.01  -0.00
   8   8    -0.02  -0.00  -0.01    -0.09  -0.02  -0.04    -0.01  -0.05   0.05
   9   1    -0.06   0.04  -0.10    -0.36   0.05  -0.36     0.33  -0.09   0.39
  10   1     0.40   0.30  -0.01     0.20   0.13   0.01     0.13   0.09   0.00
  11   7    -0.06  -0.02  -0.03     0.13   0.04   0.07     0.00   0.00  -0.00
  12   1     0.31  -0.10   0.38     0.16  -0.03   0.17    -0.11   0.02  -0.12
  13   8     0.09  -0.13   0.23    -0.10   0.11  -0.21    -0.01   0.00  -0.01
  14   1    -0.09  -0.09   0.03    -0.43  -0.27  -0.05    -0.42  -0.30   0.00
                     25                     26                     27
                        a                      a                      a 
 Frequencies --  1300.0803              1349.0045              1407.6000
 Red. masses --     7.1775                11.2186                10.4206
 Frc consts  --     0.0000                 0.0000                 0.0000
 IR Inten    --     1.4862               891.5029               842.4295
 Raman Activ --     0.0000                 0.0000                 0.0000
 Depolar     --     0.0000                 0.0000                 0.0000
 Atom AN      X      Y      Z        X      Y      Z        X      Y      Z
   1   6    -0.06  -0.28   0.27    -0.00   0.00  -0.00     0.15   0.04   0.07
   2   6    -0.07   0.17  -0.25    -0.11   0.07  -0.17     0.16  -0.04   0.18
   3   6    -0.05  -0.00  -0.04    -0.08  -0.13   0.08     0.11   0.17  -0.11
   4   6    -0.07  -0.31   0.31    -0.13  -0.04  -0.07    -0.48  -0.14  -0.25
   5   6     0.06   0.03   0.02    -0.03   0.10  -0.14     0.05  -0.13   0.19
   6   6     0.16   0.23  -0.14    -0.15  -0.14   0.04     0.20   0.14   0.00
   7   8     0.04   0.02   0.00    -0.21  -0.22   0.08    -0.07  -0.07   0.02
   8   8     0.00   0.02  -0.02     0.09   0.03   0.05    -0.20  -0.06  -0.10
   9   1     0.09   0.02   0.05     0.18  -0.03   0.18    -0.11   0.03  -0.13
  10   1     0.37   0.27  -0.00     0.18   0.10   0.03    -0.23  -0.13  -0.04
  11   7     0.01   0.02  -0.02     0.55   0.16   0.28     0.35   0.10   0.18
  12   1    -0.29   0.08  -0.34     0.15  -0.01   0.14    -0.20   0.01  -0.18
  13   8    -0.03   0.01  -0.03    -0.13   0.12  -0.25    -0.04   0.04  -0.08
  14   1    -0.09  -0.03  -0.04     0.21   0.14   0.02    -0.14  -0.10  -0.00
                     28                     29                     30
                        a                      a                      a 
 Frequencies --  1477.2195              1518.3345              1529.3831
 Red. masses --    11.7469                12.1690                13.7544
 Frc consts  --     0.0000                 0.0000                 0.0000
 IR Inten    --    10.7893               172.8330               213.2917
 Raman Activ --     0.0000                 0.0000                 0.0000
 Depolar     --     0.0000                 0.0000                 0.0000
 Atom AN      X      Y      Z        X      Y      Z        X      Y      Z
   1   6     0.03   0.15  -0.15    -0.02  -0.10   0.09    -0.00  -0.01   0.01
   2   6     0.18  -0.07   0.24     0.32   0.12   0.13    -0.21  -0.03  -0.15
   3   6     0.06   0.23  -0.22    -0.41  -0.22  -0.09     0.19   0.03   0.13
   4   6    -0.10  -0.44   0.44     0.04   0.18  -0.17     0.02   0.10  -0.10
   5   6     0.04   0.22  -0.23     0.36  -0.00   0.31    -0.20  -0.08  -0.07
   6   6    -0.24  -0.19   0.02    -0.31  -0.06  -0.19     0.23   0.10   0.08
   7   8     0.11   0.12  -0.05     0.08   0.12  -0.07     0.18   0.25  -0.14
   8   8    -0.00   0.00  -0.00     0.01   0.03  -0.03    -0.00  -0.01   0.01
   9   1    -0.10   0.02  -0.11     0.01   0.05  -0.05     0.02  -0.03   0.06
  10   1    -0.04   0.02  -0.06     0.06   0.06  -0.02     0.00  -0.03   0.04
  11   7    -0.04  -0.16   0.16    -0.05  -0.24   0.23    -0.11  -0.50   0.49
  12   1     0.05   0.05  -0.01    -0.04   0.04  -0.07    -0.02  -0.04   0.03
  13   8    -0.06   0.07  -0.14    -0.04   0.09  -0.13    -0.09   0.17  -0.28
  14   1     0.12   0.08   0.01     0.01   0.05  -0.05    -0.04  -0.05   0.02
                     31                     32                     33
                        a                      a                      a 
 Frequencies --  1592.4053              1623.2887              3049.5451
 Red. masses --    12.6056                11.8918                 1.7715
 Frc consts  --     0.0000                 0.0000                 0.0000
 IR Inten    --    93.5831               521.6788                25.2970
 Raman Activ --     0.0000                 0.0000                 0.0000
 Depolar     --     0.0000                 0.0000                 0.0000
 Atom AN      X      Y      Z        X      Y      Z        X      Y      Z
   1   6     0.52   0.15   0.27    -0.44  -0.12  -0.22    -0.00  -0.01   0.01
   2   6     0.18   0.07   0.07     0.35   0.05   0.24    -0.09  -0.11   0.05
   3   6    -0.31  -0.15  -0.09    -0.31  -0.13  -0.12    -0.03   0.04  -0.07
   4   6     0.16   0.05   0.08     0.04   0.01   0.02     0.00   0.01  -0.01
   5   6    -0.28  -0.02  -0.22    -0.29  -0.05  -0.20     0.06   0.07  -0.03
   6   6     0.17   0.03   0.11     0.37   0.16   0.13     0.05  -0.08   0.14
   7   8    -0.00  -0.00   0.00    -0.03  -0.03   0.01    -0.00  -0.00   0.00
   8   8    -0.42  -0.12  -0.21     0.22   0.06   0.11     0.00   0.00  -0.00
   9   1     0.06   0.03   0.02    -0.06   0.04  -0.10     0.32   0.41  -0.21
  10   1     0.07   0.07  -0.02     0.03   0.05  -0.03     0.11  -0.16   0.28
  11   7    -0.02  -0.01  -0.01     0.10   0.03   0.05     0.00   0.00  -0.00
  12   1     0.05  -0.04   0.08     0.01  -0.04   0.06    -0.21  -0.26   0.13
  13   8    -0.00   0.00  -0.00    -0.02   0.02  -0.04    -0.00  -0.00   0.00
  14   1     0.05   0.01   0.04    -0.09  -0.08   0.03    -0.19   0.29  -0.50
                     34                     35                     36
                        a                      a                      a 
 Frequencies --  3051.8395              3064.4621              3067.9290
 Red. masses --     1.7571                 1.8719                 1.8752
 Frc consts  --     0.0000                 0.0000                 0.0000
 IR Inten    --    26.3605               137.6264                 6.7833
 Raman Activ --     0.0000                 0.0000                 0.0000
 Depolar     --     0.0000                 0.0000                 0.0000
 Atom AN      X      Y      Z        X      Y      Z        X      Y      Z
   1   6     0.01   0.00   0.01    -0.00  -0.00   0.00    -0.01  -0.00  -0.01
   2   6     0.09   0.12  -0.06     0.06   0.08  -0.04    -0.07  -0.08   0.04
   3   6     0.03  -0.05   0.09    -0.05   0.08  -0.14     0.05  -0.08   0.14
   4   6     0.00   0.00   0.00     0.00   0.00  -0.00     0.01   0.00   0.00
   5   6     0.05   0.07  -0.03     0.10   0.12  -0.06     0.09   0.12  -0.06
   6   6     0.05  -0.07   0.12    -0.03   0.05  -0.09    -0.03   0.05  -0.09
   7   8     0.00  -0.00   0.00    -0.00  -0.00   0.00    -0.00  -0.00   0.00
   8   8    -0.00  -0.00  -0.00     0.00  -0.00   0.00     0.00   0.00   0.00
   9   1    -0.34  -0.43   0.22    -0.20  -0.25   0.13     0.22   0.28  -0.14
  10   1    -0.12   0.19  -0.33     0.18  -0.27   0.47    -0.18   0.27  -0.47
  11   7     0.00   0.00   0.00     0.00   0.00  -0.00     0.00   0.00   0.00
  12   1    -0.21  -0.26   0.13    -0.34  -0.43   0.22    -0.32  -0.41   0.20
  13   8     0.00   0.00  -0.00    -0.00  -0.00   0.00    -0.00   0.00  -0.00
  14   1    -0.16   0.26  -0.45     0.11  -0.17   0.29     0.11  -0.18   0.30
