      -----------------------------------------------------------      
     |                   =====================                   |     
     |                           x T B                           |     
     |                   =====================                   |     
     |                         S. Grimme                         |     
     |          Mulliken Center for Theoretical Chemistry        |     
     |                    University of Bonn                     |     
      -----------------------------------------------------------      

   * xtb version 6.7.1 (edcfbbe) compiled by 'albert@albert-system' on 2024-07-22

   xtb is free software: you can redistribute it and/or modify it under
   the terms of the GNU Lesser General Public License as published by
   the Free Software Foundation, either version 3 of the License, or
   (at your option) any later version.
   
   xtb is distributed in the hope that it will be useful,
   but WITHOUT ANY WARRANTY; without even the implied warranty of
   MERCHANTABILITY or FITNESS FOR A PARTICULAR PURPOSE.  See the
   GNU Lesser General Public License for more details.
   
   Cite this work as:
   * C. Bannwarth, E. Caldeweyher, S. Ehlert, A. Hansen, P. Pracht,
     J. Seibert, S. Spicher, S. Grimme, WIREs Comput. Mol. Sci., 2020, 11,
     e01493. DOI: 10.1002/wcms.1493
   
   for GFN2-xTB:
   * C. Bannwarth, S. Ehlert and S. Grimme., J. Chem. Theory Comput., 2019,
     15, 1652-1671. DOI: 10.1021/acs.jctc.8b01176
   for GFN1-xTB:
   * S. Grimme, C. Bannwarth, P. Shushkov, J. Chem. Theory Comput., 2017,
     13, 1989-2009. DOI: 10.1021/acs.jctc.7b00118
   for GFN0-xTB:
   * P. Pracht, E. Caldeweyher, S. Ehlert, S. Grimme, ChemRxiv, 2019, preprint.
     DOI: 10.26434/chemrxiv.8326202.v1
   for GFN-FF:
   * S. Spicher and S. Grimme, Angew. Chem. Int. Ed., 2020, 59, 15665-15673.
     DOI: 10.1002/anie.202004239
   
   for ALPB and GBSA implicit solvation:
   * S. Ehlert, M. Stahn, S. Spicher, S. Grimme, J. Chem. Theory Comput.,
     2021, 17, 4250-4261. DOI: 10.1021/acs.jctc.1c00471
   
   for ddCOSMO and CPCM-X implicit solvation:
   * M. Stahn, S. Ehlert, S. Grimme, J. Phys. Chem. A,
     2023, XX, XXXX-XXXX. DOI: 10.1021/acs.jpca.3c04382
   
   for DFT-D4:
   * E. Caldeweyher, C. Bannwarth and S. Grimme, J. Chem. Phys., 2017,
     147, 034112. DOI: 10.1063/1.4993215
   * E. Caldeweyher, S. Ehlert, A. Hansen, H. Neugebauer, S. Spicher,
     C. Bannwarth and S. Grimme, J. Chem. Phys., 2019, 150, 154122.
     DOI: 10.1063/1.5090222
   * E. Caldeweyher, J.-M. Mewes, S. Ehlert and S. Grimme, Phys. Chem. Chem. Phys.
     2020, 22, 8499-8512. DOI: 10.1039/D0CP00502A
   
   for sTDA-xTB:
   * S. Grimme and C. Bannwarth, J. Chem. Phys., 2016, 145, 054103.
     DOI: 10.1063/1.4959605
   
   in the mass-spec context:
   * V. Asgeirsson, C. Bauer and S. Grimme, Chem. Sci., 2017, 8, 4879.
     DOI: 10.1039/c7sc00601b
   * J. Koopman and S. Grimme, ACS Omega 2019, 4, 12, 15120-15133.
     DOI: 10.1021/acsomega.9b02011
   
   for metadynamics refer to:
   * S. Grimme, J. Chem. Theory Comput., 2019, 155, 2847-2862
     DOI: 10.1021/acs.jctc.9b00143
   
   for SPH calculations refer to:
   * S. Spicher and S. Grimme, J. Chem. Theory Comput., 2021, 17, 1701-1714
     DOI: 10.1021/acs.jctc.0c01306
   
   for ONIOM refer to:
   * C. Plett, A. Katbashev, S. Ehlert, S. Grimme, M. Bursch,
     Phys. Chem. Chem. Phys., 2023, 25, 17860-17868. DOI: 10.1039/D3CP02178E
   
   for DIPRO refer to:
   * J. Kohn, N. Gildemeister, S. Grimme, D. Fazzi, A. Hansen,
     J. Chem. Phys., 2023, just accepted.
   
   for PTB refer to:
   * S. Grimme, M. Mueller, A. Hansen, J. Chem. Phys., 2023, 158, 124111.
     DOI: 10.1063/5.0137838
   
   with help from (in alphabetical order)
   P. Atkinson, C. Bannwarth, F. Bohle, G. Brandenburg, E. Caldeweyher
   M. Checinski, S. Dohm, S. Ehlert, S. Ehrlich, I. Gerasimov, C. Hölzer
   A. Katbashev, J. Kohn, J. Koopman, C. Lavigne, S. Lehtola, F. März, M. Müller,
   F. Musil, H. Neugebauer, J. Pisarek, C. Plett, P. Pracht, F. Pultar,
   J. Seibert, P. Shushkov, S. Spicher, M. Stahn, M. Steiner, T. Strunk,
   J. Stückrath, T. Rose, and J. Unsleber
   
 * started run on 2025/10/18 at 05:14:44.359     
   ID    Z sym.   atoms
    1    6 C      1-6
    2    8 O      7, 8, 13
    3    1 H      9, 10, 12, 14
    4    7 N      11

           -------------------------------------------------
          |                Calculation Setup                |
           -------------------------------------------------

          program call               : xtb xyz.xyz --charge -1 --ohess
          hostname                   : m003
          coordinate file            : xyz.xyz
          omp threads                :                     2


           -------------------------------------------------
          |                 G F N 2 - x T B                 |
           -------------------------------------------------

        Reference                      10.1021/acs.jctc.8b01176
      * Hamiltonian:
        H0-scaling (s, p, d)           1.850000    2.230000    2.230000
        zeta-weighting                 0.500000
      * Dispersion:
        s8                             2.700000
        a1                             0.520000
        a2                             5.000000
        s9                             5.000000
      * Repulsion:
        kExp                           1.500000    1.000000
        rExp                           1.000000
      * Coulomb:
        alpha                          2.000000
        third order                    shell-resolved
        anisotropic                    true
        a3                             3.000000
        a5                             4.000000
        cn-shift                       1.200000
        cn-exp                         4.000000
        max-rad                        5.000000

q/qsh data taken from xtbrestart
CAMM data taken from xtbrestart

          ...................................................
          :                      SETUP                      :
          :.................................................:
          :  # basis functions                  44          :
          :  # atomic orbitals                  44          :
          :  # shells                           24          :
          :  # electrons                        52          :
          :  max. iterations                   250          :
          :  Hamiltonian                  GFN2-xTB          :
          :  restarted?                       true          :
          :  GBSA solvation                  false          :
          :  PC potential                    false          :
          :  electronic temp.          300.0000000     K    :
          :  accuracy                    1.0000000          :
          :  -> integral cutoff          0.2500000E+02      :
          :  -> integral neglect         0.1000000E-07      :
          :  -> SCF convergence          0.1000000E-05 Eh   :
          :  -> wf. convergence          0.1000000E-03 e    :
          :  Broyden damping             0.4000000          :
          :  net charge                         -1          :
          :  unpaired electrons                  0          :
          ...................................................

 iter      E             dE          RMSdq      gap      omega  full diag
   1    -29.9588915 -0.299589E+02  0.376E+00    0.47       0.0  T
   2    -29.0654885  0.893403E+00  0.675E+00    0.04       1.0  T
   3    -30.2144477 -0.114896E+01  0.246E+00    1.18       1.0  T
   4    -30.2679263 -0.534786E-01  0.127E+00    0.93       1.0  T
   5    -30.2827427 -0.148163E-01  0.697E-01    0.77       1.0  T
   6    -30.2830133 -0.270638E-03  0.452E-01    0.65       1.0  T
   7    -30.2869929 -0.397963E-02  0.166E-01    0.70       1.0  T
   8    -30.2871017 -0.108760E-03  0.114E-01    0.68       1.0  T
   9    -30.2873759 -0.274177E-03  0.205E-02    0.69       1.3  T
  10    -30.2873773 -0.148827E-05  0.116E-02    0.69       2.3  T
  11    -30.2873789 -0.155059E-05  0.533E-03    0.69       5.0  T
  12    -30.2873793 -0.408382E-06  0.198E-03    0.69      13.5  T
  13    -30.2873793  0.320806E-08  0.148E-03    0.69      18.0  T
  14    -30.2873793 -0.450148E-07  0.417E-04    0.69      64.1  T
  15    -30.2873794 -0.853554E-09  0.292E-04    0.69      91.5  T

   *** convergence criteria satisfied after 15 iterations ***

         #    Occupation            Energy/Eh            Energy/eV
      -------------------------------------------------------------
         1        2.0000           -0.5416252             -14.7384
       ...           ...                  ...                  ...
        20        2.0000           -0.3079305              -8.3792
        21        2.0000           -0.2737857              -7.4501
        22        2.0000           -0.2666747              -7.2566
        23        2.0000           -0.2631577              -7.1609
        24        2.0000           -0.2488565              -6.7717
        25        2.0000           -0.2394223              -6.5150
        26        2.0000           -0.2274514              -6.1893 (HOMO)
        27        0.0000           -0.2022547              -5.5036 (LUMO)
        28                         -0.1190963              -3.2408
        29                         -0.0873424              -2.3767
        30                          0.0094012               0.2558
        31                          0.1096316               2.9832
       ...                                ...                  ...
        44                          0.7329281              19.9440
      -------------------------------------------------------------
                  HL-Gap            0.0251967 Eh            0.6856 eV
             Fermi-level           -0.2148530 Eh           -5.8464 eV

 SCC (total)                   0 d,  0 h,  0 min,  0.037 sec
 SCC setup                      ...        0 min,  0.000 sec (  0.442%)
 Dispersion                     ...        0 min,  0.000 sec (  0.364%)
 classical contributions        ...        0 min,  0.000 sec (  0.067%)
 integral evaluation            ...        0 min,  0.001 sec (  3.338%)
 iterations                     ...        0 min,  0.033 sec ( 89.133%)
 molecular gradient             ...        0 min,  0.002 sec (  6.344%)
 printout                       ...        0 min,  0.000 sec (  0.251%)

         :::::::::::::::::::::::::::::::::::::::::::::::::::::
         ::                     SUMMARY                     ::
         :::::::::::::::::::::::::::::::::::::::::::::::::::::
         :: total energy             -30.040702687734 Eh    ::
         :: gradient norm              0.271581307606 Eh/a0 ::
         :: HOMO-LUMO gap              0.685637778281 eV    ::
         ::.................................................::
         :: SCC energy               -30.287360038554 Eh    ::
         :: -> isotropic ES            0.185259588795 Eh    ::
         :: -> anisotropic ES          0.004765197425 Eh    ::
         :: -> anisotropic XC          0.003561676672 Eh    ::
         :: -> dispersion             -0.012329216556 Eh    ::
         :: repulsion energy           0.246657350821 Eh    ::
         :: add. restraining           0.000000000000 Eh    ::
         :: total charge              -0.999999999988 e     ::
         :::::::::::::::::::::::::::::::::::::::::::::::::::::

      ----------------------------------------------------------- 
     |                   =====================                   |
     |                        A N C O P T                        |
     |                   =====================                   |
     |               Approximate Normal Coordinate               |
     |                Rational Function Optimizer                |
      ----------------------------------------------------------- 
      ----------------------------------------------------------- 
     |                   =====================                   |
     |                        A N C O P T                        |
     |                   =====================                   |
     |               Approximate Normal Coordinate               |
     |                Rational Function Optimizer                |
      ----------------------------------------------------------- 

          ...................................................
          :                      SETUP                      :
          :.................................................:
          :   optimization level            normal          :
          :   max. optcycles                   200          :
          :   ANC micro-cycles                  20          :
          :   degrees of freedom                36          :
          :.................................................:
          :   RF solver                   davidson          :
          :   write xtbopt.log                true          :
          :   linear?                        false          :
          :   energy convergence         0.5000000E-05 Eh   :
          :   grad. convergence          0.1000000E-02 Eh/α :
          :   maxmium RF displ.          1.0000000          :
          :   Hlow (freq-cutoff)         0.1000000E-01      :
          :   Hmax (freq-cutoff)         5.0000000          :
          :   S6 in model hess.         20.0000000          :
          ...................................................

generating ANC from exact Hessian ...
Using Lindh-Hessian (1995)
 Shifting diagonal of input Hessian by   5.645064541073498E-003
 Lowest  eigenvalues of input Hessian
    0.000000    0.000000    0.000000    0.000000    0.000000    0.000000
    0.010000    0.012317    0.016138    0.021501    0.022424    0.025703
    0.045539    0.058120    0.062020    0.082664    0.085097    0.088297
 Highest eigenvalues
    1.370362    1.460816    1.548700    1.604611    1.725307    2.101628
 

........................................................................
.............................. CYCLE    1 ..............................
........................................................................

 iter      E             dE          RMSdq      gap      omega  full diag
   1    -30.2873794 -0.302874E+02  0.345E-05    0.69       0.0  T
   2    -30.2873794  0.182073E-09  0.903E-05    0.69     295.9  T
   3    -30.2873794 -0.199105E-09  0.153E-05    0.69    1744.3  T
     SCC iter.                  ...        0 min,  0.001 sec
     gradient                   ...        0 min,  0.002 sec
 * total energy  :   -30.0407027 Eh     change       -0.1801023E-08 Eh
   gradient norm :     0.2715757 Eh/α   predicted     0.0000000E+00 (-100.00%)
   displ. norm   :     0.5218278 α      lambda       -0.1143969E+00
   maximum displ.:     0.3125266 α      in ANC's #22, #20, #15, ...

........................................................................
.............................. CYCLE    2 ..............................
........................................................................

 iter      E             dE          RMSdq      gap      omega  full diag
   1    -30.3945388 -0.303945E+02  0.948E-01    1.67       0.0  T
   2    -30.3880425  0.649626E-02  0.913E-01    1.21       1.0  T
   3    -30.4006741 -0.126315E-01  0.416E-01    1.50       1.0  T
   4    -30.4027318 -0.205772E-02  0.177E-01    1.40       1.0  T
   5    -30.4027789 -0.470850E-04  0.687E-02    1.39       1.0  T
   6    -30.4028529 -0.739966E-04  0.216E-02    1.40       1.2  T
   7    -30.4028575 -0.462312E-05  0.811E-03    1.40       3.3  T
   8    -30.4028576 -0.155410E-06  0.437E-03    1.40       6.1  T
   9    -30.4028581 -0.446982E-06  0.636E-04    1.40      42.0  T
  10    -30.4028581 -0.229652E-08  0.296E-04    1.40      90.3  T
     SCC iter.                  ...        0 min,  0.004 sec
     gradient                   ...        0 min,  0.002 sec
 * total energy  :   -30.1198248 Eh     change       -0.7912208E-01 Eh
   gradient norm :     0.1701052 Eh/α   predicted    -0.7277381E-01 (  -8.02%)
   displ. norm   :     0.4607335 α      lambda       -0.6115065E-01
   maximum displ.:     0.2066096 α      in ANC's #22, #25, #28, ...

........................................................................
.............................. CYCLE    3 ..............................
........................................................................

 iter      E             dE          RMSdq      gap      omega  full diag
   1    -30.4793881 -0.304794E+02  0.987E-01    2.44       0.0  T
   2    -30.4882111 -0.882302E-02  0.721E-01    1.73       1.0  T
   3    -30.4923488 -0.413771E-02  0.320E-01    1.97       1.0  T
   4    -30.4923308  0.180115E-04  0.250E-01    1.89       1.0  T
   5    -30.4927566 -0.425739E-03  0.557E-02    1.90       1.0  T
   6    -30.4927861 -0.295643E-04  0.199E-02    1.92       1.3  T
   7    -30.4927864 -0.279960E-06  0.759E-03    1.92       3.5  T
   8    -30.4927869 -0.491693E-06  0.313E-03    1.92       8.5  T
   9    -30.4927869 -0.692845E-08  0.936E-04    1.92      28.6  T
  10    -30.4927869 -0.110803E-07  0.309E-04    1.92      86.4  T
     SCC iter.                  ...        0 min,  0.004 sec
     gradient                   ...        0 min,  0.002 sec
 * total energy  :   -30.1531245 Eh     change       -0.3329970E-01 Eh
   gradient norm :     0.0783141 Eh/α   predicted    -0.3706573E-01 (  11.31%)
   displ. norm   :     0.2544339 α      lambda       -0.9391781E-02
   maximum displ.:     0.1223223 α      in ANC's #8, #7, #4, ...

........................................................................
.............................. CYCLE    4 ..............................
........................................................................

 iter      E             dE          RMSdq      gap      omega  full diag
   1    -30.4913230 -0.304913E+02  0.357E-01    1.97       0.0  T
   2    -30.4914897 -0.166613E-03  0.208E-01    2.03       1.0  T
   3    -30.4913887  0.100955E-03  0.142E-01    1.97       1.0  T
   4    -30.4915718 -0.183049E-03  0.422E-02    2.01       1.0  T
   5    -30.4915991 -0.273688E-04  0.962E-03    2.01       2.8  T
   6    -30.4915996 -0.474923E-06  0.433E-03    2.00       6.2  T
   7    -30.4915996 -0.477459E-08  0.138E-03    2.00      19.4  T
   8    -30.4915996 -0.947327E-08  0.301E-04    2.00      88.7  T
   9    -30.4915996 -0.618066E-10  0.142E-04    2.00     187.7  T
     SCC iter.                  ...        0 min,  0.003 sec
     gradient                   ...        0 min,  0.002 sec
 * total energy  :   -30.1578493 Eh     change       -0.4724795E-02 Eh
   gradient norm :     0.0282413 Eh/α   predicted    -0.4999890E-02 (   5.82%)
   displ. norm   :     0.1401269 α      lambda       -0.1772342E-02
   maximum displ.:     0.0877845 α      in ANC's #6, #1, #7, ...

........................................................................
.............................. CYCLE    5 ..............................
........................................................................

 iter      E             dE          RMSdq      gap      omega  full diag
   1    -30.4896802 -0.304897E+02  0.195E-01    2.08       0.0  T
   2    -30.4899118 -0.231571E-03  0.136E-01    1.98       1.0  T
   3    -30.4900412 -0.129433E-03  0.752E-02    2.02       1.0  T
   4    -30.4900458 -0.455877E-05  0.397E-02    2.00       1.0  T
   5    -30.4900643 -0.184798E-04  0.651E-03    2.00       4.1  T
   6    -30.4900644 -0.170246E-06  0.245E-03    2.01      10.9  T
   7    -30.4900644 -0.350333E-08  0.117E-03    2.01      22.7  T
   8    -30.4900644 -0.486984E-08  0.320E-04    2.01      83.5  T
   9    -30.4900644 -0.133944E-09  0.108E-04    2.01     248.2  T
     SCC iter.                  ...        0 min,  0.003 sec
     gradient                   ...        0 min,  0.002 sec
 * total energy  :   -30.1583029 Eh     change       -0.4535948E-03 Eh
   gradient norm :     0.0148822 Eh/α   predicted    -0.9035714E-03 (  99.20%)
   displ. norm   :     0.1262930 α      lambda       -0.6848926E-03
   maximum displ.:     0.0987801 α      in ANC's #1, #4, #8, ...

........................................................................
.............................. CYCLE    6 ..............................
........................................................................

 iter      E             dE          RMSdq      gap      omega  full diag
   1    -30.4928771 -0.304929E+02  0.152E-01    1.98       0.0  T
   2    -30.4929379 -0.608068E-04  0.114E-01    2.04       1.0  T
   3    -30.4930069 -0.689433E-04  0.636E-02    2.01       1.0  T
   4    -30.4930188 -0.119240E-04  0.239E-02    2.02       1.1  T
   5    -30.4930262 -0.740588E-05  0.353E-03    2.02       7.6  T
   6    -30.4930262 -0.635401E-08  0.135E-03    2.02      19.8  T
   7    -30.4930262 -0.657464E-08  0.445E-04    2.02      60.0  T
   8    -30.4930262 -0.729145E-09  0.161E-04    2.02     165.5  T
     SCC iter.                  ...        0 min,  0.003 sec
     gradient                   ...        0 min,  0.002 sec
 * total energy  :   -30.1586113 Eh     change       -0.3084534E-03 Eh
   gradient norm :     0.0070574 Eh/α   predicted    -0.3479055E-03 (  12.79%)
   displ. norm   :     0.0387160 α      lambda       -0.9745387E-04
   maximum displ.:     0.0225080 α      in ANC's #1, #7, #6, ...

........................................................................
.............................. CYCLE    7 ..............................
........................................................................

 iter      E             dE          RMSdq      gap      omega  full diag
   1    -30.4925609 -0.304926E+02  0.450E-02    2.02       0.0  T
   2    -30.4925643 -0.331357E-05  0.287E-02    2.01       1.0  T
   3    -30.4925632  0.101481E-05  0.176E-02    2.02       1.5  T
   4    -30.4925658 -0.256233E-05  0.656E-03    2.02       4.1  T
   5    -30.4925665 -0.653396E-06  0.665E-04    2.02      40.2  T
   6    -30.4925665 -0.120777E-08  0.380E-04    2.02      70.4  T
     SCC iter.                  ...        0 min,  0.002 sec
     gradient                   ...        0 min,  0.002 sec
 * total energy  :   -30.1586517 Eh     change       -0.4034678E-04 Eh
   gradient norm :     0.0041090 Eh/α   predicted    -0.4880090E-04 (  20.95%)
   displ. norm   :     0.0194912 α      lambda       -0.2388307E-04
   maximum displ.:     0.0162681 α      in ANC's #4, #6, #1, ...

........................................................................
.............................. CYCLE    8 ..............................
........................................................................

 iter      E             dE          RMSdq      gap      omega  full diag
   1    -30.4927856 -0.304928E+02  0.256E-02    2.02       0.0  T
   2    -30.4927865 -0.817660E-06  0.153E-02    2.01       1.8  T
   3    -30.4927861  0.322765E-06  0.852E-03    2.02       3.1  T
   4    -30.4927866 -0.438109E-06  0.313E-03    2.01       8.6  T
   5    -30.4927868 -0.176976E-06  0.470E-04    2.01      56.8  T
   6    -30.4927868 -0.326228E-09  0.243E-04    2.01     110.0  T
     SCC iter.                  ...        0 min,  0.002 sec
     gradient                   ...        0 min,  0.002 sec
 * total energy  :   -30.1586671 Eh     change       -0.1541163E-04 Eh
   gradient norm :     0.0024381 Eh/α   predicted    -0.1194612E-04 ( -22.49%)
   displ. norm   :     0.0395410 α      lambda       -0.2565646E-04
   maximum displ.:     0.0242209 α      in ANC's #4, #2, #1, ...

........................................................................
.............................. CYCLE    9 ..............................
........................................................................

 iter      E             dE          RMSdq      gap      omega  full diag
   1    -30.4928996 -0.304929E+02  0.546E-02    2.02       0.0  T
   2    -30.4929192 -0.195782E-04  0.334E-02    2.01       1.0  T
   3    -30.4929227 -0.356478E-05  0.180E-02    2.01       1.5  T
   4    -30.4929213  0.140690E-05  0.103E-02    2.01       2.6  T
   5    -30.4929231 -0.182701E-05  0.176E-03    2.01      15.2  T
   6    -30.4929231 -0.112906E-07  0.105E-03    2.01      25.6  T
   7    -30.4929232 -0.216238E-08  0.320E-04    2.01      83.5  T
   8    -30.4929232 -0.876671E-09  0.128E-04    2.01     208.2  T
     SCC iter.                  ...        0 min,  0.003 sec
     gradient                   ...        0 min,  0.002 sec
 * total energy  :   -30.1586497 Eh     change        0.1742560E-04 Eh
   gradient norm :     0.0076205 Eh/α   predicted    -0.1284755E-04 (-173.73%)
   displ. norm   :     0.0262157 α      lambda       -0.5675024E-04
   maximum displ.:     0.0238968 α      in ANC's #2, #5, #1, ...

........................................................................
.............................. CYCLE   10 ..............................
........................................................................

 iter      E             dE          RMSdq      gap      omega  full diag
   1    -30.4927787 -0.304928E+02  0.402E-02    2.01       0.0  T
   2    -30.4927973 -0.186045E-04  0.249E-02    2.01       1.1  T
   3    -30.4928001 -0.275121E-05  0.117E-02    2.01       2.3  T
   4    -30.4927999  0.156832E-06  0.473E-03    2.01       5.7  T
   5    -30.4928002 -0.254290E-06  0.155E-03    2.01      17.3  T
   6    -30.4928002 -0.955574E-08  0.963E-04    2.01      27.7  T
   7    -30.4928002 -0.330379E-08  0.301E-04    2.01      88.8  T
     SCC iter.                  ...        0 min,  0.002 sec
     gradient                   ...        0 min,  0.002 sec
 * total energy  :   -30.1586738 Eh     change       -0.2412323E-04 Eh
   gradient norm :     0.0015854 Eh/α   predicted    -0.2839442E-04 (  17.71%)
   displ. norm   :     0.0207621 α      lambda       -0.9017814E-05
   maximum displ.:     0.0134560 α      in ANC's #4, #8, #15, ...

........................................................................
.............................. CYCLE   11 ..............................
........................................................................

 iter      E             dE          RMSdq      gap      omega  full diag
   1    -30.4926803 -0.304927E+02  0.292E-02    2.01       0.0  T
   2    -30.4926818 -0.150913E-05  0.188E-02    2.02       1.4  T
   3    -30.4926821 -0.362757E-06  0.123E-02    2.01       2.2  T
   4    -30.4926833 -0.117213E-05  0.412E-03    2.01       6.5  T
   5    -30.4926835 -0.201831E-06  0.469E-04    2.01      57.0  T
   6    -30.4926835 -0.319606E-09  0.248E-04    2.01     107.6  T
     SCC iter.                  ...        0 min,  0.002 sec
     gradient                   ...        0 min,  0.002 sec
 * total energy  :   -30.1586709 Eh     change        0.2854750E-05 Eh
   gradient norm :     0.0021338 Eh/α   predicted    -0.4510402E-05 (-258.00%)
   displ. norm   :     0.0080877 α      lambda       -0.8627956E-05
   maximum displ.:     0.0043456 α      in ANC's #8, #1, #4, ...

........................................................................
.............................. CYCLE   12 ..............................
........................................................................

 iter      E             dE          RMSdq      gap      omega  full diag
   1    -30.4927044 -0.304927E+02  0.117E-02    2.02       0.0  T
   2    -30.4927046 -0.196260E-06  0.753E-03    2.01       3.6  T
   3    -30.4927047 -0.404307E-07  0.512E-03    2.01       5.2  T
   4    -30.4927049 -0.242115E-06  0.142E-03    2.01      18.8  T
   5    -30.4927049 -0.216077E-07  0.211E-04    2.01     126.5  T
   6    -30.4927049 -0.257039E-10  0.906E-05    2.01     295.0  T
     SCC iter.                  ...        0 min,  0.002 sec
     gradient                   ...        0 min,  0.002 sec
 * total energy  :   -30.1586767 Eh     change       -0.5826341E-05 Eh
   gradient norm :     0.0009308 Eh/α   predicted    -0.4315143E-05 ( -25.94%)
   displ. norm   :     0.0117239 α      lambda       -0.2147812E-05
   maximum displ.:     0.0101539 α      in ANC's #1, #8, #4, ...

........................................................................
.............................. CYCLE   13 ..............................
........................................................................

 iter      E             dE          RMSdq      gap      omega  full diag
   1    -30.4927239 -0.304927E+02  0.127E-02    2.02       0.0  T
   2    -30.4927242 -0.311626E-06  0.803E-03    2.01       3.3  T
   3    -30.4927243 -0.109770E-06  0.534E-03    2.01       5.0  T
   4    -30.4927245 -0.226315E-06  0.175E-03    2.01      15.2  T
   5    -30.4927246 -0.344398E-07  0.303E-04    2.01      88.2  T
   6    -30.4927246 -0.678853E-10  0.142E-04    2.01     188.4  T
     SCC iter.                  ...        0 min,  0.002 sec
     gradient                   ...        0 min,  0.002 sec
 * total energy  :   -30.1586778 Eh     change       -0.1074220E-05 Eh
   gradient norm :     0.0004899 Eh/α   predicted    -0.1072899E-05 (  -0.12%)
   displ. norm   :     0.0040770 α      lambda       -0.4162375E-06
   maximum displ.:     0.0025247 α      in ANC's #4, #1, #6, ...

   *** GEOMETRY OPTIMIZATION CONVERGED AFTER 13 ITERATIONS ***

------------------------------------------------------------------------
 total energy gain   :        -0.1179751 Eh      -74.0305 kcal/mol
 total RMSD          :         0.2718675 a0        0.1439 Å
 total power (kW/mol):       -23.8264368 (step)-3361.4128 (real)
------------------------------------------------------------------------

 ANCopt (total)                0 d,  0 h,  0 min,  0.092 sec
 optimizer setup                ...        0 min,  0.000 sec (  0.093%)
 model hessian                  ...        0 min,  0.001 sec (  1.320%)
 ANC generation                 ...        0 min,  0.000 sec (  0.240%)
 coordinate transformation      ...        0 min,  0.000 sec (  0.092%)
 single point calculation       ...        0 min,  0.079 sec ( 85.232%)
 optimization log               ...        0 min,  0.010 sec ( 10.808%)
 hessian update                 ...        0 min,  0.000 sec (  0.117%)
 rational function              ...        0 min,  0.001 sec (  1.590%)

================
 final structure:
================
14
 xtb: 6.7.1 (edcfbbe)
C           -2.05625416262851       -2.87368706866290        1.61180413550983
C           -2.53883065752166       -2.20723865687557        0.42388006906900
C           -3.70842051773368       -2.54459025727404       -0.17531938414573
C           -4.51631382538986       -3.57686662724605        0.34598029823609
C           -4.08496202282603       -4.25387242936076        1.50599569936352
C           -2.91658363723005       -3.92210416198350        2.11065295487126
O           -6.39583528088496       -4.83034042750545        0.21279297030800
O           -0.98136814091545       -2.56915377786970        2.16212738924794
H           -1.92254641308096       -1.41407071018723        0.02079685934334
H           -4.05354830588503       -2.03378755429561       -1.06446007237932
N           -5.70361198083202       -3.91778879776165       -0.26646863877187
H           -4.71623479302878       -5.04199546738005        1.89452498873504
O           -6.05971618126760       -3.30640217394397       -1.28700122503149
H           -2.58991408077542       -4.44383988965352        3.00086295564438
 
 Bond Distances (Angstroems)
 ---------------------------
C1-C2=1.4451         C1-C6=1.4451         C1-O8=1.2454         C2-C1=1.4451         C2-C3=1.3568         C2-H9=1.0823         
C3-C2=1.3568         C3-C4=1.4107         C3-H10=1.0819        C4-C3=1.4107         C4-C5=1.4107         C4-N11=1.3788        
C5-C4=1.4107         C5-C6=1.3568         C5-H12=1.0819        C6-C1=1.4451         C6-C5=1.3568         C6-H14=1.0823        
O7-N11=1.2416        O8-C1=1.2454         H9-C2=1.0823         H10-C3=1.0819        N11-C4=1.3788        N11-O7=1.2416        
N11-O13=1.2418       H12-C5=1.0819        O13-N11=1.2418       H14-C6=1.0823        
 C  H  Rav=1.0821 sigma=0.0002  Rmin=1.0819  Rmax=1.0823     4
 C  C  Rav=1.4042 sigma=0.0363  Rmin=1.3568  Rmax=1.4451     6
 N  C  Rav=1.3788 sigma=0.0000  Rmin=1.3788  Rmax=1.3788     1
 O  C  Rav=1.2454 sigma=0.0000  Rmin=1.2454  Rmax=1.2454     1
 O  N  Rav=1.2417 sigma=0.0001  Rmin=1.2416  Rmax=1.2418     2
 
 selected bond angles (degree)
 --------------------
C6-C1-C2=114.81                O8-C1-C2=122.60                O8-C1-C6=122.60                C3-C2-C1=122.43                
H9-C2-C1=117.00                H9-C2-C3=120.57                C4-C3-C2=120.83                H10-C3-C2=121.37               
H10-C3-C4=117.81               C5-C4-C3=118.68                N11-C4-C3=120.66               N11-C4-C5=120.66               
C6-C5-C4=120.83                H12-C5-C4=117.81               H12-C5-C6=121.37               C5-C6-C1=122.43                
H14-C6-C1=117.00               H14-C6-C5=120.57               
 
 selected dihedral angles (degree)
 ---------------------------------
C3-C2-C1-C6=359.87            C3-C2-C1-O8=179.79            H9-C2-C1-C6=179.88            H9-C2-C1-O8=359.80            
C4-C3-C2-C1=  0.05            C4-C3-C2-H9=180.04            H10-C3-C2-C1=179.99           H10-C3-C2-H9=  0.00           
C5-C4-C3-C2=  0.03            C5-C4-C3-H10=180.10           N11-C4-C3-C2=180.07           N11-C4-C3-H10=  0.13          
C6-C5-C4-C3=359.96            C6-C5-C4-N11=179.93           H12-C5-C4-C3=179.90           H12-C5-C4-N11=359.87          
C5-C6-C1-C2=  0.13            C5-C6-C1-O8=180.21            H14-C6-C1-C2=180.12           H14-C6-C1-O8=  0.20           
C1-C6-C5-C4=359.95            C1-C6-C5-H12=180.01           H14-C6-C5-C4=179.96           H14-C6-C5-H12=  0.02          
           -------------------------------------------------
          |                Final Singlepoint                |
           -------------------------------------------------

          ...................................................
          :                      SETUP                      :
          :.................................................:
          :  # basis functions                  44          :
          :  # atomic orbitals                  44          :
          :  # shells                           24          :
          :  # electrons                        52          :
          :  max. iterations                   250          :
          :  Hamiltonian                  GFN2-xTB          :
          :  restarted?                      false          :
          :  GBSA solvation                  false          :
          :  PC potential                    false          :
          :  electronic temp.          300.0000000     K    :
          :  accuracy                    1.0000000          :
          :  -> integral cutoff          0.2500000E+02      :
          :  -> integral neglect         0.1000000E-07      :
          :  -> SCF convergence          0.1000000E-05 Eh   :
          :  -> wf. convergence          0.1000000E-03 e    :
          :  Broyden damping             0.4000000          :
          :  net charge                         -1          :
          :  unpaired electrons                  0          :
          ...................................................

 iter      E             dE          RMSdq      gap      omega  full diag
   1    -30.4927246 -0.304927E+02  0.503E-05    2.01       0.0  T
   2    -30.4927246 -0.823874E-11  0.328E-05    2.01     814.2  T
   3    -30.4927246 -0.654765E-11  0.197E-05    2.01    1353.6  T

   *** convergence criteria satisfied after 3 iterations ***

         #    Occupation            Energy/Eh            Energy/eV
      -------------------------------------------------------------
         1        2.0000           -0.5889646             -16.0265
       ...           ...                  ...                  ...
        20        2.0000           -0.3003942              -8.1741
        21        2.0000           -0.2954324              -8.0391
        22        2.0000           -0.2741253              -7.4593
        23        2.0000           -0.2739943              -7.4558
        24        2.0000           -0.2720191              -7.4020
        25        2.0000           -0.2226473              -6.0585
        26        2.0000           -0.2209067              -6.0112 (HOMO)
        27                         -0.1469430              -3.9985 (LUMO)
        28                         -0.0826563              -2.2492
        29                         -0.0453289              -1.2335
        30                          0.0551346               1.5003
        31                          0.1836429               4.9972
       ...                                ...                  ...
        44                          0.8424724              22.9248
      -------------------------------------------------------------
                  HL-Gap            0.0739638 Eh            2.0127 eV
             Fermi-level           -0.1839249 Eh           -5.0049 eV

 SCC (total)                   0 d,  0 h,  0 min,  0.005 sec
 SCC setup                      ...        0 min,  0.000 sec (  1.603%)
 Dispersion                     ...        0 min,  0.000 sec (  1.127%)
 classical contributions        ...        0 min,  0.000 sec (  0.259%)
 integral evaluation            ...        0 min,  0.001 sec ( 20.413%)
 iterations                     ...        0 min,  0.001 sec ( 25.248%)
 molecular gradient             ...        0 min,  0.002 sec ( 49.173%)
 printout                       ...        0 min,  0.000 sec (  1.629%)

         :::::::::::::::::::::::::::::::::::::::::::::::::::::
         ::                     SUMMARY                     ::
         :::::::::::::::::::::::::::::::::::::::::::::::::::::
         :: total energy             -30.158677824190 Eh    ::
         :: gradient norm              0.000489956025 Eh/a0 ::
         :: HOMO-LUMO gap              2.012656396242 eV    ::
         ::.................................................::
         :: SCC energy               -30.492708684687 Eh    ::
         :: -> isotropic ES            0.181275933756 Eh    ::
         :: -> anisotropic ES          0.011866199033 Eh    ::
         :: -> anisotropic XC         -0.000589058681 Eh    ::
         :: -> dispersion             -0.012800063010 Eh    ::
         :: repulsion energy           0.334030860496 Eh    ::
         :: add. restraining           0.000000000000 Eh    ::
         :: total charge              -1.000000000000 e     ::
         :::::::::::::::::::::::::::::::::::::::::::::::::::::

           ------------------------------------------------- 
          |                Numerical Hessian                |
           ------------------------------------------------- 
step length          :   0.00500
SCC accuracy         :   0.30000
Hessian scale factor :   1.00000
frozen atoms in %    :   0.00000    0
RMS gradient         :   0.00049
estimated CPU  time      0.02 min
estimated wall time      0.01 min

writing file <hessian>.

 projected vibrational frequencies (cm⁻¹)
eigval :       -0.00    -0.00    -0.00    -0.00     0.00     0.00
eigval :       87.07    94.86   213.36   252.65   352.69   372.57
eigval :      431.37   442.07   545.96   610.87   622.44   663.35
eigval :      716.02   786.76   820.01   820.13   855.04   919.73
eigval :      922.66   972.63  1104.70  1151.39  1193.29  1234.87
eigval :     1300.08  1349.00  1407.60  1477.22  1518.33  1529.38
eigval :     1592.41  1623.29  3049.55  3051.84  3064.46  3067.93
           -------------------------------------------------
          |                Property Printout                |
           -------------------------------------------------

    * Orbital Energies and Occupations

         #    Occupation            Energy/Eh            Energy/eV
      -------------------------------------------------------------
         1        2.0000           -0.5889644             -16.0265
       ...           ...                  ...                  ...
        14        2.0000           -0.3674169              -9.9979
        15        2.0000           -0.3572398              -9.7210
        16        2.0000           -0.3516976              -9.5702
        17        2.0000           -0.3465625              -9.4304
        18        2.0000           -0.3142439              -8.5510
        19        2.0000           -0.3140272              -8.5451
        20        2.0000           -0.3003942              -8.1741
        21        2.0000           -0.2954323              -8.0391
        22        2.0000           -0.2741253              -7.4593
        23        2.0000           -0.2739943              -7.4558
        24        2.0000           -0.2720190              -7.4020
        25        2.0000           -0.2226476              -6.0585
        26        2.0000           -0.2209069              -6.0112 (HOMO)
        27                         -0.1469430              -3.9985 (LUMO)
        28                         -0.0826564              -2.2492
        29                         -0.0453290              -1.2335
        30                          0.0551345               1.5003
        31                          0.1836430               4.9972
        32                          0.2575221               7.0075
        33                          0.2806402               7.6366
        34                          0.2886836               7.8555
        35                          0.3217589               8.7555
        36                          0.3483702               9.4796
        37                          0.4284594              11.6590
       ...                                ...                  ...
        44                          0.8424723              22.9248
      -------------------------------------------------------------
                  HL-Gap            0.0739639 Eh            2.0127 eV
             Fermi-level           -0.1839249 Eh           -5.0049 eV

     #   Z          covCN         q      C6AA      α(0)
     1   6 C        2.829     0.201    23.722     7.981
     2   6 C        2.912    -0.083    30.067     8.992
     3   6 C        2.909    -0.035    28.882     8.812
     4   6 C        2.913    -0.031    28.761     8.794
     5   6 C        2.909    -0.035    28.882     8.812
     6   6 C        2.912    -0.083    30.067     8.992
     7   8 O        0.930    -0.495    23.635     6.520
     8   8 O        0.858    -0.520    24.226     6.599
     9   1 H        0.925     0.013     2.837     2.634
    10   1 H        0.925     0.032     2.557     2.501
    11   7 N        2.763     0.484    14.206     5.598
    12   1 H        0.925     0.032     2.558     2.501
    13   8 O        0.930    -0.495    23.638     6.520
    14   1 H        0.925     0.013     2.837     2.634

 Mol. C6AA /au·bohr⁶  :       3220.814548
 Mol. C8AA /au·bohr⁸  :      76911.501995
 Mol. α(0) /au        :         87.889367


Wiberg/Mayer (AO) data.
largest (>0.10) Wiberg bond orders for each atom

 ---------------------------------------------------------------------------
     #   Z sym  total        # sym  WBO       # sym  WBO       # sym  WBO
 ---------------------------------------------------------------------------
     1   6 C    3.963 --     8 O    1.565     6 C    1.147     2 C    1.147
     2   6 C    3.986 --     3 C    1.627     1 C    1.147     9 H    0.971
     3   6 C    3.991 --     2 C    1.627     4 C    1.253    10 H    0.965
     4   6 C    3.944 --     5 C    1.253     3 C    1.253    11 N    1.127
     5   6 C    3.991 --     6 C    1.627     4 C    1.253    12 H    0.965
     6   6 C    3.986 --     5 C    1.627     1 C    1.147    14 H    0.971
     7   8 O    1.773 --    11 N    1.330    13 O    0.256
     8   8 O    1.821 --     1 C    1.565
     9   1 H    0.999 --     2 C    0.971
    10   1 H    0.999 --     3 C    0.965
    11   7 N    3.868 --     7 O    1.330    13 O    1.330     4 C    1.127
    12   1 H    0.999 --     5 C    0.965
    13   8 O    1.772 --    11 N    1.330     7 O    0.256
    14   1 H    0.999 --     6 C    0.971
 ---------------------------------------------------------------------------

Topologies differ in total number of bonds
Writing topology from bond orders to xtbtopo.mol

molecular dipole:
                 x           y           z       tot (Debye)
 q only:        7.603       6.498      -1.127
   full:        7.473       6.462      -1.193      25.294
molecular quadrupole (traceless):
                xx          xy          yy          xz          yz          zz
 q only:      -56.888     -86.489       1.441      -7.651       7.805      55.446
  q+dip:      -57.145     -85.273       2.283      -8.638       6.927      54.863
   full:      -57.685     -86.584       2.807      -9.834       8.331      54.877

           -------------------------------------------------
          |                Geometry Summary                 |
           -------------------------------------------------

      molecular mass/u    :      138.1010964
   center of mass at/Å    :       -3.9560195      -3.4173882       0.6335735
  moments of inertia/u·Å² :        0.1269747E+03   0.5914615E+03   0.7184354E+03
rotational constants/cm⁻¹ :        0.1327637E+00   0.2850166E-01   0.2346437E-01

 * 11 selected distances

     #   Z          #   Z                                           value/Å
     2   6 C        3   6 C                                       1.3567560
     3   6 C        4   6 C                                       1.4106877 (max)
     4   6 C        5   6 C                                       1.4106868
     5   6 C        6   6 C                                       1.3567568
     2   6 C        9   1 H                                       1.0823114
     3   6 C       10   1 H                                       1.0819445
     4   6 C       11   7 N                                       1.3787672
     7   8 O       11   7 N                                       1.2416181
     5   6 C       12   1 H                                       1.0819420 (min)
    11   7 N       13   8 O                                       1.2418095
     6   6 C       14   1 H                                       1.0823101

 * 4 distinct bonds (by element types)

   Z      Z             #   av. dist./Å        max./Å        min./Å
   1 H    6 C           4     1.0821270     1.0823114     1.0819420
   6 C    6 C           4     1.3837218     1.4106877     1.3567560
   6 C    7 N           1     1.3787672     1.3787672     1.3787672
   7 N    8 O           2     1.2417138     1.2418095     1.2416181

           -------------------------------------------------
          |               Frequency Printout                |
           -------------------------------------------------
 projected vibrational frequencies (cm⁻¹)
eigval :       -0.00    -0.00    -0.00    -0.00     0.00     0.00
eigval :       87.07    94.86   213.36   252.65   352.69   372.57
eigval :      431.37   442.07   545.96   610.87   622.44   663.35
eigval :      716.02   786.76   820.01   820.13   855.04   919.73
eigval :      922.66   972.63  1104.70  1151.39  1193.29  1234.87
eigval :     1300.08  1349.00  1407.60  1477.22  1518.33  1529.38
eigval :     1592.41  1623.29  3049.55  3051.84  3064.46  3067.93
 reduced masses (amu)
   1: 12.57   2: 13.10   3: 14.41   4: 13.00   5: 14.05   6: 13.38   7: 14.05   8: 13.76
   9: 14.06  10: 11.80  11: 14.38  12:  9.53  13: 13.13  14:  8.91  15: 13.19  16: 11.84
  17: 13.35  18: 11.11  19: 13.20  20: 13.67  21:  6.48  22:  3.37  23: 12.22  24:  2.68
  25:  3.50  26:  8.85  27:  4.27  28:  6.84  29:  5.75  30:  5.59  31:  7.18  32: 11.22
  33: 10.42  34: 11.75  35: 12.17  36: 13.75  37: 12.61  38: 11.89  39:  1.77  40:  1.76
  41:  1.87  42:  1.88
 IR intensities (km·mol⁻¹)
   1:  4.20   2:  3.11   3:  1.04   4:  4.87   5:  3.57   6:  4.91   7:  0.00   8: 19.30
   9:  8.92  10:  0.46  11:  0.37  12:  0.04  13:  9.93  14:  0.33  15:  0.13  16:  0.20
  17: 35.08  18:  7.69  19: 57.33  20:  0.01  21: 38.52  22:  0.03  23:  7.85  24:  1.24
  25:  0.15  26:  2.90  27:  2.35  28:  0.13  29:115.80  30: 14.16  31:  1.49  32:891.50
  33:842.43  34: 10.79  35:172.83  36:213.29  37: 93.58  38:521.68  39: 25.30  40: 26.36
  41:137.63  42:  6.78
 Raman intensities (Ä⁴*amu⁻¹)
   1:  0.00   2:  0.00   3:  0.00   4:  0.00   5:  0.00   6:  0.00   7:  0.00   8:  0.00
   9:  0.00  10:  0.00  11:  0.00  12:  0.00  13:  0.00  14:  0.00  15:  0.00  16:  0.00
  17:  0.00  18:  0.00  19:  0.00  20:  0.00  21:  0.00  22:  0.00  23:  0.00  24:  0.00
  25:  0.00  26:  0.00  27:  0.00  28:  0.00  29:  0.00  30:  0.00  31:  0.00  32:  0.00
  33:  0.00  34:  0.00  35:  0.00  36:  0.00  37:  0.00  38:  0.00  39:  0.00  40:  0.00
  41:  0.00  42:  0.00
 output can be read by thermo (or use thermo option).
 writing <g98.out> molden fake output.
 recommended (thermochemical) frequency scaling factor: 1.0
           -------------------------------------------------
          |             Thermodynamic Functions             |
           -------------------------------------------------

Molecule has the following symmetry elements: (C2) 2*(sigma) 
It seems to be the C2v point group
c2v symmetry found (for desy threshold:  0.10E+00) used in thermo

          ...................................................
          :                      SETUP                      :
          :.................................................:
          :  # frequencies                          36      :
          :  # imaginary freq.                       0      :
          :  linear?                             false      :
          :  only rotor calc.                    false      :
          :  symmetry                              c2v      :
          :  rotational number                       2      :
          :  scaling factor                  1.0000000      :
          :  rotor cutoff                   50.0000000 cm⁻¹ :
          :  imag. cutoff                  -20.0000000 cm⁻¹ :
          :.................................................:

    mode    ω/cm⁻¹     T·S(HO)/kcal·mol⁻¹    T·S(FR)/kcal·mol⁻¹   T·S(vib)
   ------------------------------------------------------------------------
       1     87.07    -1.11054 ( 90.19%)    -0.89210 (  9.81%)    -1.08912
       2     94.86    -1.06060 ( 92.83%)    -0.86674 (  7.17%)    -1.04671
       3    213.36    -0.60070 ( 99.70%)    -0.62667 (  0.30%)    -0.60078
       4    252.65    -0.51043 ( 99.85%)    -0.57660 (  0.15%)    -0.51053
   ------------------------------------------------------------------------

   temp. (K)  partition function   enthalpy   heat capacity  entropy
                                   cal/mol     cal/K/mol   cal/K/mol   J/K/mol
 298.15  VIB   48.9                 3174.857     23.475     18.262
         ROT  0.281E+06              888.752      2.981     27.910
         INT  0.137E+08             4063.610     26.456     46.172
         TR   0.157E+28             1481.254      4.968     40.662
         TOT                        5544.8635    31.4238    86.8343   363.3147

       T/K    H(0)-H(T)+PV         H(T)/Eh          T*S/Eh         G(T)/Eh
   ------------------------------------------------------------------------
    298.15    0.883630E-02    0.100459E+00    0.412578E-01    0.592009E-01
   ------------------------------------------------------------------------

         :::::::::::::::::::::::::::::::::::::::::::::::::::::
         ::                  THERMODYNAMIC                  ::
         :::::::::::::::::::::::::::::::::::::::::::::::::::::
         :: total free energy         -30.099476962281 Eh   ::
         ::.................................................::
         :: total energy              -30.158677824188 Eh   ::
         :: zero point energy           0.091622331802 Eh   ::
         :: G(RRHO) w/o ZPVE           -0.032421469896 Eh   ::
         :: G(RRHO) contrib.            0.059200861907 Eh   ::
         :::::::::::::::::::::::::::::::::::::::::::::::::::::

optimized geometry written to: xtbopt.xyz


           -------------------------------------------------
          | TOTAL ENERGY              -30.158677824188 Eh   |
          | TOTAL ENTHALPY            -30.058219189929 Eh   |
          | TOTAL FREE ENERGY         -30.099476962281 Eh   |
          | GRADIENT NORM               0.000489682725 Eh/α |
          | HOMO-LUMO GAP               2.012660277693 eV   |
           -------------------------------------------------

------------------------------------------------------------------------
 * finished run on 2025/10/18 at 05:14:44.977     
------------------------------------------------------------------------
 total:
 * wall-time:     0 d,  0 h,  0 min,  0.618 sec
 *  cpu-time:     0 d,  0 h,  0 min,  1.066 sec
 * ratio c/w:     1.726 speedup
 SCF:
 * wall-time:     0 d,  0 h,  0 min,  0.037 sec
 *  cpu-time:     0 d,  0 h,  0 min,  0.050 sec
 * ratio c/w:     1.333 speedup
 ANC optimizer:
 * wall-time:     0 d,  0 h,  0 min,  0.121 sec
 *  cpu-time:     0 d,  0 h,  0 min,  0.209 sec
 * ratio c/w:     1.733 speedup
 analytical hessian:
 * wall-time:     0 d,  0 h,  0 min,  0.361 sec
 *  cpu-time:     0 d,  0 h,  0 min,  0.702 sec
 * ratio c/w:     1.944 speedup

