14
 energy: -30.040702689535 gnorm: 0.271575715047 xtb: 6.7.1 (edcfbbe)
C           -2.04516100000000       -2.89836400000000        1.58920600000000
C           -2.44700100000000       -2.18295700000000        0.40347300000000
C           -3.70963800000000       -2.52780100000000       -0.23585900000000
C           -4.57685500000000       -3.58380000000000        0.32529700000000
C           -4.10290400000000       -4.31239000000000        1.51965900000000
C           -2.83899700000000       -3.96184700000000        2.15329400000000
O           -6.40096800000000       -4.98301100000000        0.11871000000000
O           -1.02462600000000       -2.52392400000000        2.19847600000000
H           -1.83880200000000       -1.37480300000000        0.01718700000000
H           -4.02055800000000       -1.95626100000000       -1.10018300000000
N           -5.95869500000000       -3.68195100000000       -0.08422200000000
H           -4.70935500000000       -5.08364100000000        1.97547100000000
O           -6.05104100000000       -3.39942300000000       -1.44114300000000
H           -2.51953900000000       -4.46556500000000        3.05680300000000
14
 energy: -30.119824774353 gnorm: 0.170131203090 xtb: 6.7.1 (edcfbbe)
C           -2.05430208399974       -2.88730758014879        1.59839505227279
C           -2.48503325940803       -2.20740081479389        0.40174460111218
C           -3.70738971837210       -2.51847039167458       -0.18686005617059
C           -4.53145922949523       -3.55500308836285        0.36474011278931
C           -4.09221876469686       -4.26508406801324        1.53116050134050
C           -2.87017884840629       -3.95544590442289        2.12114335933442
O           -6.44914006986169       -4.95393970544849        0.16619362957681
O           -1.01393171072936       -2.52722080694463        2.19751742240894
H           -1.86376477861581       -1.40620229975268        0.01299568779009
H           -4.02238111117636       -1.98032988209721       -1.07622219022164
N           -5.82323952347991       -3.81266773076353       -0.18656868446145
H           -4.70070897590419       -5.06000315108949        1.95259976927592
O           -6.09303523897525       -3.34224596488272       -1.42133994065529
H           -2.53735668687917       -4.46441661160500        3.02066973560800
14
 energy: -30.153124478727 gnorm: 0.078321404182 xtb: 6.7.1 (edcfbbe)
C           -2.06198026016597       -2.88308679403222        1.60097302483298
C           -2.54012328756716       -2.23408789230818        0.40014336800407
C           -3.71652068456940       -2.52792580503869       -0.15072929140453
C           -4.54626731194897       -3.51252823024480        0.40457126324723
C           -4.09104649427939       -4.22794969018311        1.52138474119569
C           -2.91706662193842       -3.94522824137532        2.08313826475999
O           -6.37600669783950       -4.87915432692044        0.17359044414536
O           -1.00289017906762       -2.54518697761144        2.18173329414001
H           -1.89536140958858       -1.44813245448691        0.00560669949937
H           -4.04152811436687       -2.00514000786551       -1.04823891561090
N           -5.74967883532375       -3.88335690894910       -0.24184267014317
H           -4.70754375595503       -5.02865310883428        1.92543575866226
O           -6.03824701908348       -3.35027570639531       -1.33230354509834
H           -2.55987932830587       -4.46503185575469        2.97270656376996
14
 energy: -30.157849274120 gnorm: 0.028275624069 xtb: 6.7.1 (edcfbbe)
C           -2.05339157679916       -2.87018407118629        1.61601410626413
C           -2.53691912193972       -2.21995075353820        0.41744314469802
C           -3.71783986577802       -2.53815588366945       -0.16169847097945
C           -4.52259288254761       -3.56959540453492        0.35191123924942
C           -4.09240380508632       -4.23846493883049        1.51072221947610
C           -2.91335009991417       -3.92896042024914        2.09831322228458
O           -6.40129387507519       -4.84574482405955        0.19328507524741
O           -0.99418348548018       -2.54194411545110        2.18696290502736
H           -1.89397434663895       -1.44533956727790        0.00930995766740
H           -4.06522013120094       -2.01374084218674       -1.04556599106047
N           -5.70165280384990       -3.91593200596932       -0.26418488638190
H           -4.72762580844017       -5.02092162588949        1.91216972877585
O           -6.06536984123406       -3.32510852981702       -1.30439582479303
H           -2.55832235601561       -4.46169501734038        2.97588257452458
14
 energy: -30.158302868905 gnorm: 0.014900575730 xtb: 6.7.1 (edcfbbe)
C           -2.05100042000272       -2.87794074268016        1.60866217766288
C           -2.53753112651084       -2.21070666469647        0.42128535195756
C           -3.72535625381467       -2.52769610185193       -0.16236733855883
C           -4.53845793318957       -3.55252497727182        0.36573365009949
C           -4.10199131805269       -4.23737869228076        1.51932711148113
C           -2.91511199448526       -3.92500840286181        2.10737008318021
O           -6.37530726412759       -4.84861505156629        0.20395477422782
O           -0.97936906691436       -2.56879900886186        2.16296340960456
H           -1.90599685294149       -1.43399791313577        0.00956001405092
H           -4.06833416671430       -2.01976049566152       -1.05553535480944
N           -5.70449526272154       -3.92421254178262       -0.27325438693094
H           -4.73141231993837       -5.02999570106348        1.90527012827410
O           -6.03763597958879       -3.32034294117769       -1.30116721690285
H           -2.57214004099779       -4.45875876510782        2.98436659666338
14
 energy: -30.158611322292 gnorm: 0.007063675803 xtb: 6.7.1 (edcfbbe)
C           -2.05645799252491       -2.87500421429651        1.61042234586737
C           -2.53793845850267       -2.20916430381974        0.42123317832868
C           -3.70977865584061       -2.54309709278575       -0.17578262276788
C           -4.52480830802014       -3.56626636611620        0.35484019667840
C           -4.08667789751113       -4.25401090999922        1.50712715186469
C           -2.91584956089789       -3.92494503439568        2.10881066107778
O           -6.39092289720133       -4.83411047604371        0.21011443506228
O           -0.98642909650531       -2.56470280938105        2.16552814345680
H           -1.91905426147470       -1.42013570258494        0.01672453758104
H           -4.05661796586083       -2.02923056152711       -1.06229200300586
N           -5.69946246893756       -3.91647427399551       -0.26424256209588
H           -4.71965019206718       -5.03922343581704        1.89832758805871
O           -6.05443898681336       -3.31061191450949       -1.29006145413836
H           -2.58605325784237       -4.44876090472805        2.99541940403224
14
 energy: -30.158651669068 gnorm: 0.004114079063 xtb: 6.7.1 (edcfbbe)
C           -2.05709210969722       -2.87323660645826        1.61207873650584
C           -2.53940816707191       -2.20617625249711        0.42426016528682
C           -3.71237414800829       -2.53809981980616       -0.16970500421711
C           -4.52304656289457       -3.56905667045072        0.35236168842413
C           -4.08894884349920       -4.24746535399594        1.51164717484720
C           -2.91723515486294       -3.92169932831210        2.11146812256100
O           -6.39274772095627       -4.83667228095652        0.20639900357715
O           -0.97901392676092       -2.57177270548650        2.16002586107937
H           -1.91757295186157       -1.42049806668477        0.01533139681540
H           -4.05560176824887       -2.02940703515689       -1.06087802745787
N           -5.70178881894475       -3.91858673293432       -0.26704411691138
H           -4.71831684011509       -5.03812390112296        1.89832821982808
O           -6.05616259927859       -3.31438643875099       -1.29332242954080
H           -2.58483038779980       -4.45055680738675        2.99521820920218
14
 energy: -30.158667080699 gnorm: 0.002441316359 xtb: 6.7.1 (edcfbbe)
C           -2.05511808671474       -2.87547910429389        1.61022988324135
C           -2.53924680470834       -2.20654848164005        0.42434726827954
C           -3.71150600196521       -2.53999284307941       -0.17100245454754
C           -4.52127199689898       -3.57117377920826        0.35075481263450
C           -4.08792357855089       -4.24901164811577        1.51006738081742
C           -2.91707248426802       -3.92142731005804        2.11140312204302
O           -6.39199832229051       -4.83620427759212        0.20744353327043
O           -0.97865692948097       -2.57278739707994        2.15897654794215
H           -1.92022270645924       -1.41747992919826        0.01778362697789
H           -4.05604697927681       -2.03043570640108       -1.06100872809496
N           -5.70213703603084       -3.91906723877672       -0.26706218922355
H           -4.71865437345516       -5.03792290122552        1.89765235876061
O           -6.05655514567806       -3.31119983383873       -1.29160381736754
H           -2.58772955422223       -4.44700754949221        2.99818765526669
14
 energy: -30.158649655102 gnorm: 0.007640393006 xtb: 6.7.1 (edcfbbe)
C           -2.05423139782871       -2.87635436448710        1.60960188918372
C           -2.53932801333878       -2.20610046541810        0.42506430882973
C           -3.70904461145853       -2.54329300471808       -0.17442165314129
C           -4.51732034218020       -3.57493403137008        0.34689779843010
C           -4.08601591946089       -4.25240790307209        1.50644388785095
C           -2.91655113104724       -3.92207695071881        2.11026329326626
O           -6.39705128510329       -4.82931124244481        0.21720774621344
O           -0.97807131125462       -2.57452676874844        2.15793608740321
H           -1.92497081190128       -1.41095354309751        0.02322956437601
H           -4.05651142259383       -2.03034178454973       -1.06108104438046
N           -5.70218173179338       -3.91740707816260       -0.26880936705690
H           -4.71847532364952       -5.03936314325873        1.89502959701668
O           -6.05336434167379       -3.31468463530088       -1.29193097901223
H           -2.59102235671594       -4.44398308465304        3.00073787102076
14
 energy: -30.158673778331 gnorm: 0.001587981482 xtb: 6.7.1 (edcfbbe)
C           -2.05558567500263       -2.87458510979711        1.61103278485563
C           -2.53915277834339       -2.20686880883761        0.42436502400641
C           -3.70901114689325       -2.54393264946953       -0.17475754001614
C           -4.51652154390391       -3.57634093396216        0.34657273654178
C           -4.08549980019872       -4.25324509095186        1.50662496868182
C           -2.91691296049518       -3.92142263960737        2.11112785879788
O           -6.39350556454414       -4.83245939173936        0.21099399722017
O           -0.97792917786505       -2.57396900532966        2.15793243483996
H           -1.92387706916760       -1.41279067401968        0.02148626481577
H           -4.05562713280985       -2.03194962617360       -1.06253270383131
N           -5.70270134544536       -3.91887214571011       -0.26700979669208
H           -4.71825639232200       -5.03950930599420        1.89623121105230
O           -6.05812136176756       -3.30725727793819       -1.28805486902611
H           -2.59143805124136       -4.44253534046955        3.00215662875393
14
 energy: -30.158670923581 gnorm: 0.002135571887 xtb: 6.7.1 (edcfbbe)
C           -2.05456215657899       -2.87576921494769        1.61006803855457
C           -2.53916179990203       -2.20662653320907        0.42437725931133
C           -3.71011686127677       -2.54162519576889       -0.17254413482575
C           -4.51823129388276       -3.57471402002736        0.34770672311187
C           -4.08662840846432       -4.25076972511197        1.50859260286588
C           -2.91689981357591       -3.92160006611250        2.11112712385524
O           -6.39581717315718       -4.83249666491346        0.21035616148238
O           -0.98044426719436       -2.57044085723024        2.16104747734732
H           -1.92148087246818       -1.41511017796470        0.02017844938147
H           -4.05348365414840       -2.03272487860850       -1.06368971064078
N           -5.70298542342170       -3.91833288543695       -0.26698317607572
H           -4.71620307585916       -5.04130695381074        1.89550647497251
O           -6.05938002029384       -3.30939756534950       -1.28949503773348
H           -2.58874517977638       -4.44482326150843        2.99992074839315
14
 energy: -30.158676749922 gnorm: 0.000931597704 xtb: 6.7.1 (edcfbbe)
C           -2.05537299654973       -2.87479894487045        1.61087432615115
C           -2.53908627145399       -2.20681679334078        0.42422672901667
C           -3.70939495417831       -2.54294854959697       -0.17381277964707
C           -4.51738719881161       -3.57563755059850        0.34693825660381
C           -4.08593948779572       -4.25215699078300        1.50739813570574
C           -2.91680889990526       -3.92179022567176        2.11092490364771
O           -6.39567349275929       -4.83165289912766        0.21162727825722
O           -0.98042744183767       -2.57050015696820        2.16100229215216
H           -1.92208748776355       -1.41448568519311        0.02056453081625
H           -4.05387845238236       -2.03276218925768       -1.06364281320599
N           -5.70315630445450       -3.91816282339093       -0.26692613631486
H           -4.71654943674801       -5.04120694844875        1.89533610118725
O           -6.05903215903438       -3.30844456061491       -1.28870253459613
H           -2.58934541632563       -4.44437368213730        3.00036071022610
14
 energy: -30.158677824142 gnorm: 0.000490389964 xtb: 6.7.1 (edcfbbe)
C           -2.05625416262851       -2.87368706866290        1.61180413550983
C           -2.53883065752166       -2.20723865687557        0.42388006906900
C           -3.70842051773368       -2.54459025727404       -0.17531938414573
C           -4.51631382538986       -3.57686662724605        0.34598029823609
C           -4.08496202282603       -4.25387242936076        1.50599569936352
C           -2.91658363723005       -3.92210416198350        2.11065295487126
O           -6.39583528088496       -4.83034042750545        0.21279297030800
O           -0.98136814091545       -2.56915377786970        2.16212738924794
H           -1.92254641308096       -1.41407071018723        0.02079685934334
H           -4.05354830588503       -2.03378755429561       -1.06446007237932
N           -5.70361198083202       -3.91778879776165       -0.26646863877187
H           -4.71623479302878       -5.04199546738005        1.89452498873504
O           -6.05971618126760       -3.30640217394397       -1.28700122503149
H           -2.58991408077542       -4.44383988965352        3.00086295564438
