
                                 *****************
                                 * O   R   C   A *
                                 *****************

                                            #,                                       
                                            ###                                      
                                            ####                                     
                                            #####                                    
                                            ######                                   
                                           ########,                                 
                                     ,,################,,,,,                         
                               ,,#################################,,                 
                          ,,##########################################,,             
                       ,#########################################, ''#####,          
                    ,#############################################,,   '####,        
                  ,##################################################,,,,####,       
                ,###########''''           ''''###############################       
              ,#####''   ,,,,##########,,,,          '''####'''          '####       
            ,##' ,,,,###########################,,,                        '##       
           ' ,,###''''                  '''############,,,                           
         ,,##''                                '''############,,,,        ,,,,,,###''
      ,#''                                            '''#######################'''  
     '                                                          ''''####''''         
             ,#######,   #######,   ,#######,      ##                                
            ,#'     '#,  ##    ##  ,#'     '#,    #''#        ######   ,####,        
            ##       ##  ##   ,#'  ##            #'  '#       #        #'  '#        
            ##       ##  #######   ##           ,######,      #####,   #    #        
            '#,     ,#'  ##    ##  '#,     ,#' ,#      #,         ##   #,  ,#        
             '#######'   ##     ##  '#######'  #'      '#     #####' # '####'        



                  #######################################################
                  #                        -***-                        #
                  #          Department of theory and spectroscopy      #
                  #    Directorship and core code : Frank Neese         #
                  #        Max Planck Institute fuer Kohlenforschung    #
                  #                Kaiser Wilhelm Platz 1               #
                  #                 D-45470 Muelheim/Ruhr               #
                  #                      Germany                        #
                  #                                                     #
                  #                  All rights reserved                #
                  #                        -***-                        #
                  #######################################################


                         Program Version 5.0.4 -  RELEASE  -


 With contributions from (in alphabetic order):
   Daniel Aravena         : Magnetic Suceptibility
   Michael Atanasov       : Ab Initio Ligand Field Theory (pilot matlab implementation)
   Alexander A. Auer      : GIAO ZORA, VPT2 properties, NMR spectrum
   Ute Becker             : Parallelization
   Giovanni Bistoni       : ED, misc. LED, open-shell LED, HFLD
   Martin Brehm           : Molecular dynamics
   Dmytro Bykov           : SCF Hessian
   Vijay G. Chilkuri      : MRCI spin determinant printing, contributions to CSF-ICE
   Dipayan Datta          : RHF DLPNO-CCSD density
   Achintya Kumar Dutta   : EOM-CC, STEOM-CC
   Dmitry Ganyushin       : Spin-Orbit,Spin-Spin,Magnetic field MRCI
   Miquel Garcia          : C-PCM and meta-GGA Hessian, CC/C-PCM, Gaussian charge scheme
   Yang Guo               : DLPNO-NEVPT2, F12-NEVPT2, CIM, IAO-localization
   Andreas Hansen         : Spin unrestricted coupled pair/coupled cluster methods
   Benjamin Helmich-Paris : MC-RPA, TRAH-SCF, COSX integrals
   Lee Huntington         : MR-EOM, pCC
   Robert Izsak           : Overlap fitted RIJCOSX, COSX-SCS-MP3, EOM
   Marcus Kettner         : VPT2
   Christian Kollmar      : KDIIS, OOCD, Brueckner-CCSD(T), CCSD density, CASPT2, CASPT2-K
   Simone Kossmann        : Meta GGA functionals, TD-DFT gradient, OOMP2, MP2 Hessian
   Martin Krupicka        : Initial AUTO-CI
   Lucas Lang             : DCDCAS
   Marvin Lechner         : AUTO-CI (C++ implementation), FIC-MRCC
   Dagmar Lenk            : GEPOL surface, SMD
   Dimitrios Liakos       : Extrapolation schemes; Compound Job, initial MDCI parallelization
   Dimitrios Manganas     : Further ROCIS development; embedding schemes
   Dimitrios Pantazis     : SARC Basis sets
   Anastasios Papadopoulos: AUTO-CI, single reference methods and gradients
   Taras Petrenko         : DFT Hessian,TD-DFT gradient, ASA, ECA, R-Raman, ABS, FL, XAS/XES, NRVS
   Peter Pinski           : DLPNO-MP2, DLPNO-MP2 Gradient
   Christoph Reimann      : Effective Core Potentials
   Marius Retegan         : Local ZFS, SOC
   Christoph Riplinger    : Optimizer, TS searches, QM/MM, DLPNO-CCSD(T), (RO)-DLPNO pert. Triples
   Tobias Risthaus        : Range-separated hybrids, TD-DFT gradient, RPA, STAB
   Michael Roemelt        : Original ROCIS implementation
   Masaaki Saitow         : Open-shell DLPNO-CCSD energy and density
   Barbara Sandhoefer     : DKH picture change effects
   Avijit Sen             : IP-ROCIS
   Kantharuban Sivalingam : CASSCF convergence, NEVPT2, FIC-MRCI
   Bernardo de Souza      : ESD, SOC TD-DFT
   Georgi Stoychev        : AutoAux, RI-MP2 NMR, DLPNO-MP2 response
   Willem Van den Heuvel  : Paramagnetic NMR
   Boris Wezisla          : Elementary symmetry handling
   Frank Wennmohs         : Technical directorship


 We gratefully acknowledge several colleagues who have allowed us to
 interface, adapt or use parts of their codes:
   Stefan Grimme, W. Hujo, H. Kruse, P. Pracht,  : VdW corrections, initial TS optimization,
                  C. Bannwarth, S. Ehlert          DFT functionals, gCP, sTDA/sTD-DF
   Ed Valeev, F. Pavosevic, A. Kumar             : LibInt (2-el integral package), F12 methods
   Garnet Chan, S. Sharma, J. Yang, R. Olivares  : DMRG
   Ulf Ekstrom                                   : XCFun DFT Library
   Mihaly Kallay                                 : mrcc  (arbitrary order and MRCC methods)
   Jiri Pittner, Ondrej Demel                    : Mk-CCSD
   Frank Weinhold                                : gennbo (NPA and NBO analysis)
   Christopher J. Cramer and Donald G. Truhlar   : smd solvation model
   Lars Goerigk                                  : TD-DFT with DH, B97 family of functionals
   V. Asgeirsson, H. Jonsson                     : NEB implementation
   FAccTs GmbH                                   : IRC, NEB, NEB-TS, DLPNO-Multilevel, CI-OPT
                                                   MM, QMMM, 2- and 3-layer-ONIOM, Crystal-QMMM,
                                                   LR-CPCM, SF, NACMEs, symmetry and pop. for TD-DFT,
                                                   nearIR, NL-DFT gradient (VV10), updates on ESD,
                                                   ML-optimized integration grids
   S Lehtola, MJT Oliveira, MAL Marques          : LibXC Library
   Liviu Ungur et al                             : ANISO software


 Your calculation uses the libint2 library for the computation of 2-el integrals
 For citations please refer to: http://libint.valeyev.net

 Your ORCA version has been built with support for libXC version: 5.1.0
 For citations please refer to: https://tddft.org/programs/libxc/

 This ORCA versions uses:
   CBLAS   interface :  Fast vector & matrix operations
   LAPACKE interface :  Fast linear algebra routines
   SCALAPACK package :  Parallel linear algebra routines
   Shared memory     :  Shared parallel matrices
   BLAS/LAPACK       :  OpenBLAS 0.3.15  USE64BITINT DYNAMIC_ARCH NO_AFFINITY Haswell SINGLE_THREADED
        Core in use  :  Haswell
   Copyright (c) 2011-2014, The OpenBLAS Project


================================================================================

----- Orbital basis set information -----
Your calculation utilizes the basis: def2-SVP
   F. Weigend and R. Ahlrichs, Phys. Chem. Chem. Phys. 7, 3297 (2005).

================================================================================
                                        WARNINGS
                       Please study these warnings very carefully!
================================================================================


INFO   : the flag for use of the SHARK integral package has been found!

================================================================================
                                       INPUT FILE
================================================================================
NAME = inp.inp
|  1> !SP HF def2-SVP CPCM(water)
|  2> 
|  3> *xyz -1 1
|  4> C           -0.16327289018103       -0.81304944774459        1.58455832159786
|  5> C           -0.43253964067672       -0.73637798493681       -1.44190166243915
|  6> Cl          -1.75805614439891       -1.30398560575791        1.75269203875664
|  7> H            0.59693093349965       -1.56644156098070        1.56493117973891
|  8> H            0.05346733235844        0.23243053451801        1.65968947260540
|  9> O           -0.76159293852211        0.35830392404427       -1.39552695269200
| 10> O           -0.10222365207932       -1.82978485914228       -1.50867039756766
| 11> *
| 12> 
| 13>                          ****END OF INPUT****
================================================================================

                       ****************************
                       * Single Point Calculation *
                       ****************************

---------------------------------
CARTESIAN COORDINATES (ANGSTROEM)
---------------------------------
  C     -0.163273   -0.813049    1.584558
  C     -0.432540   -0.736378   -1.441902
  Cl    -1.758056   -1.303986    1.752692
  H      0.596931   -1.566442    1.564931
  H      0.053467    0.232431    1.659689
  O     -0.761593    0.358304   -1.395527
  O     -0.102224   -1.829785   -1.508670

----------------------------
CARTESIAN COORDINATES (A.U.)
----------------------------
  NO LB      ZA    FRAG     MASS         X           Y           Z
   0 C     6.0000    0    12.011   -0.308541   -1.536441    2.994381
   1 C     6.0000    0    12.011   -0.817381   -1.391553   -2.724799
   2 Cl   17.0000    0    35.453   -3.322245   -2.464176    3.312108
   3 H     1.0000    0     1.008    1.128036   -2.960146    2.957291
   4 H     1.0000    0     1.008    0.101039    0.439230    3.136359
   5 O     8.0000    0    15.999   -1.439202    0.677096   -2.637164
   6 O     8.0000    0    15.999   -0.193175   -3.457792   -2.850974

--------------------------------
INTERNAL COORDINATES (ANGSTROEM)
--------------------------------
 C      0   0   0     0.000000000000     0.00000000     0.00000000
 C      1   0   0     3.039382031122     0.00000000     0.00000000
 Cl     1   2   0     1.677087023987    91.31601416     0.00000000
 H      1   2   3     1.070464737636    93.57826780   118.26864461
 H      1   2   3     1.070350133008    93.62318085   241.70747823
 O      2   1   3     1.144008377757    90.53031973    90.13279055
 O      2   1   3     1.144161399835    90.48269601   269.97478391

---------------------------
INTERNAL COORDINATES (A.U.)
---------------------------
 C      0   0   0     0.000000000000     0.00000000     0.00000000
 C      1   0   0     5.743599655182     0.00000000     0.00000000
 Cl     1   2   0     3.169235178088    91.31601416     0.00000000
 H      1   2   3     2.022885190152    93.57826780   118.26864461
 H      1   2   3     2.022668618791    93.62318085   241.70747823
 O      2   1   3     2.161862528872    90.53031973    90.13279055
 O      2   1   3     2.162151698693    90.48269601   269.97478391

---------------------
BASIS SET INFORMATION
---------------------
There are 4 groups of distinct atoms

 Group   1 Type C   : 7s4p1d contracted to 3s2p1d pattern {511/31/1}
 Group   2 Type Cl  : 10s7p1d contracted to 4s3p1d pattern {5311/511/1}
 Group   3 Type H   : 4s1p contracted to 2s1p pattern {31/1}
 Group   4 Type O   : 7s4p1d contracted to 3s2p1d pattern {511/31/1}

Atom   0C    basis set group =>   1
Atom   1C    basis set group =>   1
Atom   2Cl   basis set group =>   2
Atom   3H    basis set group =>   3
Atom   4H    basis set group =>   3
Atom   5O    basis set group =>   4
Atom   6O    basis set group =>   4
------------------------------------------------------------------------------
                           ORCA GTO INTEGRAL CALCULATION
------------------------------------------------------------------------------
------------------------------------------------------------------------------
                   ___                                                        
                  /   \      - P O W E R E D   B Y -                         
                 /     \                                                     
                 |  |  |   _    _      __       _____    __    __             
                 |  |  |  | |  | |    /  \     |  _  \  |  |  /  |          
                  \  \/   | |  | |   /    \    | | | |  |  | /  /          
                 / \  \   | |__| |  /  /\  \   | |_| |  |  |/  /          
                |  |  |   |  __  | /  /__\  \  |    /   |      \           
                |  |  |   | |  | | |   __   |  |    \   |  |\   \          
                \     /   | |  | | |  |  |  |  | |\  \  |  | \   \       
                 \___/    |_|  |_| |__|  |__|  |_| \__\ |__|  \__/        
                                                                              
                      - O R C A' S   B I G   F R I E N D -                    
                                      &                                       
                       - I N T E G R A L  F E E D E R -                       
                                                                              
 v1 FN, 2020, v2 2021                                                         
------------------------------------------------------------------------------


Reading SHARK input file inp.SHARKINP.tmp ... ok
----------------------
SHARK INTEGRAL PACKAGE
----------------------

Number of atoms                             ...      7
Number of basis functions                   ...     84
Number of shells                            ...     38
Maximum angular momentum                    ...      2
Integral batch strategy                     ... SHARK/LIBINT Hybrid
RI-J (if used) integral strategy            ... SPLIT-RIJ (Revised 2003 algorithm where possible)
Printlevel                                  ...      1
Contraction scheme used                     ... SEGMENTED contraction
Coulomb Range Separation                    ... NOT USED
Exchange Range Separation                   ... NOT USED
Finite Nucleus Model                        ... NOT USED
Auxiliary Coulomb fitting basis             ... NOT available
Auxiliary J/K fitting basis                 ... NOT available
Auxiliary Correlation fitting basis         ... NOT available
Auxiliary 'external' fitting basis          ... NOT available
Integral threshold                          ...     1.000000e-10
Primitive cut-off                           ...     1.000000e-11
Primitive pair pre-selection threshold      ...     1.000000e-11

Calculating pre-screening integrals         ... done (  0.0 sec) Dimension = 38
Organizing shell pair data                  ... done (  0.1 sec)
Shell pair information
Total number of shell pairs                 ...       741
Shell pairs after pre-screening             ...       695
Total number of primitive shell pairs       ...      3007
Primitive shell pairs kept                  ...      2072
          la=0 lb=0:    193 shell pairs
          la=1 lb=0:    244 shell pairs
          la=1 lb=1:     89 shell pairs
          la=2 lb=0:     91 shell pairs
          la=2 lb=1:     63 shell pairs
          la=2 lb=2:     15 shell pairs

Calculating one electron integrals          ... done (  0.0 sec)
Calculating Nuclear repulsion               ... done (  0.0 sec) ENN=    188.226872894544 Eh

SHARK setup successfully completed in   1.0 seconds

Maximum memory used throughout the entire GTOINT-calculation: 7.4 MB
-------------------------------------------------------------------------------
                                 ORCA SCF
-------------------------------------------------------------------------------

------------
SCF SETTINGS
------------
Hamiltonian:
 Ab initio Hamiltonian  Method          .... Hartree-Fock(GTOs)


General Settings:
 Integral files         IntName         .... inp
 Hartree-Fock type      HFTyp           .... RHF
 Total Charge           Charge          ....   -1
 Multiplicity           Mult            ....    1
 Number of Electrons    NEL             ....   48
 Basis Dimension        Dim             ....   84
 Nuclear Repulsion      ENuc            ....    188.2268728945 Eh

Convergence Acceleration:
 DIIS                   CNVDIIS         .... on
   Start iteration      DIISMaxIt       ....    12
   Startup error        DIISStart       ....  0.200000
   # of expansion vecs  DIISMaxEq       ....     5
   Bias factor          DIISBfac        ....   1.050
   Max. coefficient     DIISMaxC        ....  10.000
 Trust-Rad. Augm. Hess. CNVTRAH         .... auto
   Auto Start mean grad. ratio tolernc. ....  1.125000
   Auto Start start iteration           ....    20
   Auto Start num. interpolation iter.  ....    10
   Max. Number of Micro iterations      ....    16
   Max. Number of Macro iterations      .... Maxiter - #DIIS iter
   Number of Davidson start vectors     ....     2
   Converg. threshold I  (grad. norm)   ....   5.000e-05
   Converg. threshold II (energy diff.) ....   1.000e-06
   Grad. Scal. Fac. for Micro threshold ....   0.100
   Minimum threshold for Micro iter.    ....   0.010
   NR start threshold (gradient norm)   ....   0.001
   Initial trust radius                 ....   0.400
   Minimum AH scaling param. (alpha)    ....   1.000
   Maximum AH scaling param. (alpha)    .... 1000.000
   Orbital update algorithm             .... Taylor
   White noise on init. David. guess    .... on
   Maximum white noise                  ....   0.010
   Quad. conv. algorithm                .... NR
 SOSCF                  CNVSOSCF        .... on
   Start iteration      SOSCFMaxIt      ....   150
   Startup grad/error   SOSCFStart      ....  0.003300
 Level Shifting         CNVShift        .... on
   Level shift para.    LevelShift      ....    0.2500
   Turn off err/grad.   ShiftErr        ....    0.0010
 Zerner damping         CNVZerner       .... off
 Static damping         CNVDamp         .... on
   Fraction old density DampFac         ....    0.7000
   Max. Damping (<1)    DampMax         ....    0.9800
   Min. Damping (>=0)   DampMin         ....    0.0000
   Turn off err/grad.   DampErr         ....    0.1000
 Fernandez-Rico         CNVRico         .... off

SCF Procedure:
 Maximum # iterations   MaxIter         ....   125
 SCF integral mode      SCFMode         .... Direct
   Integral package                     .... SHARK and LIBINT hybrid scheme
 Reset frequency        DirectResetFreq ....    20
 Integral Threshold     Thresh          ....  1.000e-10 Eh
 Primitive CutOff       TCut            ....  1.000e-11 Eh

Convergence Tolerance:
 Convergence Check Mode ConvCheckMode   .... Total+1el-Energy
 Convergence forced     ConvForced      .... 0
 Energy Change          TolE            ....  1.000e-06 Eh
 1-El. energy change                    ....  1.000e-03 Eh
 Orbital Gradient       TolG            ....  5.000e-05
 Orbital Rotation angle TolX            ....  5.000e-05
 DIIS Error             TolErr          ....  1.000e-06


Diagonalization of the overlap matrix:
Smallest eigenvalue                        ... 8.612e-03
Time for diagonalization                   ...    0.003 sec
Threshold for overlap eigenvalues          ... 1.000e-08
Number of eigenvalues below threshold      ... 0
Time for construction of square roots      ...    0.048 sec
Total time needed                          ...    0.051 sec

Time for model grid setup =    0.163 sec

------------------------------
INITIAL GUESS: MODEL POTENTIAL
------------------------------
Loading Hartree-Fock densities                     ... done
Calculating cut-offs                               ... done
Initializing the effective Hamiltonian             ... done
Setting up the integral package (SHARK)            ... done
Starting the Coulomb interaction                   ... done (   0.1 sec)
Reading the grid                                   ... done
Mapping shells                                     ... done
Starting the XC term evaluation                    ... done (   0.0 sec)
Transforming the Hamiltonian                       ... done (   0.0 sec)
Diagonalizing the Hamiltonian                      ... done (   0.0 sec)
Back transforming the eigenvectors                 ... done (   0.0 sec)
Now organizing SCF variables                       ... done
                      ------------------
                      INITIAL GUESS DONE (   0.4 sec)
                      ------------------

--------------------
CPCM SOLVATION MODEL
--------------------
CPCM parameters:
  Epsilon                                         ...      80.4000
  Refrac                                          ...       1.3300
  Rsolv                                           ...       1.3000
  Surface type                                    ... GAUSSIAN VDW
  Epsilon function type                           ...         CPCM
Radii:
 Radius for C  used is    3.8550 Bohr (=   2.0400 Ang.)
 Radius for Cl used is    3.9684 Bohr (=   2.1000 Ang.)
 Radius for H  used is    2.4944 Bohr (=   1.3200 Ang.)
 Radius for O  used is    3.4469 Bohr (=   1.8240 Ang.)
Calculating surface                               ...        done! (  0.0s)
GEPOL surface points                              ...          521
GEPOL Volume                                      ...     733.6486
GEPOL Surface-area                                ...     466.2565
Calculating surface distance matrix               ...        done! (  0.0s)
Performing Cholesky decomposition & store         ...        done! (  0.2s)
Overall time for CPCM initialization              ...                 0.2s
--------------
SCF ITERATIONS
--------------
ITER       Energy         Delta-E        Max-DP      RMS-DP      [F,P]     Damp
               ***  Starting incremental Fock matrix formation  ***
  0   -685.5732320021   0.000000000000 0.10863492  0.00347727  0.2825832 0.7000
  1   -685.6664218527  -0.093189850621 0.08490452  0.00261422  0.1803584 0.7000
                               ***Turning on DIIS***
  2   -685.7198751509  -0.053453298163 0.05178467  0.00164027  0.1019708 0.7000
  3   -686.2028348827  -0.482959731825 0.07969420  0.00301086  0.0548610 0.0000
  4   -685.7704767568   0.432358125896 0.01186333  0.00041407  0.0133318 0.0000
                      *** Initiating the SOSCF procedure ***
                           *** Shutting down DIIS ***
                      *** Re-Reading the Fockian *** 
                      *** Removing any level shift *** 
ITER      Energy       Delta-E        Grad      Rot      Max-DP    RMS-DP
  5   -685.82901712  -0.0585403593  0.002163  0.002163  0.003948  0.000174
               *** Restarting incremental Fock matrix formation ***
  6   -685.82582658   0.0031905382  0.000707  0.001421  0.003924  0.000125
  7   -685.82584074  -0.0000141655  0.000403  0.001090  0.003163  0.000109
  8   -685.82584421  -0.0000034695  0.000137  0.000133  0.000325  0.000013
                 **** Energy Check signals convergence ****
              ***Rediagonalizing the Fockian in SOSCF/NRSCF***

               *****************************************************
               *                     SUCCESS                       *
               *           SCF CONVERGED AFTER   9 CYCLES          *
               *****************************************************


----------------
TOTAL SCF ENERGY
----------------

Total Energy       :         -685.82584445 Eh          -18662.27000 eV

Components:
Nuclear Repulsion  :          188.22687289 Eh            5121.91360 eV
Electronic Energy  :         -874.05271735 Eh          -23784.18360 eV
One Electron Energy:        -1328.97745663 Eh          -36163.31510 eV
Two Electron Energy:          454.92473929 Eh           12379.13150 eV
CPCM Dielectric    :           -0.10151823 Eh              -2.76245 eV

Virial components:
Potential Energy   :        -1371.18153676 Eh          -37311.74651 eV
Kinetic Energy     :          685.35569230 Eh           18649.47651 eV
Virial Ratio       :            2.00068600

CPCM Solvation Model Properties:
Surface-charge          :            0.98776109
Charge-correction       :           -0.00180507 Eh              -0.04912 eV
Free-energy (cav+disp)  :  This term is not implemented in the current solvation scheme

---------------
SCF CONVERGENCE
---------------

  Last Energy change         ...   -2.3935e-07  Tolerance :   1.0000e-06
  Last MAX-Density change    ...    1.4480e-04  Tolerance :   1.0000e-05
  Last RMS-Density change    ...    5.6894e-06  Tolerance :   1.0000e-06
  Last Orbital Gradient      ...    5.0352e-05  Tolerance :   5.0000e-05
  Last Orbital Rotation      ...    6.2258e-05  Tolerance :   5.0000e-05

             **** THE GBW FILE WAS UPDATED (inp.gbw) ****
             **** DENSITY inp.scfp WAS UPDATED ****
             **** ENERGY FILE WAS UPDATED (inp.en.tmp) ****
             **** THE GBW FILE WAS UPDATED (inp.gbw) ****
             **** DENSITY inp.scfp WAS UPDATED ****
----------------
ORBITAL ENERGIES
----------------

  NO   OCC          E(Eh)            E(eV) 
   0   2.0000    -104.724219     -2849.6909 
   1   2.0000     -20.617058      -561.0187 
   2   2.0000     -20.616960      -561.0160 
   3   2.0000     -11.443258      -311.3869 
   4   2.0000     -11.130347      -302.8721 
   5   2.0000     -10.487327      -285.3747 
   6   2.0000      -7.962781      -216.6783 
   7   2.0000      -7.960100      -216.6053 
   8   2.0000      -7.959497      -216.5889 
   9   2.0000      -1.498506       -40.7764 
  10   2.0000      -1.448395       -39.4128 
  11   2.0000      -1.068235       -29.0682 
  12   2.0000      -0.767531       -20.8856 
  13   2.0000      -0.761150       -20.7119 
  14   2.0000      -0.725459       -19.7407 
  15   2.0000      -0.699409       -19.0319 
  16   2.0000      -0.696369       -18.9492 
  17   2.0000      -0.538663       -14.6578 
  18   2.0000      -0.522901       -14.2289 
  19   2.0000      -0.519660       -14.1407 
  20   2.0000      -0.492224       -13.3941 
  21   2.0000      -0.443995       -12.0817 
  22   2.0000      -0.380114       -10.3434 
  23   2.0000      -0.188734        -5.1357 
  24   0.0000       0.230806         6.2806 
  25   0.0000       0.248125         6.7518 
  26   0.0000       0.258515         7.0345 
  27   0.0000       0.270134         7.3507 
  28   0.0000       0.297097         8.0844 
  29   0.0000       0.370180        10.0731 
  30   0.0000       0.498279        13.5588 
  31   0.0000       0.592234        16.1155 
  32   0.0000       0.618367        16.8266 
  33   0.0000       0.672992        18.3130 
  34   0.0000       0.720579        19.6079 
  35   0.0000       0.739470        20.1220 
  36   0.0000       0.778313        21.1790 
  37   0.0000       0.829560        22.5735 
  38   0.0000       0.967782        26.3347 
  39   0.0000       1.002234        27.2722 
  40   0.0000       1.006707        27.3939 
  41   0.0000       1.030784        28.0491 
  42   0.0000       1.050491        28.5853 
  43   0.0000       1.063470        28.9385 
  44   0.0000       1.092566        29.7302 
  45   0.0000       1.109207        30.1831 
  46   0.0000       1.125892        30.6371 
  47   0.0000       1.188753        32.3476 
  48   0.0000       1.194282        32.4981 
  49   0.0000       1.212385        32.9907 
  50   0.0000       1.242156        33.8008 
  51   0.0000       1.403465        38.1902 
  52   0.0000       1.404204        38.2103 
  53   0.0000       1.421657        38.6853 
  54   0.0000       1.501387        40.8548 
  55   0.0000       1.540417        41.9169 
  56   0.0000       1.552472        42.2449 
  57   0.0000       1.634020        44.4640 
  58   0.0000       1.806844        49.1667 
  59   0.0000       1.823474        49.6193 
  60   0.0000       1.882852        51.2350 
  61   0.0000       1.898463        51.6598 
  62   0.0000       1.902387        51.7666 
  63   0.0000       1.932342        52.5817 
  64   0.0000       1.958097        53.2825 
  65   0.0000       2.064060        56.1659 
  66   0.0000       2.385908        64.9239 
  67   0.0000       2.453989        66.7764 
  68   0.0000       2.497986        67.9736 
  69   0.0000       2.667484        72.5859 
  70   0.0000       2.800600        76.2082 
  71   0.0000       2.919843        79.4530 
  72   0.0000       2.920941        79.4829 
  73   0.0000       3.062715        83.3407 
  74   0.0000       3.063575        83.3641 
  75   0.0000       3.183262        86.6210 
  76   0.0000       3.187248        86.7294 
  77   0.0000       3.314935        90.2040 
  78   0.0000       3.321298        90.3771 
  79   0.0000       3.397894        92.4614 
  80   0.0000       4.008448       109.0754 
  81   0.0000       4.011403       109.1558 
  82   0.0000       4.020306       109.3981 
  83   0.0000       4.342682       118.1704 

                    ********************************
                    * MULLIKEN POPULATION ANALYSIS *
                    ********************************

-----------------------
MULLIKEN ATOMIC CHARGES
-----------------------
   0 C :   -0.607886
   1 C :    0.618767
   2 Cl:   -0.353300
   3 H :   -0.003704
   4 H :   -0.004224
   5 O :   -0.324789
   6 O :   -0.324863
Sum of atomic charges:   -1.0000000

--------------------------------
MULLIKEN REDUCED ORBITAL CHARGES
--------------------------------
  0 C s       :     3.110473  s :     3.110473
      pz      :     1.907144  p :     3.464835
      px      :     0.661403
      py      :     0.896287
      dz2     :     0.002918  d :     0.032578
      dxz     :     0.003328
      dyz     :     0.000542
      dx2y2   :     0.013563
      dxy     :     0.012227
  1 C s       :     2.923657  s :     2.923657
      pz      :     0.658924  p :     2.269723
      px      :     0.698567
      py      :     0.912232
      dz2     :     0.011273  d :     0.187854
      dxz     :     0.006369
      dyz     :     0.067471
      dx2y2   :     0.042573
      dxy     :     0.060167
  2 Cls       :     5.948729  s :     5.948729
      pz      :     3.987967  p :    11.345588
      px      :     3.426250
      py      :     3.931371
      dz2     :     0.006896  d :     0.058984
      dxz     :     0.025046
      dyz     :     0.002493
      dx2y2   :     0.014577
      dxy     :     0.009972
  3 H s       :     0.972791  s :     0.972791
      pz      :     0.012834  p :     0.030914
      px      :     0.009154
      py      :     0.008926
  4 H s       :     0.973290  s :     0.973290
      pz      :     0.012788  p :     0.030935
      px      :     0.003006
      py      :     0.015140
  5 O s       :     3.742731  s :     3.742731
      pz      :     1.628061  p :     4.555485
      px      :     1.593305
      py      :     1.334119
      dz2     :     0.002902  d :     0.026572
      dxz     :     0.000643
      dyz     :     0.006983
      dx2y2   :     0.008164
      dxy     :     0.007880
  6 O s       :     3.742866  s :     3.742866
      pz      :     1.628593  p :     4.555435
      px      :     1.591874
      py      :     1.334968
      dz2     :     0.002869  d :     0.026563
      dxz     :     0.000667
      dyz     :     0.006980
      dx2y2   :     0.008158
      dxy     :     0.007888


                     *******************************
                     * LOEWDIN POPULATION ANALYSIS *
                     *******************************

----------------------
LOEWDIN ATOMIC CHARGES
----------------------
   0 C :   -0.734662
   1 C :    0.286008
   2 Cl:   -0.099127
   3 H :   -0.058881
   4 H :   -0.059144
   5 O :   -0.167051
   6 O :   -0.167143

-------------------------------
LOEWDIN REDUCED ORBITAL CHARGES
-------------------------------
  0 C s       :     2.933981  s :     2.933981
      pz      :     1.819077  p :     3.722298
      px      :     0.869291
      py      :     1.033930
      dz2     :     0.005806  d :     0.078382
      dxz     :     0.008860
      dyz     :     0.001236
      dx2y2   :     0.031183
      dxy     :     0.031298
  1 C s       :     2.807166  s :     2.807166
      pz      :     0.708118  p :     2.537313
      px      :     0.744897
      py      :     1.084299
      dz2     :     0.025872  d :     0.369514
      dxz     :     0.011782
      dyz     :     0.125194
      dx2y2   :     0.090130
      dxy     :     0.116536
  2 Cls       :     5.728165  s :     5.728165
      pz      :     3.974533  p :    11.299624
      px      :     3.426202
      py      :     3.898889
      dz2     :     0.007566  d :     0.071338
      dxz     :     0.033654
      dyz     :     0.003340
      dx2y2   :     0.016008
      dxy     :     0.010770
  3 H s       :     0.964825  s :     0.964825
      pz      :     0.047153  p :     0.094056
      px      :     0.024415
      py      :     0.022488
  4 H s       :     0.965054  s :     0.965054
      pz      :     0.047231  p :     0.094090
      px      :     0.009391
      py      :     0.037468
  5 O s       :     3.513786  s :     3.513786
      pz      :     1.579560  p :     4.614402
      px      :     1.561751
      py      :     1.473090
      dz2     :     0.005725  d :     0.038863
      dxz     :     0.000684
      dyz     :     0.007416
      dx2y2   :     0.014252
      dxy     :     0.010785
  6 O s       :     3.513900  s :     3.513900
      pz      :     1.580137  p :     4.614392
      px      :     1.560624
      py      :     1.473631
      dz2     :     0.005680  d :     0.038851
      dxz     :     0.000712
      dyz     :     0.007446
      dx2y2   :     0.014187
      dxy     :     0.010826


                      *****************************
                      * MAYER POPULATION ANALYSIS *
                      *****************************

  NA   - Mulliken gross atomic population
  ZA   - Total nuclear charge
  QA   - Mulliken gross atomic charge
  VA   - Mayer's total valence
  BVA  - Mayer's bonded valence
  FA   - Mayer's free valence

  ATOM       NA         ZA         QA         VA         BVA        FA
  0 C      6.6079     6.0000    -0.6079     2.9001     2.9001     0.0000
  1 C      5.3812     6.0000     0.6188     4.2169     4.2169    -0.0000
  2 Cl    17.3533    17.0000    -0.3533     0.8594     0.8594    -0.0000
  3 H      1.0037     1.0000    -0.0037     0.9928     0.9928    -0.0000
  4 H      1.0042     1.0000    -0.0042     0.9927     0.9927    -0.0000
  5 O      8.3248     8.0000    -0.3248     2.2280     2.2280    -0.0000
  6 O      8.3249     8.0000    -0.3249     2.2279     2.2279    -0.0000

  Mayer bond orders larger than 0.100000
B(  0-C ,  2-Cl) :   0.8460 B(  0-C ,  3-H ) :   0.9994 B(  0-C ,  4-H ) :   0.9993 
B(  1-C ,  5-O ) :   2.0737 B(  1-C ,  6-O ) :   2.0736 B(  5-O ,  6-O ) :   0.1548 


-------
TIMINGS
-------

Total SCF time: 0 days 0 hours 0 min 7 sec 

Total time                  ....       7.456 sec
Sum of individual times     ....       5.078 sec  ( 68.1%)

Fock matrix formation       ....       4.238 sec  ( 56.8%)
Diagonalization             ....       0.008 sec  (  0.1%)
Density matrix formation    ....       0.001 sec  (  0.0%)
Population analysis         ....       0.100 sec  (  1.3%)
Initial guess               ....       0.210 sec  (  2.8%)
Orbital Transformation      ....       0.000 sec  (  0.0%)
Orbital Orthonormalization  ....       0.000 sec  (  0.0%)
DIIS solution               ....       0.239 sec  (  3.2%)
SOSCF solution              ....       0.120 sec  (  1.6%)

Maximum memory used throughout the entire SCF-calculation: 230.3 MB

-------------------------   --------------------
FINAL SINGLE POINT ENERGY      -685.825844452316
-------------------------   --------------------


                            ***************************************
                            *     ORCA property calculations      *
                            ***************************************

                                    ---------------------
                                    Active property flags
                                    ---------------------
   (+) Dipole Moment


------------------------------------------------------------------------------
                       ORCA ELECTRIC PROPERTIES CALCULATION
------------------------------------------------------------------------------

Dipole Moment Calculation                       ... on
Quadrupole Moment Calculation                   ... off
Polarizability Calculation                      ... off
GBWName                                         ... inp.gbw
Electron density                                ... inp.scfp
The origin for moment calculation is the CENTER OF MASS  = (-1.670619, -1.813689  0.417159)

-------------
DIPOLE MOMENT
-------------
                                X             Y             Z
Electronic contribution:     -3.82731      -1.00776      -2.87434
Nuclear contribution   :      3.45545       1.01796       0.50539
                        -----------------------------------------
Total Dipole Moment    :     -0.37186       0.01020      -2.36895
                        -----------------------------------------
Magnitude (a.u.)       :      2.39798
Magnitude (Debye)      :      6.09517



--------------------
Rotational spectrum 
--------------------
 
Rotational constants in cm-1:     0.240641     0.059297     0.055900 
Rotational constants in MHz :  7214.232181  1777.681632  1675.848085 

 Dipole components along the rotational axes: 
x,y,z [a.u.] :    -2.123141    -0.003210     1.114699 
x,y,z [Debye]:    -5.396595    -0.008159     2.833340 

 

Timings for individual modules:

Sum of individual times         ...        8.551 sec (=   0.143 min)
GTO integral calculation        ...        1.067 sec (=   0.018 min)  12.5 %
SCF iterations                  ...        7.484 sec (=   0.125 min)  87.5 %
                             ****ORCA TERMINATED NORMALLY****
TOTAL RUN TIME: 0 days 0 hours 0 minutes 9 seconds 520 msec
