7
 energy: -17.898279748562 gnorm: 0.135440759740 xtb: 6.7.1 (edcfbbe)
C           -0.23769000000000       -0.79970300000000        0.91816900000000
C           -0.36186200000000       -0.75841500000000       -0.60538600000000
Cl          -1.77507800000000       -1.31566100000000        1.66202000000000
H            0.54042400000000       -1.50496200000000        1.22489200000000
H            0.01476600000000        0.18828900000000        1.31479600000000
O           -0.68863200000000        0.36286800000000       -1.09356800000000
O           -0.05921500000000       -1.83132100000000       -1.20515100000000
7
 energy: -17.907885353239 gnorm: 0.080952937425 xtb: 6.7.1 (edcfbbe)
C           -0.21910795264228       -0.79486886917823        0.93623037896653
C           -0.33775703517378       -0.75110816841689       -0.61607606331151
Cl          -1.77213985467936       -1.31197097578572        1.60716554815896
H            0.54668521164893       -1.52303217152994        1.21400826514411
H            0.00969741404662        0.20775701930556        1.30535372434152
O           -0.70651818795456        0.33471385480622       -1.06075383327059
O           -0.08814659524556       -1.82039568920100       -1.17015602002902
7
 energy: -17.910300691317 gnorm: 0.072301362732 xtb: 6.7.1 (edcfbbe)
C           -0.22599478215950       -0.79806954805508        0.96513574882760
C           -0.42764124240397       -0.77492933010782       -0.65977441158115
Cl          -1.75033153676021       -1.30513765466130        1.60986157974307
H            0.54344889142015       -1.54214030832732        1.17614655332391
H           -0.00394872073519        0.22507167548083        1.27068362013093
O           -0.65600410184734        0.32788030449506       -1.01908465611117
O           -0.04681550751393       -1.79158013882438       -1.12719643433319
7
 energy: -17.916561395547 gnorm: 0.033430392672 xtb: 6.7.1 (edcfbbe)
C           -0.21690615981898       -0.79656458278257        0.98310785340178
C           -0.35987562874207       -0.75409050195428       -0.69094592489597
Cl          -1.75317009185982       -1.30356533221051        1.57513439325526
H            0.54774810408117       -1.53716923836091        1.19985012879541
H            0.00321814026707        0.22100067624393        1.29293928491210
O           -0.70467004082988        0.33425530903490       -1.01705087144788
O           -0.08363132309747       -1.82277132997055       -1.12726286402070
7
 energy: -17.918194299903 gnorm: 0.018307544554 xtb: 6.7.1 (edcfbbe)
C           -0.21828400367812       -0.79817307863812        1.00500563139706
C           -0.35337484044808       -0.75068262857158       -0.72072564486488
Cl          -1.75534169755326       -1.30331429297112        1.57111407548129
H            0.55273093013703       -1.53387764160986        1.21289166258833
H            0.01049855879459        0.21952099025758        1.30607579959903
O           -0.71703336952938        0.34563386676115       -1.02350312115907
O           -0.08648257772278       -1.83801221522805       -1.13508640304177
7
 energy: -17.919615303937 gnorm: 0.018287022092 xtb: 6.7.1 (edcfbbe)
C           -0.22509836919857       -0.80207859793410        1.03786764119753
C           -0.35919776075912       -0.75002254317845       -0.76554516614783
Cl          -1.75428599987857       -1.30280085803495        1.58220092068192
H            0.55577664631941       -1.53162178815119        1.22590679956478
H            0.01569982182572        0.21779611264373        1.31920711735565
O           -0.71768494734545        0.35127172443224       -1.03582861325113
O           -0.08249639096341       -1.84144904977729       -1.14803669940092
7
 energy: -17.922076063179 gnorm: 0.018573054323 xtb: 6.7.1 (edcfbbe)
C           -0.23303612682252       -0.80848308921338        1.11194821432250
C           -0.37164391778223       -0.74868465894604       -0.85847433234906
Cl          -1.75375015163496       -1.30314396106485        1.60679491456085
H            0.56213875520213       -1.53398192373269        1.25107055958468
H            0.02177786951341        0.22053474880689        1.34505014603815
O           -0.71543783397591        0.35465831427602       -1.06419662613809
O           -0.07733559449991       -1.83980443012595       -1.17642087601904
7
 energy: -17.926343467633 gnorm: 0.036112066232 xtb: 6.7.1 (edcfbbe)
C           -0.23003094808355       -0.81774413376554        1.29700551842779
C           -0.39268584484774       -0.74281771380355       -1.09088282906147
Cl          -1.75631364179166       -1.30441756947192        1.65007135674203
H            0.57812723854830       -1.54479584975090        1.32114163941137
H            0.03316074856205        0.23080332854245        1.41611597871653
O           -0.72198371922318        0.36010667182619       -1.13248807840719
O           -0.07756083316423       -1.84003973357674       -1.24519158582905
7
 energy: -17.928415342915 gnorm: 0.025315275604 xtb: 6.7.1 (edcfbbe)
C           -0.19878117795507       -0.81593099605000        1.43837701747346
C           -0.41250557056553       -0.73947603726745       -1.26837948803417
Cl          -1.76713522074630       -1.30680141281141        1.65671231760206
H            0.59544187305073       -1.54711969883070        1.39763086394315
H            0.04977042755244        0.23419730378152        1.49279455369375
O           -0.74057693815672        0.35699907781776       -1.19463042002335
O           -0.09350039317954       -1.84077323663973       -1.30673284465490
7
 energy: -17.929105360209 gnorm: 0.025454896370 xtb: 6.7.1 (edcfbbe)
C           -0.17516273106695       -0.80875636767261        1.43817895331482
C           -0.41793220602648       -0.74164145622458       -1.26313380338971
Cl          -1.76624886782527       -1.30629014766714        1.64946185956379
H            0.59341315477195       -1.54726802543800        1.42159185815449
H            0.04819134963701        0.23100944351857        1.51566115764592
O           -0.74555083960227        0.34743252843739       -1.21715267020846
O           -0.10399685988800       -1.83339097495364       -1.32883535508084
7
 energy: -17.929513126737 gnorm: 0.010019004258 xtb: 6.7.1 (edcfbbe)
C           -0.17005520547621       -0.80726145498153        1.44880043896708
C           -0.42495520115321       -0.74254262476917       -1.27781839632492
Cl          -1.76059829043999       -1.30477914922622        1.66290517049759
H            0.58918504500193       -1.55818708562283        1.43011656265883
H            0.04123319535611        0.23631163835161        1.52612484834792
O           -0.74455862315643        0.35365563618609       -1.23161942076460
O           -0.09753792013219       -1.83610195993795       -1.34273720338189
7
 energy: -17.929717137677 gnorm: 0.009540850850 xtb: 6.7.1 (edcfbbe)
C           -0.16609137807445       -0.80852686220318        1.46959788103279
C           -0.42785204536156       -0.74348943079520       -1.30280964381119
Cl          -1.75881140741948       -1.30228328584382        1.67955488567289
H            0.58871676767993       -1.56561065768954        1.45080071326157
H            0.03841903490167        0.23985634452941        1.54303874419063
O           -0.74712421129858        0.35640794545736       -1.25404027565614
O           -0.09454376042752       -1.83525905345504       -1.37037030469054
7
 energy: -17.929830026611 gnorm: 0.026764808075 xtb: 6.7.1 (edcfbbe)
C           -0.16449662331791       -0.80508422604780        1.50956331371788
C           -0.43174027300844       -0.73678740643804       -1.35046327679646
Cl          -1.75434701522234       -1.30762443295897        1.71183439424946
H            0.58627792240597       -1.57400906407293        1.48253557786234
H            0.04037541271433        0.24138001131286        1.59014389397374
O           -0.74858735540824        0.35940078364205       -1.31433079522262
O           -0.09476906816336       -1.83618066543716       -1.41351110778434
7
 energy: -17.930077155068 gnorm: 0.005763208240 xtb: 6.7.1 (edcfbbe)
C           -0.16520190158973       -0.81091852992777        1.53148691721557
C           -0.42870941625322       -0.73868327560149       -1.37845585101271
Cl          -1.75661528385706       -1.30292082637954        1.72861785498056
H            0.58974503235766       -1.57023191215588        1.51247358140207
H            0.04305521659855        0.23706649898801        1.60724923340351
O           -0.75417451911752        0.35942922890763       -1.33595917114285
O           -0.09538612813868       -1.83264618383097       -1.44964056484613
7
 energy: -17.930138409815 gnorm: 0.004067426102 xtb: 6.7.1 (edcfbbe)
C           -0.16500185040801       -0.81270806077853        1.55647014007368
C           -0.42909462504405       -0.73771450435511       -1.40813384759302
Cl          -1.75951338225683       -1.30347206925953        1.73885108070961
H            0.59410160227070       -1.56675435469759        1.53495219096759
H            0.04880357353435        0.23429664345307        1.62814085067539
O           -0.75767677592155        0.35823537116229       -1.35971080335543
O           -0.09890554217461       -1.83078802552459       -1.47479761147781
7
 energy: -17.930155640174 gnorm: 0.001392318493 xtb: 6.7.1 (edcfbbe)
C           -0.16626024630436       -0.81348562834942        1.57011220126230
C           -0.42953182064698       -0.73660655117075       -1.42489734080344
Cl          -1.75917628914894       -1.30421508329537        1.75022702459907
H            0.59503678911491       -1.56527997884826        1.55028512591285
H            0.05125539170835        0.23199687214326        1.64429831281279
O           -0.75856892765877        0.35837504629545       -1.38016818394970
O           -0.10004189706421       -1.82968967677491       -1.49408513983386
7
 energy: -17.930159267034 gnorm: 0.001314638394 xtb: 6.7.1 (edcfbbe)
C           -0.16420755136592       -0.81314319536620        1.58217327653621
C           -0.43141718727998       -0.73609930032713       -1.43902906677024
Cl          -1.75899034566082       -1.30450990315412        1.75305081754031
H            0.59661048617857       -1.56590457126691        1.56113000463304
H            0.05316047402242        0.23220153869383        1.65614866909651
O           -0.76063992092757        0.35829068173815       -1.39244976121419
O           -0.10180295496669       -1.82974025031761       -1.50525193982161
7
 energy: -17.930161362220 gnorm: 0.000685733169 xtb: 6.7.1 (edcfbbe)
C           -0.16327289018103       -0.81304944774459        1.58455832159786
C           -0.43253964067672       -0.73637798493681       -1.44190166243915
Cl          -1.75805614439891       -1.30398560575791        1.75269203875664
H            0.59693093349965       -1.56644156098070        1.56493117973891
H            0.05346733235844        0.23243053451801        1.65968947260540
O           -0.76159293852211        0.35830392404427       -1.39552695269200
O           -0.10222365207932       -1.82978485914228       -1.50867039756766
