      -----------------------------------------------------------      
     |                   =====================                   |     
     |                           x T B                           |     
     |                   =====================                   |     
     |                         S. Grimme                         |     
     |          Mulliken Center for Theoretical Chemistry        |     
     |                    University of Bonn                     |     
      -----------------------------------------------------------      

   * xtb version 6.7.1 (edcfbbe) compiled by 'albert@albert-system' on 2024-07-22

   xtb is free software: you can redistribute it and/or modify it under
   the terms of the GNU Lesser General Public License as published by
   the Free Software Foundation, either version 3 of the License, or
   (at your option) any later version.
   
   xtb is distributed in the hope that it will be useful,
   but WITHOUT ANY WARRANTY; without even the implied warranty of
   MERCHANTABILITY or FITNESS FOR A PARTICULAR PURPOSE.  See the
   GNU Lesser General Public License for more details.
   
   Cite this work as:
   * C. Bannwarth, E. Caldeweyher, S. Ehlert, A. Hansen, P. Pracht,
     J. Seibert, S. Spicher, S. Grimme, WIREs Comput. Mol. Sci., 2020, 11,
     e01493. DOI: 10.1002/wcms.1493
   
   for GFN2-xTB:
   * C. Bannwarth, S. Ehlert and S. Grimme., J. Chem. Theory Comput., 2019,
     15, 1652-1671. DOI: 10.1021/acs.jctc.8b01176
   for GFN1-xTB:
   * S. Grimme, C. Bannwarth, P. Shushkov, J. Chem. Theory Comput., 2017,
     13, 1989-2009. DOI: 10.1021/acs.jctc.7b00118
   for GFN0-xTB:
   * P. Pracht, E. Caldeweyher, S. Ehlert, S. Grimme, ChemRxiv, 2019, preprint.
     DOI: 10.26434/chemrxiv.8326202.v1
   for GFN-FF:
   * S. Spicher and S. Grimme, Angew. Chem. Int. Ed., 2020, 59, 15665-15673.
     DOI: 10.1002/anie.202004239
   
   for ALPB and GBSA implicit solvation:
   * S. Ehlert, M. Stahn, S. Spicher, S. Grimme, J. Chem. Theory Comput.,
     2021, 17, 4250-4261. DOI: 10.1021/acs.jctc.1c00471
   
   for ddCOSMO and CPCM-X implicit solvation:
   * M. Stahn, S. Ehlert, S. Grimme, J. Phys. Chem. A,
     2023, XX, XXXX-XXXX. DOI: 10.1021/acs.jpca.3c04382
   
   for DFT-D4:
   * E. Caldeweyher, C. Bannwarth and S. Grimme, J. Chem. Phys., 2017,
     147, 034112. DOI: 10.1063/1.4993215
   * E. Caldeweyher, S. Ehlert, A. Hansen, H. Neugebauer, S. Spicher,
     C. Bannwarth and S. Grimme, J. Chem. Phys., 2019, 150, 154122.
     DOI: 10.1063/1.5090222
   * E. Caldeweyher, J.-M. Mewes, S. Ehlert and S. Grimme, Phys. Chem. Chem. Phys.
     2020, 22, 8499-8512. DOI: 10.1039/D0CP00502A
   
   for sTDA-xTB:
   * S. Grimme and C. Bannwarth, J. Chem. Phys., 2016, 145, 054103.
     DOI: 10.1063/1.4959605
   
   in the mass-spec context:
   * V. Asgeirsson, C. Bauer and S. Grimme, Chem. Sci., 2017, 8, 4879.
     DOI: 10.1039/c7sc00601b
   * J. Koopman and S. Grimme, ACS Omega 2019, 4, 12, 15120-15133.
     DOI: 10.1021/acsomega.9b02011
   
   for metadynamics refer to:
   * S. Grimme, J. Chem. Theory Comput., 2019, 155, 2847-2862
     DOI: 10.1021/acs.jctc.9b00143
   
   for SPH calculations refer to:
   * S. Spicher and S. Grimme, J. Chem. Theory Comput., 2021, 17, 1701-1714
     DOI: 10.1021/acs.jctc.0c01306
   
   for ONIOM refer to:
   * C. Plett, A. Katbashev, S. Ehlert, S. Grimme, M. Bursch,
     Phys. Chem. Chem. Phys., 2023, 25, 17860-17868. DOI: 10.1039/D3CP02178E
   
   for DIPRO refer to:
   * J. Kohn, N. Gildemeister, S. Grimme, D. Fazzi, A. Hansen,
     J. Chem. Phys., 2023, just accepted.
   
   for PTB refer to:
   * S. Grimme, M. Mueller, A. Hansen, J. Chem. Phys., 2023, 158, 124111.
     DOI: 10.1063/5.0137838
   
   with help from (in alphabetical order)
   P. Atkinson, C. Bannwarth, F. Bohle, G. Brandenburg, E. Caldeweyher
   M. Checinski, S. Dohm, S. Ehlert, S. Ehrlich, I. Gerasimov, C. Hölzer
   A. Katbashev, J. Kohn, J. Koopman, C. Lavigne, S. Lehtola, F. März, M. Müller,
   F. Musil, H. Neugebauer, J. Pisarek, C. Plett, P. Pracht, F. Pultar,
   J. Seibert, P. Shushkov, S. Spicher, M. Stahn, M. Steiner, T. Strunk,
   J. Stückrath, T. Rose, and J. Unsleber
   
 * started run on 2025/10/18 at 07:06:21.069     
   ID    Z sym.   atoms
    1   16 S      1
    2    1 H      2

           -------------------------------------------------
          |                Calculation Setup                |
           -------------------------------------------------

          program call               : xtb xyz.xyz --alpb water --charge -1 --ohess
          hostname                   : m003
          coordinate file            : xyz.xyz
          omp threads                :                     2


           -------------------------------------------------
          |                 G F N 2 - x T B                 |
           -------------------------------------------------

        Reference                      10.1021/acs.jctc.8b01176
      * Hamiltonian:
        H0-scaling (s, p, d)           1.850000    2.230000    2.230000
        zeta-weighting                 0.500000
      * Dispersion:
        s8                             2.700000
        a1                             0.520000
        a2                             5.000000
        s9                             5.000000
      * Repulsion:
        kExp                           1.500000    1.000000
        rExp                           1.000000
      * Coulomb:
        alpha                          2.000000
        third order                    shell-resolved
        anisotropic                    true
        a3                             3.000000
        a5                             4.000000
        cn-shift                       1.200000
        cn-exp                         4.000000
        max-rad                        5.000000

      * Solvation model:               ALPB
        Solvent                        water
        Parameter file                 internal GFN2-xTB/ALPB
        Dielectric constant                8.0200E+01
        Reference state                gsolv [1 M gas/solution]
        Free energy shift                  1.0808E-03 Eh       6.7819E-01 kcal/mol
        Temperature                        2.9815E+02 K
        Density                            1.0000E+00 kg/L
        Solvent mass                       1.8000E+01 g/mol
        Interaction kernel             P16
        Born radius scaling (c1)           1.4744E+00
        Born radii integrator          GBOBC
        Born offset                        0.0000E+00 a0       0.0000E+00 AA
        H-bond correction              true
        Ion screening                  false
        Surface tension                    1.0000E-05 Eh       1.5569E+01 dyn/cm
        Grid points                               230 per atom

          ...................................................
          :                      SETUP                      :
          :.................................................:
          :  # basis functions                  11          :
          :  # atomic orbitals                  10          :
          :  # shells                            4          :
          :  # electrons                         8          :
          :  max. iterations                   250          :
          :  Hamiltonian                  GFN2-xTB          :
          :  restarted?                      false          :
          :  GBSA solvation                   true          :
          :  PC potential                    false          :
          :  electronic temp.          300.0000000     K    :
          :  accuracy                    1.0000000          :
          :  -> integral cutoff          0.2500000E+02      :
          :  -> integral neglect         0.1000000E-07      :
          :  -> SCF convergence          0.1000000E-05 Eh   :
          :  -> wf. convergence          0.1000000E-03 e    :
          :  Broyden damping             0.4000000          :
          :  net charge                         -1          :
          :  unpaired electrons                  0          :
          ...................................................

 iter      E             dE          RMSdq      gap      omega  full diag
   1     -4.0612135 -0.406121E+01  0.715E+00    5.97       0.0  T
   2     -4.0620800 -0.866549E-03  0.385E+00    5.64       1.0  T
   3     -4.0624307 -0.350744E-03  0.347E-01    5.22       1.0  T
   4     -4.0624325 -0.176513E-05  0.863E-02    5.21       1.0  T
   5     -4.0624329 -0.437868E-06  0.337E-02    5.21       2.1  T
   6     -4.0624330 -0.100562E-06  0.120E-02    5.22       5.9  T
   7     -4.0624331 -0.999945E-08  0.133E-03    5.21      53.3  T
   8     -4.0624331 -0.801803E-10  0.576E-04    5.21     122.7  T
   9     -4.0624331 -0.646736E-10  0.315E-06    5.21   22445.8  T

   *** convergence criteria satisfied after 9 iterations ***

         #    Occupation            Energy/Eh            Energy/eV
      -------------------------------------------------------------
         1        2.0000           -0.6299555             -17.1420
         2        2.0000           -0.4250486             -11.5662
         3        2.0000           -0.2953475              -8.0368
         4        2.0000           -0.2953475              -8.0368 (HOMO)
         5                         -0.1037267              -2.8225 (LUMO)
         6                          0.0340863               0.9275
         7                          0.0340863               0.9275
         8                          0.0532032               1.4477
         9                          0.0532032               1.4477
        10                          0.4955490              13.4846
      -------------------------------------------------------------
                  HL-Gap            0.1916208 Eh            5.2143 eV
             Fermi-level           -0.1995371 Eh           -5.4297 eV

 SCC (total)                   0 d,  0 h,  0 min,  0.024 sec
 SCC setup                      ...        0 min,  0.000 sec (  0.737%)
 Dispersion                     ...        0 min,  0.000 sec (  0.137%)
 classical contributions        ...        0 min,  0.000 sec (  0.091%)
 integral evaluation            ...        0 min,  0.022 sec ( 92.669%)
 iterations                     ...        0 min,  0.001 sec (  5.360%)
 molecular gradient             ...        0 min,  0.000 sec (  0.600%)
 printout                       ...        0 min,  0.000 sec (  0.296%)

         :::::::::::::::::::::::::::::::::::::::::::::::::::::
         ::                     SUMMARY                     ::
         :::::::::::::::::::::::::::::::::::::::::::::::::::::
         :: total energy              -4.052893465521 Eh    ::
         :: total w/o Gsasa/hb        -4.057108657193 Eh    ::
         :: gradient norm              0.005168238826 Eh/a0 ::
         :: HOMO-LUMO gap              5.214268724515 eV    ::
         ::.................................................::
         :: SCC energy                -4.062433059249 Eh    ::
         :: -> isotropic ES            0.162813589284 Eh    ::
         :: -> anisotropic ES         -0.001380778417 Eh    ::
         :: -> anisotropic XC          0.002913414588 Eh    ::
         :: -> dispersion             -0.000240701729 Eh    ::
         :: -> Gsolv                  -0.102868880982 Eh    ::
         ::    -> Gelec               -0.107084072654 Eh    ::
         ::    -> Gsasa                0.003340220125 Eh    ::
         ::    -> Ghb                 -0.000205788151 Eh    ::
         ::    -> Gshift               0.001080759698 Eh    ::
         :: repulsion energy           0.009539593727 Eh    ::
         :: add. restraining           0.000000000000 Eh    ::
         :: total charge              -1.000000000000 e     ::
         :::::::::::::::::::::::::::::::::::::::::::::::::::::

      ----------------------------------------------------------- 
     |                   =====================                   |
     |                        A N C O P T                        |
     |                   =====================                   |
     |               Approximate Normal Coordinate               |
     |                Rational Function Optimizer                |
      ----------------------------------------------------------- 
      ----------------------------------------------------------- 
     |                   =====================                   |
     |                        A N C O P T                        |
     |                   =====================                   |
     |               Approximate Normal Coordinate               |
     |                Rational Function Optimizer                |
      ----------------------------------------------------------- 

          ...................................................
          :                      SETUP                      :
          :.................................................:
          :   optimization level            normal          :
          :   max. optcycles                   200          :
          :   ANC micro-cycles                  20          :
          :   degrees of freedom                 1          :
          :.................................................:
          :   RF solver                   davidson          :
          :   write xtbopt.log                true          :
          :   linear (good luck)              true          :
          :   energy convergence         0.5000000E-05 Eh   :
          :   grad. convergence          0.1000000E-02 Eh/α :
          :   maxmium RF displ.          1.0000000          :
          :   Hlow (freq-cutoff)         0.1000000E-01      :
          :   Hmax (freq-cutoff)         5.0000000          :
          :   S6 in model hess.         20.0000000          :
          ...................................................

generating ANC from exact Hessian ...
Using Lindh-Hessian (1995)
 Shifting diagonal of input Hessian by   0.000000000000000E+000
 Lowest  eigenvalues of input Hessian
    0.000000    0.000000    0.000000    0.000000    0.000000    0.825115
 Highest eigenvalues
    0.000000    0.000000    0.000000    0.000000    0.000000    0.825115
 

........................................................................
.............................. CYCLE    1 ..............................
........................................................................

 iter      E             dE          RMSdq      gap      omega  full diag
   1     -4.0624331 -0.406243E+01  0.273E-06    5.21       0.0  T
   2     -4.0624331  0.000000E+00  0.153E-06    5.21   46227.1  T
   3     -4.0624331 -0.266454E-14  0.672E-07    5.21  100000.0  T
     SCC iter.                  ...        0 min,  0.000 sec
     gradient                   ...        0 min,  0.000 sec
 * total energy  :    -4.0528935 Eh     change       -0.6217249E-14 Eh
   gradient norm :     0.0051682 Eh/α   predicted     0.0000000E+00 (-100.00%)
   displ. norm   :     0.0062634 α      lambda       -0.3237126E-04
   maximum displ.:     0.0062634 α      in ANC's #1, #1, #1, ...

........................................................................
.............................. CYCLE    2 ..............................
........................................................................

 iter      E             dE          RMSdq      gap      omega  full diag
   1     -4.0621002 -0.406210E+01  0.476E-02    5.18       0.0  T
   2     -4.0621003 -0.109002E-06  0.233E-02    5.18       3.0  T
   3     -4.0621004 -0.483028E-07  0.717E-03    5.18       9.9  T
   4     -4.0621004 -0.818500E-08  0.315E-03    5.18      22.4  T
   5     -4.0621004 -0.101514E-08  0.237E-04    5.18     298.9  T
   6     -4.0621004 -0.618527E-11  0.883E-05    5.18     801.0  T
     SCC iter.                  ...        0 min,  0.000 sec
     gradient                   ...        0 min,  0.000 sec
 * total energy  :    -4.0529173 Eh     change       -0.2388203E-04 Eh
   gradient norm :     0.0024719 Eh/α   predicted    -0.1618586E-04 ( -32.23%)
   displ. norm   :     0.0057417 α      lambda       -0.1419561E-04
   maximum displ.:     0.0057417 α      in ANC's #1, #1, #1, ...

........................................................................
.............................. CYCLE    3 ..............................
........................................................................

 iter      E             dE          RMSdq      gap      omega  full diag
   1     -4.0617920 -0.406179E+01  0.437E-02    5.15       0.0  T
   2     -4.0617921 -0.920079E-07  0.214E-02    5.15       3.3  T
   3     -4.0617921 -0.409645E-07  0.664E-03    5.15      10.6  T
   4     -4.0617921 -0.707885E-08  0.292E-03    5.15      24.2  T
   5     -4.0617921 -0.867943E-09  0.217E-04    5.15     326.1  T
   6     -4.0617921 -0.521183E-11  0.768E-05    5.15     920.6  T
     SCC iter.                  ...        0 min,  0.000 sec
     gradient                   ...        0 min,  0.000 sec
 * total energy  :    -4.0529246 Eh     change       -0.7270972E-05 Eh
   gradient norm :     0.0000725 Eh/α   predicted    -0.7096544E-05 (  -2.40%)
   displ. norm   :     0.0002604 α      lambda       -0.1001184E-07
   maximum displ.:     0.0002604 α      in ANC's #1, #1, #1, ...

........................................................................
.............................. CYCLE    4 ..............................
........................................................................

 iter      E             dE          RMSdq      gap      omega  full diag
   1     -4.0617781 -0.406178E+01  0.198E-03    5.15       0.0  T
   2     -4.0617781 -0.189425E-09  0.971E-04    5.15      72.8  T
   3     -4.0617781 -0.851150E-10  0.304E-04    5.15     232.2  T
     SCC iter.                  ...        0 min,  0.000 sec
     gradient                   ...        0 min,  0.000 sec
 * total energy  :    -4.0529246 Eh     change       -0.4876181E-08 Eh
   gradient norm :     0.0000349 Eh/α   predicted    -0.6296181E-08 (  29.12%)
   displ. norm   :     0.0000845 α      lambda        0.1775911E-08
   maximum displ.:     0.0000845 α      in ANC's #1, #1, #1, ...

   *** GEOMETRY OPTIMIZATION CONVERGED AFTER 4 ITERATIONS ***

------------------------------------------------------------------------
 total energy gain   :        -0.0000312 Eh       -0.0196 kcal/mol
 total RMSD          :         0.0086730 a0        0.0046 Å
 total power (kW/mol):        -0.0204512 (step)  -25.6842 (real)
------------------------------------------------------------------------

 ANCopt (total)                0 d,  0 h,  0 min,  0.003 sec
 optimizer setup                ...        0 min,  0.000 sec (  5.472%)
 model hessian                  ...        0 min,  0.000 sec (  0.686%)
 ANC generation                 ...        0 min,  0.000 sec (  1.253%)
 coordinate transformation      ...        0 min,  0.000 sec (  0.805%)
 single point calculation       ...        0 min,  0.003 sec ( 78.819%)
 optimization log               ...        0 min,  0.000 sec (  3.280%)
 hessian update                 ...        0 min,  0.000 sec (  0.678%)
 rational function              ...        0 min,  0.000 sec (  2.788%)

================
 final structure:
================
2
 xtb: 6.7.1 (edcfbbe)
S           -4.92565894109966       -3.62353579024221        0.85473390058397
H           -6.03836105890034       -4.31486620975779        1.13588809941603
 
 Bond Distances (Angstroems)
 ---------------------------
S1-H2=1.3398         H2-S1=1.3398         
 S  H  Rav=1.3398 sigma=0.0000  Rmin=1.3398  Rmax=1.3398     1
 
 selected bond angles (degree)
 --------------------

 
 selected dihedral angles (degree)
 ---------------------------------

           -------------------------------------------------
          |                Final Singlepoint                |
           -------------------------------------------------

          ...................................................
          :                      SETUP                      :
          :.................................................:
          :  # basis functions                  11          :
          :  # atomic orbitals                  10          :
          :  # shells                            4          :
          :  # electrons                         8          :
          :  max. iterations                   250          :
          :  Hamiltonian                  GFN2-xTB          :
          :  restarted?                      false          :
          :  GBSA solvation                   true          :
          :  PC potential                    false          :
          :  electronic temp.          300.0000000     K    :
          :  accuracy                    1.0000000          :
          :  -> integral cutoff          0.2500000E+02      :
          :  -> integral neglect         0.1000000E-07      :
          :  -> SCF convergence          0.1000000E-05 Eh   :
          :  -> wf. convergence          0.1000000E-03 e    :
          :  Broyden damping             0.4000000          :
          :  net charge                         -1          :
          :  unpaired electrons                  0          :
          ...................................................

 iter      E             dE          RMSdq      gap      omega  full diag
   1     -4.0617781 -0.406178E+01  0.133E-04    5.15       0.0  T
   2     -4.0617781 -0.816236E-12  0.958E-05    5.15     738.3  T
   3     -4.0617781 -0.892619E-12  0.277E-05    5.15    2548.7  T

   *** convergence criteria satisfied after 3 iterations ***

         #    Occupation            Energy/Eh            Energy/eV
      -------------------------------------------------------------
         1        2.0000           -0.6299926             -17.1430
         2        2.0000           -0.4252656             -11.5721
         3        2.0000           -0.2957649              -8.0482
         4        2.0000           -0.2957649              -8.0482 (HOMO)
         5                         -0.1064465              -2.8966 (LUMO)
         6                          0.0341278               0.9287
         7                          0.0341278               0.9287
         8                          0.0531933               1.4475
         9                          0.0531933               1.4475
        10                          0.4776875              12.9985
      -------------------------------------------------------------
                  HL-Gap            0.1893184 Eh            5.1516 eV
             Fermi-level           -0.2011057 Eh           -5.4724 eV

 SCC (total)                   0 d,  0 h,  0 min,  0.001 sec
 SCC setup                      ...        0 min,  0.000 sec ( 15.770%)
 Dispersion                     ...        0 min,  0.000 sec (  1.842%)
 classical contributions        ...        0 min,  0.000 sec (  1.105%)
 integral evaluation            ...        0 min,  0.000 sec ( 23.324%)
 iterations                     ...        0 min,  0.000 sec ( 31.503%)
 molecular gradient             ...        0 min,  0.000 sec ( 15.586%)
 printout                       ...        0 min,  0.000 sec (  7.111%)

         :::::::::::::::::::::::::::::::::::::::::::::::::::::
         ::                     SUMMARY                     ::
         :::::::::::::::::::::::::::::::::::::::::::::::::::::
         :: total energy              -4.052924623415 Eh    ::
         :: total w/o Gsasa/hb        -4.057158967017 Eh    ::
         :: gradient norm              0.000038437482 Eh/a0 ::
         :: HOMO-LUMO gap              5.151616773901 eV    ::
         ::.................................................::
         :: SCC energy                -4.061778068540 Eh    ::
         :: -> isotropic ES            0.162454378067 Eh    ::
         :: -> anisotropic ES         -0.001299147302 Eh    ::
         :: -> anisotropic XC          0.002953392006 Eh    ::
         :: -> dispersion             -0.000243875263 Eh    ::
         :: -> Gsolv                  -0.102889627005 Eh    ::
         ::    -> Gelec               -0.107123970607 Eh    ::
         ::    -> Gsasa                0.003337823941 Eh    ::
         ::    -> Ghb                 -0.000184240037 Eh    ::
         ::    -> Gshift               0.001080759698 Eh    ::
         :: repulsion energy           0.008853445125 Eh    ::
         :: add. restraining           0.000000000000 Eh    ::
         :: total charge              -1.000000000000 e     ::
         :::::::::::::::::::::::::::::::::::::::::::::::::::::

           ------------------------------------------------- 
          |                Numerical Hessian                |
           ------------------------------------------------- 
step length          :   0.00500
SCC accuracy         :   0.30000
Hessian scale factor :   1.00000
frozen atoms in %    :   0.00000    0
RMS gradient         :   0.00004

writing file <hessian>.

 vibrational frequencies (cm⁻¹)
eigval :        0.00     0.00     0.00     0.00     0.00  2358.42
           -------------------------------------------------
          |                Property Printout                |
           -------------------------------------------------

    * Orbital Energies and Occupations

         #    Occupation            Energy/Eh            Energy/eV
      -------------------------------------------------------------
         1        2.0000           -0.6299927             -17.1430
         2        2.0000           -0.4252656             -11.5721
         3        2.0000           -0.2957649              -8.0482
         4        2.0000           -0.2957649              -8.0482 (HOMO)
         5                         -0.1064465              -2.8966 (LUMO)
         6                          0.0341278               0.9287
         7                          0.0341278               0.9287
         8                          0.0531933               1.4475
         9                          0.0531933               1.4475
        10                          0.4776874              12.9985
      -------------------------------------------------------------
                  HL-Gap            0.1893184 Eh            5.1516 eV
             Fermi-level           -0.2011057 Eh           -5.4724 eV

     #   Z          covCN         q      C6AA      α(0)
     1  16 S        0.922    -1.045   191.045    23.378
     2   1 H        0.922     0.045     2.384     2.415

 Mol. C6AA /au·bohr⁶  :        236.028186
 Mol. C8AA /au·bohr⁸  :      10425.010831
 Mol. α(0) /au        :         25.793251


Wiberg/Mayer (AO) data.
largest (>0.10) Wiberg bond orders for each atom

 ---------------------------------------------------------------------------
     #   Z sym  total        # sym  WBO       # sym  WBO       # sym  WBO
 ---------------------------------------------------------------------------
     1  16 S    0.998 --     2 H    0.998
     2   1 H    0.998 --     1 S    0.998
 ---------------------------------------------------------------------------

Topologies differ in total number of bonds
Writing topology from bond orders to xtbtopo.mol

molecular dipole:
                 x           y           z       tot (Debye)
 q only:        9.214       6.789      -1.591
   full:        9.056       6.691      -1.551      28.889
molecular quadrupole (traceless):
                xx          xy          yy          xz          yz          zz
 q only:      -60.421     -93.629      -2.405      21.915      16.156      62.826
  q+dip:      -58.078     -90.470      -2.622      20.907      15.466      60.700
   full:      -57.599     -89.895      -2.712      20.673      15.321      60.311

           -------------------------------------------------
          |                Geometry Summary                 |
           -------------------------------------------------

      molecular mass/u    :       33.0727282
   center of mass at/Å    :       -4.9595867      -3.6445780       0.8633262
  moments of inertia/u·Å² :        0.3492870E-16   0.1754204E+01   0.1754204E+01
rotational constants/cm⁻¹ :        0.4826298E+18   0.9609849E+01   0.9609849E+01

 * 1 selected distances

     #   Z          #   Z                                           value/Å
     0   0          0   0                                         0.0000000 (max)

 * 0 distinct bonds (by element types)

   Z      Z             #   av. dist./Å        max./Å        min./Å

           -------------------------------------------------
          |               Frequency Printout                |
           -------------------------------------------------
 vibrational frequencies (cm⁻¹)
eigval :        0.00     0.00     0.00     0.00     0.00  2358.42
 reduced masses (amu)
   1:  1.95   2: 31.12   3: 31.12   4: 31.12   5:  1.95   6:  1.95
 IR intensities (km·mol⁻¹)
   1: 22.59   2: 29.48   3: 29.48   4: 29.48   5: 22.59   6:404.41
 Raman intensities (Ä⁴*amu⁻¹)
   1:  0.00   2:  0.00   3:  0.00   4:  0.00   5:  0.00   6:  0.00
 output can be read by thermo (or use thermo option).
 writing <g98.out> molden fake output.
 recommended (thermochemical) frequency scaling factor: 1.0
           -------------------------------------------------
          |             Thermodynamic Functions             |
           -------------------------------------------------

Molecule has the following symmetry elements: (Cinf) (sigma) 
It seems to be the Cinfv point group
cin symmetry found (for desy threshold:  0.10E+00) used in thermo

          ...................................................
          :                      SETUP                      :
          :.................................................:
          :  # frequencies                           1      :
          :  # imaginary freq.                       0      :
          :  linear?                              true      :
          :  only rotor calc.                    false      :
          :  symmetry                              cin      :
          :  rotational number                       1      :
          :  scaling factor                  1.0000000      :
          :  rotor cutoff                   50.0000000 cm⁻¹ :
          :  imag. cutoff                  -20.0000000 cm⁻¹ :
          :.................................................:

    mode    ω/cm⁻¹     T·S(HO)/kcal·mol⁻¹    T·S(FR)/kcal·mol⁻¹   T·S(vib)
   ------------------------------------------------------------------------
   ------------------------------------------------------------------------

   temp. (K)  partition function   enthalpy   heat capacity  entropy
                                   cal/mol     cal/K/mol   cal/K/mol   J/K/mol
 298.15  VIB   1.00                    0.077      0.003      0.000
         ROT   21.6                  592.502      1.987      8.090
         INT   21.6                  592.579      1.990      8.090
         TR   0.184E+27             1481.254      4.968     36.403
         TOT                        2073.8324     6.9583    44.4938   186.1621

       T/K    H(0)-H(T)+PV         H(T)/Eh          T*S/Eh         G(T)/Eh
   ------------------------------------------------------------------------
    298.15    0.330486E-02    0.867775E-02    0.211404E-01   -0.124627E-01
   ------------------------------------------------------------------------

         :::::::::::::::::::::::::::::::::::::::::::::::::::::
         ::                  THERMODYNAMIC                  ::
         :::::::::::::::::::::::::::::::::::::::::::::::::::::
         :: total free energy          -4.065387317330 Eh   ::
         ::.................................................::
         :: total energy               -4.052924623601 Eh   ::
         :: zero point energy           0.005372884602 Eh   ::
         :: G(RRHO) w/o ZPVE           -0.017835578332 Eh   ::
         :: G(RRHO) contrib.           -0.012462693730 Eh   ::
         :::::::::::::::::::::::::::::::::::::::::::::::::::::

optimized geometry written to: xtbopt.xyz


           -------------------------------------------------
          | TOTAL ENERGY               -4.052924623601 Eh   |
          | TOTAL ENTHALPY             -4.044246876652 Eh   |
          | TOTAL FREE ENERGY          -4.065387317330 Eh   |
          | GRADIENT NORM               0.000038417050 Eh/α |
          | HOMO-LUMO GAP               5.151616519022 eV   |
           -------------------------------------------------

------------------------------------------------------------------------
 * finished run on 2025/10/18 at 07:06:21.281     
------------------------------------------------------------------------
 total:
 * wall-time:     0 d,  0 h,  0 min,  0.211 sec
 *  cpu-time:     0 d,  0 h,  0 min,  0.225 sec
 * ratio c/w:     1.066 speedup
 SCF:
 * wall-time:     0 d,  0 h,  0 min,  0.024 sec
 *  cpu-time:     0 d,  0 h,  0 min,  0.028 sec
 * ratio c/w:     1.163 speedup
 ANC optimizer:
 * wall-time:     0 d,  0 h,  0 min,  0.048 sec
 *  cpu-time:     0 d,  0 h,  0 min,  0.052 sec
 * ratio c/w:     1.096 speedup
 analytical hessian:
 * wall-time:     0 d,  0 h,  0 min,  0.017 sec
 *  cpu-time:     0 d,  0 h,  0 min,  0.022 sec
 * ratio c/w:     1.294 speedup

