2
 energy: -4.052893465521 gnorm: 0.005168232601 xtb: 6.7.1 (edcfbbe)
S           -4.92947052524758       -3.62590395691130        0.85569700011461
H           -6.03454947475242       -4.31249804308870        1.13492499988539
2
 energy: -4.052917347550 gnorm: 0.002471904233 xtb: 6.7.1 (edcfbbe)
S           -4.92752413289242       -3.62469464830848        0.85520519159329
H           -6.03649586710758       -4.31370735169152        1.13541680840671
2
 energy: -4.052924618522 gnorm: 0.000074338995 xtb: 6.7.1 (edcfbbe)
S           -4.92573985869501       -3.62358606496915        0.85475434659673
H           -6.03828014130499       -4.31481593503085        1.13586765340327
2
 energy: -4.052924623398 gnorm: 0.000038484712 xtb: 6.7.1 (edcfbbe)
S           -4.92565894109966       -3.62353579024221        0.85473390058397
H           -6.03836105890034       -4.31486620975779        1.13588809941603
