2
 energy: -4.052924623415 gnorm: 0.000038437482 xtb: 6.7.1 (edcfbbe)
S           -4.92567493017711       -3.62350850772066        0.85475741863375
H           -6.03837968633330       -4.31483261042954        1.13591670812597
