
                                 *****************
                                 * O   R   C   A *
                                 *****************

                                            #,                                       
                                            ###                                      
                                            ####                                     
                                            #####                                    
                                            ######                                   
                                           ########,                                 
                                     ,,################,,,,,                         
                               ,,#################################,,                 
                          ,,##########################################,,             
                       ,#########################################, ''#####,          
                    ,#############################################,,   '####,        
                  ,##################################################,,,,####,       
                ,###########''''           ''''###############################       
              ,#####''   ,,,,##########,,,,          '''####'''          '####       
            ,##' ,,,,###########################,,,                        '##       
           ' ,,###''''                  '''############,,,                           
         ,,##''                                '''############,,,,        ,,,,,,###''
      ,#''                                            '''#######################'''  
     '                                                          ''''####''''         
             ,#######,   #######,   ,#######,      ##                                
            ,#'     '#,  ##    ##  ,#'     '#,    #''#        ######   ,####,        
            ##       ##  ##   ,#'  ##            #'  '#       #        #'  '#        
            ##       ##  #######   ##           ,######,      #####,   #    #        
            '#,     ,#'  ##    ##  '#,     ,#' ,#      #,         ##   #,  ,#        
             '#######'   ##     ##  '#######'  #'      '#     #####' # '####'        



                  #######################################################
                  #                        -***-                        #
                  #          Department of theory and spectroscopy      #
                  #    Directorship and core code : Frank Neese         #
                  #        Max Planck Institute fuer Kohlenforschung    #
                  #                Kaiser Wilhelm Platz 1               #
                  #                 D-45470 Muelheim/Ruhr               #
                  #                      Germany                        #
                  #                                                     #
                  #                  All rights reserved                #
                  #                        -***-                        #
                  #######################################################


                         Program Version 5.0.4 -  RELEASE  -


 With contributions from (in alphabetic order):
   Daniel Aravena         : Magnetic Suceptibility
   Michael Atanasov       : Ab Initio Ligand Field Theory (pilot matlab implementation)
   Alexander A. Auer      : GIAO ZORA, VPT2 properties, NMR spectrum
   Ute Becker             : Parallelization
   Giovanni Bistoni       : ED, misc. LED, open-shell LED, HFLD
   Martin Brehm           : Molecular dynamics
   Dmytro Bykov           : SCF Hessian
   Vijay G. Chilkuri      : MRCI spin determinant printing, contributions to CSF-ICE
   Dipayan Datta          : RHF DLPNO-CCSD density
   Achintya Kumar Dutta   : EOM-CC, STEOM-CC
   Dmitry Ganyushin       : Spin-Orbit,Spin-Spin,Magnetic field MRCI
   Miquel Garcia          : C-PCM and meta-GGA Hessian, CC/C-PCM, Gaussian charge scheme
   Yang Guo               : DLPNO-NEVPT2, F12-NEVPT2, CIM, IAO-localization
   Andreas Hansen         : Spin unrestricted coupled pair/coupled cluster methods
   Benjamin Helmich-Paris : MC-RPA, TRAH-SCF, COSX integrals
   Lee Huntington         : MR-EOM, pCC
   Robert Izsak           : Overlap fitted RIJCOSX, COSX-SCS-MP3, EOM
   Marcus Kettner         : VPT2
   Christian Kollmar      : KDIIS, OOCD, Brueckner-CCSD(T), CCSD density, CASPT2, CASPT2-K
   Simone Kossmann        : Meta GGA functionals, TD-DFT gradient, OOMP2, MP2 Hessian
   Martin Krupicka        : Initial AUTO-CI
   Lucas Lang             : DCDCAS
   Marvin Lechner         : AUTO-CI (C++ implementation), FIC-MRCC
   Dagmar Lenk            : GEPOL surface, SMD
   Dimitrios Liakos       : Extrapolation schemes; Compound Job, initial MDCI parallelization
   Dimitrios Manganas     : Further ROCIS development; embedding schemes
   Dimitrios Pantazis     : SARC Basis sets
   Anastasios Papadopoulos: AUTO-CI, single reference methods and gradients
   Taras Petrenko         : DFT Hessian,TD-DFT gradient, ASA, ECA, R-Raman, ABS, FL, XAS/XES, NRVS
   Peter Pinski           : DLPNO-MP2, DLPNO-MP2 Gradient
   Christoph Reimann      : Effective Core Potentials
   Marius Retegan         : Local ZFS, SOC
   Christoph Riplinger    : Optimizer, TS searches, QM/MM, DLPNO-CCSD(T), (RO)-DLPNO pert. Triples
   Tobias Risthaus        : Range-separated hybrids, TD-DFT gradient, RPA, STAB
   Michael Roemelt        : Original ROCIS implementation
   Masaaki Saitow         : Open-shell DLPNO-CCSD energy and density
   Barbara Sandhoefer     : DKH picture change effects
   Avijit Sen             : IP-ROCIS
   Kantharuban Sivalingam : CASSCF convergence, NEVPT2, FIC-MRCI
   Bernardo de Souza      : ESD, SOC TD-DFT
   Georgi Stoychev        : AutoAux, RI-MP2 NMR, DLPNO-MP2 response
   Willem Van den Heuvel  : Paramagnetic NMR
   Boris Wezisla          : Elementary symmetry handling
   Frank Wennmohs         : Technical directorship


 We gratefully acknowledge several colleagues who have allowed us to
 interface, adapt or use parts of their codes:
   Stefan Grimme, W. Hujo, H. Kruse, P. Pracht,  : VdW corrections, initial TS optimization,
                  C. Bannwarth, S. Ehlert          DFT functionals, gCP, sTDA/sTD-DF
   Ed Valeev, F. Pavosevic, A. Kumar             : LibInt (2-el integral package), F12 methods
   Garnet Chan, S. Sharma, J. Yang, R. Olivares  : DMRG
   Ulf Ekstrom                                   : XCFun DFT Library
   Mihaly Kallay                                 : mrcc  (arbitrary order and MRCC methods)
   Jiri Pittner, Ondrej Demel                    : Mk-CCSD
   Frank Weinhold                                : gennbo (NPA and NBO analysis)
   Christopher J. Cramer and Donald G. Truhlar   : smd solvation model
   Lars Goerigk                                  : TD-DFT with DH, B97 family of functionals
   V. Asgeirsson, H. Jonsson                     : NEB implementation
   FAccTs GmbH                                   : IRC, NEB, NEB-TS, DLPNO-Multilevel, CI-OPT
                                                   MM, QMMM, 2- and 3-layer-ONIOM, Crystal-QMMM,
                                                   LR-CPCM, SF, NACMEs, symmetry and pop. for TD-DFT,
                                                   nearIR, NL-DFT gradient (VV10), updates on ESD,
                                                   ML-optimized integration grids
   S Lehtola, MJT Oliveira, MAL Marques          : LibXC Library
   Liviu Ungur et al                             : ANISO software


 Your calculation uses the libint2 library for the computation of 2-el integrals
 For citations please refer to: http://libint.valeyev.net

 Your ORCA version has been built with support for libXC version: 5.1.0
 For citations please refer to: https://tddft.org/programs/libxc/

 This ORCA versions uses:
   CBLAS   interface :  Fast vector & matrix operations
   LAPACKE interface :  Fast linear algebra routines
   SCALAPACK package :  Parallel linear algebra routines
   Shared memory     :  Shared parallel matrices
   BLAS/LAPACK       :  OpenBLAS 0.3.15  USE64BITINT DYNAMIC_ARCH NO_AFFINITY Haswell SINGLE_THREADED
        Core in use  :  Haswell
   Copyright (c) 2011-2014, The OpenBLAS Project


Your calculation utilizes the atom-pairwise dispersion correction
with the Becke-Johnson damping scheme (D3BJ)
Cite in your paper:
S.Grimme, S.Ehrlich, L.Goerigk, J Comput Chem, (2011), 32, 1456–1465 
S.Grimme, J.Antony, S.Ehrlich and H.Krieg, J.Chem.Phys., 132, (2010), 154104 
   

================================================================================

----- Orbital basis set information -----
Your calculation utilizes the basis: def2-TZVP
   F. Weigend and R. Ahlrichs, Phys. Chem. Chem. Phys. 7, 3297 (2005).

----- AuxJ basis set information -----
Your calculation utilizes the auxiliary basis: def2/J
   F. Weigend, Phys. Chem. Chem. Phys. 8, 1057 (2006).

================================================================================
                                        WARNINGS
                       Please study these warnings very carefully!
================================================================================


WARNING: Geometry Optimization
  ===> : Switching off AutoStart
         For restart on a previous wavefunction, please use MOREAD

INFO   : the flag for use of the SHARK integral package has been found!

================================================================================
                                       INPUT FILE
================================================================================
NAME = inp.inp
|  1> !OPT PBE D3BJ def2-TZVP CPCM(water)
|  2> 
|  3> *xyz -1 1
|  4> C     -5.778971   -2.765407    2.583048
|  5> Cl    -4.365028   -1.796000    2.521407
|  6> Cl    -6.201740   -3.751701    1.244662
|  7> Cl    -6.770172   -2.748483    3.983055
|  8> *
|  9> 
| 10>                          ****END OF INPUT****
================================================================================

                       *****************************
                       * Geometry Optimization Run *
                       *****************************

Geometry optimization settings:
Update method            Update   .... BFGS
Choice of coordinates    CoordSys .... Z-matrix Internals
Initial Hessian          InHess   .... Almoef's Model

Convergence Tolerances:
Energy Change            TolE     ....  5.0000e-06 Eh
Max. Gradient            TolMAXG  ....  3.0000e-04 Eh/bohr
RMS Gradient             TolRMSG  ....  1.0000e-04 Eh/bohr
Max. Displacement        TolMAXD  ....  4.0000e-03 bohr
RMS Displacement         TolRMSD  ....  2.0000e-03 bohr
Strict Convergence                ....  False
------------------------------------------------------------------------------
                        ORCA OPTIMIZATION COORDINATE SETUP
------------------------------------------------------------------------------

The optimization will be done in new redundant internal coordinates
Making redundant internal coordinates   ...  (new redundants) done
Evaluating the initial hessian          ...  (Almloef) done
Evaluating the coordinates              ...  done
Calculating the B-matrix                .... done
Calculating the G-matrix                .... done
Diagonalizing the G-matrix              .... done
The first mode is                       ....    1
The number of degrees of freedom        ....    6

    -----------------------------------------------------------------
                    Redundant Internal Coordinates


    -----------------------------------------------------------------
         Definition                    Initial Value    Approx d2E/dq
    -----------------------------------------------------------------
      1. B(Cl  1,C   0)                  1.7155         0.424124   
      2. B(Cl  2,C   0)                  1.7155         0.424123   
      3. B(Cl  3,C   0)                  1.7155         0.424123   
      4. A(Cl  1,C   0,Cl  3)          120.0000         0.414065   
      5. A(Cl  2,C   0,Cl  3)          120.0000         0.414064   
      6. A(Cl  1,C   0,Cl  2)          120.0000         0.414064   
      7. I(Cl  1,Cl  3,Cl  2,C   0)     -0.0017         0.056211   
    -----------------------------------------------------------------

Number of atoms                         .... 4
Number of degrees of freedom            .... 7

         *************************************************************
         *                GEOMETRY OPTIMIZATION CYCLE   1            *
         *************************************************************
---------------------------------
CARTESIAN COORDINATES (ANGSTROEM)
---------------------------------
  C     -5.778971   -2.765407    2.583048
  Cl    -4.365028   -1.796000    2.521407
  Cl    -6.201740   -3.751701    1.244662
  Cl    -6.770172   -2.748483    3.983055

----------------------------
CARTESIAN COORDINATES (A.U.)
----------------------------
  NO LB      ZA    FRAG     MASS         X           Y           Z
   0 C     6.0000    0    12.011  -10.920673   -5.225862    4.881253
   1 Cl   17.0000    0    35.453   -8.248707   -3.393948    4.764769
   2 Cl   17.0000    0    35.453  -11.719590   -7.089687    2.352070
   3 Cl   17.0000    0    35.453  -12.793771   -5.193880    7.526883

--------------------------------
INTERNAL COORDINATES (ANGSTROEM)
--------------------------------
 C      0   0   0     0.000000000000     0.00000000     0.00000000
 Cl     1   0   0     1.715454561269     0.00000000     0.00000000
 Cl     1   2   0     1.715455206875   119.99998639     0.00000000
 Cl     1   2   3     1.715454879682   120.00001920   180.00192718

---------------------------
INTERNAL COORDINATES (A.U.)
---------------------------
 C      0   0   0     0.000000000000     0.00000000     0.00000000
 Cl     1   0   0     3.241739315985     0.00000000     0.00000000
 Cl     1   2   0     3.241740536002   119.99998639     0.00000000
 Cl     1   2   3     3.241739917698   120.00001920   180.00192718

---------------------
BASIS SET INFORMATION
---------------------
There are 2 groups of distinct atoms

 Group   1 Type C   : 11s6p2d1f contracted to 5s3p2d1f pattern {62111/411/11/1}
 Group   2 Type Cl  : 14s9p3d1f contracted to 5s5p2d1f pattern {73211/51111/21/1}

Atom   0C    basis set group =>   1
Atom   1Cl   basis set group =>   2
Atom   2Cl   basis set group =>   2
Atom   3Cl   basis set group =>   2
---------------------------------
AUXILIARY/J BASIS SET INFORMATION
---------------------------------
There are 2 groups of distinct atoms

 Group   1 Type C   : 12s5p4d2f1g contracted to 6s4p3d1f1g pattern {711111/2111/211/2/1}
 Group   2 Type Cl  : 14s5p5d2f1g contracted to 8s4p3d1f1g pattern {71111111/2111/311/2/1}

Atom   0C    basis set group =>   1
Atom   1Cl   basis set group =>   2
Atom   2Cl   basis set group =>   2
Atom   3Cl   basis set group =>   2
------------------------------------------------------------------------------
                           ORCA GTO INTEGRAL CALCULATION
                           -- RI-GTO INTEGRALS CHOSEN --
------------------------------------------------------------------------------
------------------------------------------------------------------------------
                   ___                                                        
                  /   \      - P O W E R E D   B Y -                         
                 /     \                                                     
                 |  |  |   _    _      __       _____    __    __             
                 |  |  |  | |  | |    /  \     |  _  \  |  |  /  |          
                  \  \/   | |  | |   /    \    | | | |  |  | /  /          
                 / \  \   | |__| |  /  /\  \   | |_| |  |  |/  /          
                |  |  |   |  __  | /  /__\  \  |    /   |      \           
                |  |  |   | |  | | |   __   |  |    \   |  |\   \          
                \     /   | |  | | |  |  |  |  | |\  \  |  | \   \       
                 \___/    |_|  |_| |__|  |__|  |_| \__\ |__|  \__/        
                                                                              
                      - O R C A' S   B I G   F R I E N D -                    
                                      &                                       
                       - I N T E G R A L  F E E D E R -                       
                                                                              
 v1 FN, 2020, v2 2021                                                         
------------------------------------------------------------------------------


Reading SHARK input file inp.SHARKINP.tmp ... ok
----------------------
SHARK INTEGRAL PACKAGE
----------------------

Number of atoms                             ...      4
Number of basis functions                   ...    142
Number of shells                            ...     50
Maximum angular momentum                    ...      3
Integral batch strategy                     ... SHARK/LIBINT Hybrid
RI-J (if used) integral strategy            ... SPLIT-RIJ (Revised 2003 algorithm where possible)
Printlevel                                  ...      1
Contraction scheme used                     ... SEGMENTED contraction
Coulomb Range Separation                    ... NOT USED
Exchange Range Separation                   ... NOT USED
Finite Nucleus Model                        ... NOT USED
Auxiliary Coulomb fitting basis             ... AVAILABLE
   # of basis functions in Aux-J            ...    202
   # of shells in Aux-J                     ...     66
   Maximum angular momentum in Aux-J        ...      4
Auxiliary J/K fitting basis                 ... NOT available
Auxiliary Correlation fitting basis         ... NOT available
Auxiliary 'external' fitting basis          ... NOT available
Integral threshold                          ...     2.500000e-11
Primitive cut-off                           ...     2.500000e-12
Primitive pair pre-selection threshold      ...     2.500000e-12

Calculating pre-screening integrals         ... done (  0.1 sec) Dimension = 50
Organizing shell pair data                  ... done (  0.1 sec)
Shell pair information
Total number of shell pairs                 ...      1275
Shell pairs after pre-screening             ...      1172
Total number of primitive shell pairs       ...      5281
Primitive shell pairs kept                  ...      3615
          la=0 lb=0:    174 shell pairs
          la=1 lb=0:    311 shell pairs
          la=1 lb=1:    159 shell pairs
          la=2 lb=0:    154 shell pairs
          la=2 lb=1:    144 shell pairs
          la=2 lb=2:     36 shell pairs
          la=3 lb=0:     80 shell pairs
          la=3 lb=1:     72 shell pairs
          la=3 lb=2:     32 shell pairs
          la=3 lb=3:     10 shell pairs

Calculating one electron integrals          ... done (  0.0 sec)
Calculating RI/J V-Matrix + Cholesky decomp.... done (  0.2 sec)
Calculating Nuclear repulsion               ... done (  0.0 sec) ENN=    248.805487951596 Eh

SHARK setup successfully completed in   0.9 seconds

Maximum memory used throughout the entire GTOINT-calculation: 34.2 MB
-------------------------------------------------------------------------------
                                 ORCA SCF
-------------------------------------------------------------------------------

------------
SCF SETTINGS
------------
Hamiltonian:
 Density Functional     Method          .... DFT(GTOs)
 Exchange Functional    Exchange        .... PBE
   PBE kappa parameter   XKappa         ....  0.804000
   PBE mue parameter    XMuePBE         ....  0.219520
 Correlation Functional Correlation     .... PBE
   PBE beta parameter  CBetaPBE         ....  0.066725
 LDA part of GGA corr.  LDAOpt          .... PW91-LDA
 Gradients option       PostSCFGGA      .... off
   Density functional embedding theory  .... OFF
   NL short-range parameter             ....  6.400000
 RI-approximation to the Coulomb term is turned on
   Number of AuxJ basis functions       .... 202


General Settings:
 Integral files         IntName         .... inp
 Hartree-Fock type      HFTyp           .... RHF
 Total Charge           Charge          ....   -1
 Multiplicity           Mult            ....    1
 Number of Electrons    NEL             ....   58
 Basis Dimension        Dim             ....  142
 Nuclear Repulsion      ENuc            ....    248.8054879516 Eh

Convergence Acceleration:
 DIIS                   CNVDIIS         .... on
   Start iteration      DIISMaxIt       ....    12
   Startup error        DIISStart       ....  0.200000
   # of expansion vecs  DIISMaxEq       ....     5
   Bias factor          DIISBfac        ....   1.050
   Max. coefficient     DIISMaxC        ....  10.000
 Trust-Rad. Augm. Hess. CNVTRAH         .... auto
   Auto Start mean grad. ratio tolernc. ....  1.125000
   Auto Start start iteration           ....    20
   Auto Start num. interpolation iter.  ....    10
   Max. Number of Micro iterations      ....    16
   Max. Number of Macro iterations      .... Maxiter - #DIIS iter
   Number of Davidson start vectors     ....     2
   Converg. threshold I  (grad. norm)   ....   1.000e-05
   Converg. threshold II (energy diff.) ....   1.000e-08
   Grad. Scal. Fac. for Micro threshold ....   0.100
   Minimum threshold for Micro iter.    ....   0.010
   NR start threshold (gradient norm)   ....   0.001
   Initial trust radius                 ....   0.400
   Minimum AH scaling param. (alpha)    ....   1.000
   Maximum AH scaling param. (alpha)    .... 1000.000
   Orbital update algorithm             .... Taylor
   White noise on init. David. guess    .... on
   Maximum white noise                  ....   0.010
   Quad. conv. algorithm                .... NR
 SOSCF                  CNVSOSCF        .... on
   Start iteration      SOSCFMaxIt      ....   150
   Startup grad/error   SOSCFStart      ....  0.003300
 Level Shifting         CNVShift        .... on
   Level shift para.    LevelShift      ....    0.2500
   Turn off err/grad.   ShiftErr        ....    0.0010
 Zerner damping         CNVZerner       .... off
 Static damping         CNVDamp         .... on
   Fraction old density DampFac         ....    0.7000
   Max. Damping (<1)    DampMax         ....    0.9800
   Min. Damping (>=0)   DampMin         ....    0.0000
   Turn off err/grad.   DampErr         ....    0.1000
 Fernandez-Rico         CNVRico         .... off

SCF Procedure:
 Maximum # iterations   MaxIter         ....   125
 SCF integral mode      SCFMode         .... Direct
   Integral package                     .... SHARK and LIBINT hybrid scheme
 Reset frequency        DirectResetFreq ....    20
 Integral Threshold     Thresh          ....  2.500e-11 Eh
 Primitive CutOff       TCut            ....  2.500e-12 Eh

Convergence Tolerance:
 Convergence Check Mode ConvCheckMode   .... Total+1el-Energy
 Convergence forced     ConvForced      .... 0
 Energy Change          TolE            ....  1.000e-08 Eh
 1-El. energy change                    ....  1.000e-05 Eh
 Orbital Gradient       TolG            ....  1.000e-05
 Orbital Rotation angle TolX            ....  1.000e-05
 DIIS Error             TolErr          ....  5.000e-07


Diagonalization of the overlap matrix:
Smallest eigenvalue                        ... 2.030e-03
Time for diagonalization                   ...    0.003 sec
Threshold for overlap eigenvalues          ... 1.000e-08
Number of eigenvalues below threshold      ... 0
Time for construction of square roots      ...    0.080 sec
Total time needed                          ...    0.083 sec

Time for model grid setup =    0.092 sec

------------------------------
INITIAL GUESS: MODEL POTENTIAL
------------------------------
Loading Hartree-Fock densities                     ... done
Calculating cut-offs                               ... done
Initializing the effective Hamiltonian             ... done
Setting up the integral package (SHARK)            ... done
Starting the Coulomb interaction                   ... done (   0.2 sec)
Reading the grid                                   ... done
Mapping shells                                     ... done
Starting the XC term evaluation                    ... done (   0.1 sec)
  promolecular density results
     # of electrons  =     57.000168256
     EX              =    -87.258083448
     EC              =     -2.206291297
     EX+EC           =    -89.464374745
Transforming the Hamiltonian                       ... done (   0.0 sec)
Diagonalizing the Hamiltonian                      ... done (   0.0 sec)
Back transforming the eigenvectors                 ... done (   0.0 sec)
Now organizing SCF variables                       ... done
                      ------------------
                      INITIAL GUESS DONE (   0.3 sec)
                      ------------------
-------------------
DFT GRID GENERATION
-------------------

General Integration Accuracy     IntAcc      ... 4.388
Radial Grid Type                 RadialGrid  ... OptM3 with GC (2021)
Angular Grid (max. ang.)         AngularGrid ... 4 (Lebedev-302)
Angular grid pruning method      GridPruning ... 4 (adaptive)
Weight generation scheme         WeightScheme... Becke
Basis function cutoff            BFCut       ... 1.0000e-11
Integration weight cutoff        WCut        ... 1.0000e-14
Angular grids for H and He will be reduced by one unit
Partially contracted basis set               ... off
Rotationally invariant grid construction     ... off

Total number of grid points                  ...    28169
Total number of batches                      ...      442
Average number of points per batch           ...       63
Average number of grid points per atom       ...     7042
Time for grid setup =    0.413 sec


--------------------
CPCM SOLVATION MODEL
--------------------
CPCM parameters:
  Epsilon                                         ...      80.4000
  Refrac                                          ...       1.3300
  Rsolv                                           ...       1.3000
  Surface type                                    ... GAUSSIAN VDW
  Epsilon function type                           ...         CPCM
Radii:
 Radius for C  used is    3.8550 Bohr (=   2.0400 Ang.)
 Radius for Cl used is    3.9684 Bohr (=   2.1000 Ang.)
Calculating surface                               ...        done! (  0.0s)
GEPOL surface points                              ...          311
GEPOL Volume                                      ...     711.2641
GEPOL Surface-area                                ...     436.6057
Calculating surface distance matrix               ...        done! (  0.0s)
Performing Cholesky decomposition & store         ...        done! (  0.1s)
Overall time for CPCM initialization              ...                 0.1s
--------------
SCF ITERATIONS
--------------
ITER       Energy         Delta-E        Max-DP      RMS-DP      [F,P]     Damp
               ***  Starting incremental Fock matrix formation  ***
  0  -1418.1308170521   0.000000000000 0.06699498  0.00168609  0.0992130 0.7000
  1  -1418.1588790814  -0.028062029256 0.05420623  0.00134566  0.0360978 0.7000
                               ***Turning on DIIS***
  2  -1418.1676677175  -0.008788636111 0.07440498  0.00227120  0.0174761 0.0000
  3  -1418.1826152746  -0.014947557063 0.03602684  0.00076417  0.0245981 0.0000
  4  -1418.1860343307  -0.003419056138 0.01061212  0.00033621  0.0086857 0.0000
                      *** Initiating the SOSCF procedure ***
                           *** Shutting down DIIS ***
                      *** Re-Reading the Fockian *** 
                      *** Removing any level shift *** 
ITER      Energy       Delta-E        Grad      Rot      Max-DP    RMS-DP
  5  -1418.18660006  -0.0005657277  0.000731  0.000731  0.003751  0.000095
               *** Restarting incremental Fock matrix formation ***
  6  -1418.18661930  -0.0000192395  0.000274  0.000626  0.002336  0.000053
  7  -1418.18662009  -0.0000007904  0.000191  0.000172  0.000530  0.000013
  8  -1418.18662080  -0.0000007130  0.000055  0.000095  0.000086  0.000005
  9  -1418.18662074   0.0000000608  0.000092  0.000069  0.000097  0.000003
 10  -1418.18662084  -0.0000001041  0.000007  0.000019  0.000058  0.000001
 11  -1418.18662084   0.0000000009  0.000005  0.000016  0.000018  0.000001
                  ***Gradient check signals convergence***
              ***Rediagonalizing the Fockian in SOSCF/NRSCF***

               *****************************************************
               *                     SUCCESS                       *
               *           SCF CONVERGED AFTER  12 CYCLES          *
               *****************************************************


----------------
TOTAL SCF ENERGY
----------------

Total Energy       :        -1418.18662085 Eh          -38590.81987 eV

Components:
Nuclear Repulsion  :          248.80548795 Eh            6770.34152 eV
Electronic Energy  :        -1666.99210880 Eh          -45361.16140 eV
One Electron Energy:        -2466.32785554 Eh          -67112.19287 eV
Two Electron Energy:          799.33574674 Eh           21751.03147 eV
CPCM Dielectric    :           -0.08796219 Eh              -2.39357 eV

Virial components:
Potential Energy   :        -2834.54411150 Eh          -77131.86658 eV
Kinetic Energy     :         1416.35749065 Eh           38541.04671 eV
Virial Ratio       :            2.00129143


DFT components:
N(Alpha)           :       28.999996068048 electrons
N(Beta)            :       28.999996068048 electrons
N(Total)           :       57.999992136096 electrons
E(X)               :      -87.597897354771 Eh       
E(C)               :       -2.242432573464 Eh       
E(XC)              :      -89.840329928234 Eh       
DFET-embed. en.    :        0.000000000000 Eh       
CPCM Solvation Model Properties:
Surface-charge          :            0.97714829
Charge-correction       :           -0.00357707 Eh              -0.09734 eV
Free-energy (cav+disp)  :  This term is not implemented in the current solvation scheme

---------------
SCF CONVERGENCE
---------------

  Last Energy change         ...   -3.8608e-09  Tolerance :   1.0000e-08
  Last MAX-Density change    ...    1.1036e-05  Tolerance :   1.0000e-07
  Last RMS-Density change    ...    4.0130e-07  Tolerance :   5.0000e-09
  Last Orbital Gradient      ...    1.1525e-06  Tolerance :   1.0000e-05
  Last Orbital Rotation      ...    1.7461e-05  Tolerance :   1.0000e-05

             **** THE GBW FILE WAS UPDATED (inp.gbw) ****
             **** DENSITY inp.scfp WAS UPDATED ****
             **** ENERGY FILE WAS UPDATED (inp.en.tmp) ****
             **** THE GBW FILE WAS UPDATED (inp.gbw) ****
             **** DENSITY inp.scfp WAS UPDATED ****
----------------
ORBITAL ENERGIES
----------------

  NO   OCC          E(Eh)            E(eV) 
   0   2.0000    -100.635838     -2738.4404 
   1   2.0000    -100.635792     -2738.4391 
   2   2.0000    -100.635784     -2738.4389 
   3   2.0000      -9.902055      -269.4486 
   4   2.0000      -9.148075      -248.9318 
   5   2.0000      -9.148031      -248.9306 
   6   2.0000      -9.148011      -248.9300 
   7   2.0000      -6.971253      -189.6974 
   8   2.0000      -6.971207      -189.6962 
   9   2.0000      -6.971201      -189.6960 
  10   2.0000      -6.962313      -189.4542 
  11   2.0000      -6.962266      -189.4529 
  12   2.0000      -6.962262      -189.4528 
  13   2.0000      -6.960633      -189.4084 
  14   2.0000      -6.960581      -189.4071 
  15   2.0000      -6.960580      -189.4070 
  16   2.0000      -0.798120       -21.7179 
  17   2.0000      -0.724616       -19.7178 
  18   2.0000      -0.724578       -19.7168 
  19   2.0000      -0.484928       -13.1955 
  20   2.0000      -0.380649       -10.3580 
  21   2.0000      -0.380637       -10.3577 
  22   2.0000      -0.323087        -8.7916 
  23   2.0000      -0.269438        -7.3318 
  24   2.0000      -0.269426        -7.3314 
  25   2.0000      -0.256285        -6.9739 
  26   2.0000      -0.256223        -6.9722 
  27   2.0000      -0.235319        -6.4033 
  28   2.0000      -0.067029        -1.8239 
  29   0.0000      -0.011360        -0.3091 
  30   0.0000       0.074870         2.0373 
  31   0.0000       0.074874         2.0374 
  32   0.0000       0.101821         2.7707 
  33   0.0000       0.188992         5.1427 
  34   0.0000       0.189050         5.1443 
  35   0.0000       0.240148         6.5348 
  36   0.0000       0.268785         7.3140 
  37   0.0000       0.268792         7.3142 
  38   0.0000       0.306071         8.3286 
  39   0.0000       0.322867         8.7856 
  40   0.0000       0.322919         8.7871 
  41   0.0000       0.331305         9.0153 
  42   0.0000       0.331324         9.0158 
  43   0.0000       0.343590         9.3496 
  44   0.0000       0.343616         9.3503 
  45   0.0000       0.345422         9.3994 
  46   0.0000       0.360673         9.8144 
  47   0.0000       0.370966        10.0945 
  48   0.0000       0.412227        11.2173 
  49   0.0000       0.412273        11.2185 
  50   0.0000       0.425647        11.5824 
  51   0.0000       0.456875        12.4322 
  52   0.0000       0.456926        12.4336 
  53   0.0000       0.587486        15.9863 
  54   0.0000       0.608029        16.5453 
  55   0.0000       0.608046        16.5458 
  56   0.0000       0.616671        16.7805 
  57   0.0000       0.647885        17.6298 
  58   0.0000       0.677823        18.4445 
  59   0.0000       0.677863        18.4456 
  60   0.0000       0.851142        23.1608 
  61   0.0000       0.994507        27.0619 
  62   0.0000       0.994535        27.0627 
  63   0.0000       1.004581        27.3360 
  64   0.0000       1.020852        27.7788 
  65   0.0000       1.020868        27.7792 
  66   0.0000       1.203736        32.7553 
  67   0.0000       1.203755        32.7558 
  68   0.0000       1.423249        38.7286 
  69   0.0000       1.446027        39.3484 
  70   0.0000       1.662801        45.2471 
  71   0.0000       1.662828        45.2478 
  72   0.0000       1.663374        45.2627 
  73   0.0000       1.663399        45.2634 
  74   0.0000       1.672059        45.4990 
  75   0.0000       1.709791        46.5258 
  76   0.0000       1.726609        46.9834 
  77   0.0000       1.726656        46.9847 
  78   0.0000       1.726836        46.9896 
  79   0.0000       1.726845        46.9898 
  80   0.0000       1.765586        48.0440 
  81   0.0000       1.774563        48.2883 
  82   0.0000       1.797087        48.9012 
  83   0.0000       1.805894        49.1409 
  84   0.0000       1.805940        49.1421 
  85   0.0000       1.851313        50.3768 
  86   0.0000       1.851331        50.3773 
  87   0.0000       1.910467        51.9865 
  88   0.0000       1.910470        51.9865 
  89   0.0000       2.015816        54.8531 
  90   0.0000       2.021311        55.0027 
  91   0.0000       2.024457        55.0883 
  92   0.0000       2.026515        55.1443 
  93   0.0000       2.026556        55.1454 
  94   0.0000       2.029573        55.2275 
  95   0.0000       2.029619        55.2287 
  96   0.0000       2.067229        56.2522 
  97   0.0000       2.067250        56.2527 
  98   0.0000       2.084998        56.7357 
  99   0.0000       2.137703        58.1698 
 100   0.0000       2.154505        58.6271 
 101   0.0000       2.154564        58.6287 
 102   0.0000       2.156687        58.6864 
 103   0.0000       2.156709        58.6870 
 104   0.0000       2.160190        58.7818 
 105   0.0000       2.209228        60.1162 
 106   0.0000       2.240274        60.9610 
 107   0.0000       2.273927        61.8767 
 108   0.0000       2.273955        61.8775 
 109   0.0000       2.282664        62.1144 
 110   0.0000       2.472649        67.2842 
 111   0.0000       2.472665        67.2846 
 112   0.0000       2.739774        74.5530 
 113   0.0000       2.739783        74.5533 
 114   0.0000       2.986398        81.2640 
 115   0.0000       3.028102        82.3989 
 116   0.0000       3.028108        82.3990 
 117   0.0000       3.103648        84.4546 
 118   0.0000       3.103654        84.4547 
 119   0.0000       3.425465        93.2116 
 120   0.0000       3.441718        93.6539 
 121   0.0000       3.441730        93.6542 
 122   0.0000       3.444405        93.7270 
 123   0.0000       3.464685        94.2789 
 124   0.0000       3.464695        94.2791 
 125   0.0000       3.754000       102.1515 
 126   0.0000       3.991944       108.6263 
 127   0.0000       3.991956       108.6267 
 128   0.0000       4.072322       110.8135 
 129   0.0000      10.550016       287.0805 
 130   0.0000      10.561063       287.3811 
 131   0.0000      10.561097       287.3821 
 132   0.0000      10.570428       287.6360 
 133   0.0000      10.628052       289.2040 
 134   0.0000      10.628083       289.2048 
 135   0.0000      11.029156       300.1186 
 136   0.0000      11.029187       300.1194 
 137   0.0000      11.184850       304.3552 
 138   0.0000      21.467179       584.1516 
 139   0.0000      24.804752       674.9716 
 140   0.0000      25.419526       691.7005 
 141   0.0000      25.419561       691.7014 

                    ********************************
                    * MULLIKEN POPULATION ANALYSIS *
                    ********************************

-----------------------
MULLIKEN ATOMIC CHARGES
-----------------------
   0 C :   -0.312268
   1 Cl:   -0.229212
   2 Cl:   -0.229232
   3 Cl:   -0.229288
Sum of atomic charges:   -1.0000000

--------------------------------
MULLIKEN REDUCED ORBITAL CHARGES
--------------------------------
  0 C s       :     3.067458  s :     3.067458
      pz      :     0.818623  p :     3.096121
      px      :     0.975112
      py      :     1.302385
      dz2     :     0.031724  d :     0.138422
      dxz     :     0.032239
      dyz     :     0.026450
      dx2y2   :     0.025440
      dxy     :     0.022570
      f0      :     0.001732  f :     0.010267
      f+1     :     0.001416
      f-1     :     0.001427
      f+2     :     0.001257
      f-2     :     0.001898
      f+3     :     0.001300
      f-3     :     0.001237
  1 Cls       :     5.883024  s :     5.883024
      pz      :     3.938907  p :    11.224635
      px      :     3.525980
      py      :     3.759748
      dz2     :     0.008353  d :     0.114725
      dxz     :     0.013581
      dyz     :     0.007764
      dx2y2   :     0.057140
      dxy     :     0.027887
      f0      :     0.000450  f :     0.006828
      f+1     :     0.000810
      f-1     :     0.000437
      f+2     :     0.000122
      f-2     :     0.000703
      f+3     :     0.002380
      f-3     :     0.001926
  2 Cls       :     5.883005  s :     5.883005
      pz      :     3.564065  p :    11.224629
      px      :     3.907740
      py      :     3.752824
      dz2     :     0.029854  d :     0.114771
      dxz     :     0.025268
      dyz     :     0.028335
      dx2y2   :     0.024524
      dxy     :     0.006790
      f0      :     0.001024  f :     0.006827
      f+1     :     0.000920
      f-1     :     0.001706
      f+2     :     0.001581
      f-2     :     0.000990
      f+3     :     0.000213
      f-3     :     0.000393
  3 Cls       :     5.883028  s :     5.883028
      pz      :     3.528663  p :    11.224705
      px      :     3.739265
      py      :     3.956777
      dz2     :     0.033204  d :     0.114726
      dxz     :     0.024882
      dyz     :     0.030006
      dx2y2   :     0.010878
      dxy     :     0.015756
      f0      :     0.001274  f :     0.006829
      f+1     :     0.002089
      f-1     :     0.000716
      f+2     :     0.001200
      f-2     :     0.001110
      f+3     :     0.000189
      f-3     :     0.000252


                     *******************************
                     * LOEWDIN POPULATION ANALYSIS *
                     *******************************

----------------------
LOEWDIN ATOMIC CHARGES
----------------------
   0 C :   -1.553608
   1 Cl:    0.184569
   2 Cl:    0.184480
   3 Cl:    0.184559

-------------------------------
LOEWDIN REDUCED ORBITAL CHARGES
-------------------------------
  0 C s       :     3.006007  s :     3.006007
      pz      :     1.123245  p :     3.740496
      px      :     1.213781
      py      :     1.403471
      dz2     :     0.175426  d :     0.739858
      dxz     :     0.183444
      dyz     :     0.140774
      dx2y2   :     0.118460
      dxy     :     0.121753
      f0      :     0.012173  f :     0.067248
      f+1     :     0.009402
      f-1     :     0.009150
      f+2     :     0.008404
      f-2     :     0.012341
      f+3     :     0.008328
      f-3     :     0.007449
  1 Cls       :     5.560299  s :     5.560299
      pz      :     3.848565  p :    11.051986
      px      :     3.496689
      py      :     3.706732
      dz2     :     0.012173  d :     0.187365
      dxz     :     0.022499
      dyz     :     0.012620
      dx2y2   :     0.095412
      dxy     :     0.044661
      f0      :     0.001286  f :     0.015781
      f+1     :     0.001508
      f-1     :     0.000888
      f+2     :     0.000247
      f-2     :     0.001799
      f+3     :     0.006443
      f-3     :     0.003610
  2 Cls       :     5.560301  s :     5.560301
      pz      :     3.525276  p :    11.052020
      px      :     3.825788
      py      :     3.700955
      dz2     :     0.049257  d :     0.187417
      dxz     :     0.041334
      dyz     :     0.045286
      dx2y2   :     0.040417
      dxy     :     0.011124
      f0      :     0.002755  f :     0.015782
      f+1     :     0.002258
      f-1     :     0.003195
      f+2     :     0.003951
      f-2     :     0.002156
      f+3     :     0.000440
      f-3     :     0.001027
  3 Cls       :     5.560298  s :     5.560298
      pz      :     3.494894  p :    11.052004
      px      :     3.680421
      py      :     3.876689
      dz2     :     0.054627  d :     0.187359
      dxz     :     0.038942
      dyz     :     0.050075
      dx2y2   :     0.017610
      dxy     :     0.026105
      f0      :     0.003407  f :     0.015780
      f+1     :     0.003838
      f-1     :     0.001916
      f+2     :     0.002517
      f-2     :     0.003029
      f+3     :     0.000409
      f-3     :     0.000664


                      *****************************
                      * MAYER POPULATION ANALYSIS *
                      *****************************

  NA   - Mulliken gross atomic population
  ZA   - Total nuclear charge
  QA   - Mulliken gross atomic charge
  VA   - Mayer's total valence
  BVA  - Mayer's bonded valence
  FA   - Mayer's free valence

  ATOM       NA         ZA         QA         VA         BVA        FA
  0 C      6.3123     6.0000    -0.3123     3.2583     3.2583    -0.0000
  1 Cl    17.2292    17.0000    -0.2292     1.1566     1.1566     0.0000
  2 Cl    17.2292    17.0000    -0.2292     1.1568     1.1568     0.0000
  3 Cl    17.2293    17.0000    -0.2293     1.1565     1.1565    -0.0000

  Mayer bond orders larger than 0.100000
B(  0-C ,  1-Cl) :   1.0860 B(  0-C ,  2-Cl) :   1.0863 B(  0-C ,  3-Cl) :   1.0859 


-------
TIMINGS
-------

Total SCF time: 0 days 0 hours 0 min 10 sec 

Total time                  ....      10.860 sec
Sum of individual times     ....       9.677 sec  ( 89.1%)

Fock matrix formation       ....       8.695 sec  ( 80.1%)
  Split-RI-J                ....       1.068 sec  ( 12.3% of F)
  XC integration            ....       4.491 sec  ( 51.6% of F)
    Basis function eval.    ....       1.173 sec  ( 26.1% of XC)
    Density eval.           ....       0.727 sec  ( 16.2% of XC)
    XC-Functional eval.     ....       0.315 sec  (  7.0% of XC)
    XC-Potential eval.      ....       0.956 sec  ( 21.3% of XC)
Diagonalization             ....       0.019 sec  (  0.2%)
Density matrix formation    ....       0.003 sec  (  0.0%)
Population analysis         ....       0.033 sec  (  0.3%)
Initial guess               ....       0.253 sec  (  2.3%)
Orbital Transformation      ....       0.000 sec  (  0.0%)
Orbital Orthonormalization  ....       0.000 sec  (  0.0%)
DIIS solution               ....       0.081 sec  (  0.7%)
SOSCF solution              ....       0.089 sec  (  0.8%)
Grid generation             ....       0.505 sec  (  4.6%)

Maximum memory used throughout the entire SCF-calculation: 43.2 MB


-------------------------------------------------------------------------------
                          DFT DISPERSION CORRECTION                            
                                                                               
                              DFTD3 V3.1  Rev 1                                
                          USING Becke-Johnson damping                          
-------------------------------------------------------------------------------
The PBE functional is recognized
Active option DFTDOPT                   ...         4   

molecular C6(AA) [au] = 1128.221459 


            DFT-D V3
 parameters
 s6 scaling factor         :     1.0000 
 a1 scaling factor         :     0.4289 
 s8 scaling factor         :     0.7875 
 a2 scaling factor         :     4.4407 
 ad hoc parameters k1-k3   :    16.0000     1.3333    -4.0000 

 Edisp/kcal,au: -2.892052968600  -0.004608779277 
 E6   /kcal   :  -1.773379518 
 E8   /kcal   :  -1.118673450 
 % E8         :  38.680946111 

-------------------------   ----------------
Dispersion correction           -0.004608779
-------------------------   ----------------


-------------------------   --------------------
FINAL SINGLE POINT ENERGY     -1418.191229626811
-------------------------   --------------------

------------------------------------------------------------------------------
                         ORCA SCF GRADIENT CALCULATION
------------------------------------------------------------------------------

Gradient of the Kohn-Sham DFT energy:
Kohn-Sham wavefunction type      ... RKS
Hartree-Fock exchange scaling    ...    0.000
Number of operators              ...    1
Number of atoms                  ...    4
Basis set dimensions             ...  142
Integral neglect threshold       ... 2.5e-11
Integral primitive cutoff        ... 2.5e-12
SHARK Integral package           ... ON

Nuc. rep. gradient       (SHARK) ... done (  0.0 sec)
HCore & Overlap gradient (SHARK) ... done (  0.0 sec)
RI-J gradient            (SHARK) ... done (  0.6 sec)
Exchange-correlation gradient    ... done
Dispersion correction            ... done

------------------
CARTESIAN GRADIENT
------------------

   1   C   :   -0.000035303    0.000009427   -0.000084793
   2   Cl  :   -0.011557702   -0.007804932    0.000567155
   3   Cl  :    0.003594361    0.008048136    0.010930551
   4   Cl  :    0.007998643   -0.000252632   -0.011412913

Difference to translation invariance:
           :   -0.0000000001   -0.0000000001    0.0000000000

Difference to rotation invariance:
           :    0.0004157606   -0.0007433730    0.0008050651

Norm of the cartesian gradient     ...    0.0242134920
RMS gradient                       ...    0.0069898331
MAX gradient                       ...    0.0115577016

-------
TIMINGS
-------

Total SCF gradient time            ...        2.352 sec

One electron gradient       ....       0.040 sec  (  1.7%)
RI-J Coulomb gradient       ....       0.587 sec  ( 25.0%)
XC gradient                 ....       1.238 sec  ( 52.6%)
CPCM gradient               ....       0.111 sec  (  4.7%)
   A-Matrix (El+Nuc)        ....       0.005 sec  (  0.2%)
   Potential                ....       0.106 sec  (  4.5%)

Maximum memory used throughout the entire SCFGRAD-calculation: 56.4 MB
------------------------------------------------------------------------------
                         ORCA GEOMETRY RELAXATION STEP
------------------------------------------------------------------------------

Reading the OPT-File                    .... done
Getting information on internals        .... done
Copying old internal coords+grads       .... done
Making the new internal coordinates     .... (new redundants).... done
Validating the new internal coordinates .... (new redundants).... done
Calculating the B-matrix                .... done
Calculating the G,G- and P matrices     .... done
Transforming gradient to internals      .... done
Projecting the internal gradient        .... done
Number of atoms                         ....   4
Number of internal coordinates          ....   7
Current Energy                          .... -1418.191229627 Eh
Current gradient norm                   ....     0.024213492 Eh/bohr
Maximum allowed component of the step   ....  0.300
Current trust radius                    ....  0.300
Evaluating the initial hessian          ....  (Almloef) done
Projecting the Hessian                  .... done
Forming the augmented Hessian           .... done
Diagonalizing the augmented Hessian     .... done
Last element of RFO vector              ....  0.998384349
Lowest eigenvalues of augmented Hessian:
 -0.001377822  0.056211077  0.414064402  0.414064506  0.424122896
Length of the computed step             ....  0.056913530
The final length of the internal step   ....  0.056913530
Converting the step to cartesian space:
 Initial RMS(Int)=    0.0215112924
Transforming coordinates:
 Iter   0:  RMS(Cart)=    0.0164291873 RMS(Int)=    0.0215113532
 Iter   1:  RMS(Cart)=    0.0000029828 RMS(Int)=    0.0000041117
 Iter   2:  RMS(Cart)=    0.0000000298 RMS(Int)=    0.0000000411
done
Storing new coordinates                 .... done

                                .--------------------.
          ----------------------|Geometry convergence|-------------------------
          Item                value                   Tolerance       Converged
          ---------------------------------------------------------------------
          RMS gradient        0.0091514179            0.0001000000      NO
          MAX gradient        0.0140410011            0.0003000000      NO
          RMS step            0.0215112924            0.0020000000      NO
          MAX step            0.0329987886            0.0040000000      NO
          ........................................................
          Max(Bonds)      0.0175      Max(Angles)    0.00
          Max(Dihed)        0.00      Max(Improp)    0.06
          ---------------------------------------------------------------------

The optimization has not yet converged - more geometry cycles are needed


    ---------------------------------------------------------------------------
                         Redundant Internal Coordinates
                            (Angstroem and degrees)

        Definition                    Value    dE/dq     Step     New-Value
    ----------------------------------------------------------------------------
     1. B(Cl  1,C   0)                1.7155 -0.013957  0.0174    1.7328   
     2. B(Cl  2,C   0)                1.7155 -0.014041  0.0175    1.7329   
     3. B(Cl  3,C   0)                1.7155 -0.013938  0.0173    1.7328   
     4. A(Cl  1,C   0,Cl  3)          120.00  0.000030   -0.00    120.00   
     5. A(Cl  2,C   0,Cl  3)          120.00 -0.000015    0.00    120.00   
     6. A(Cl  1,C   0,Cl  2)          120.00 -0.000015    0.00    120.00   
     7. I(Cl  1,Cl  3,Cl  2,C   0)     -0.00  0.000063   -0.06     -0.06   
    ----------------------------------------------------------------------------

         *************************************************************
         *                GEOMETRY OPTIMIZATION CYCLE   2            *
         *************************************************************
---------------------------------
CARTESIAN COORDINATES (ANGSTROEM)
---------------------------------
  C     -5.778722   -2.765764    2.583235
  Cl    -4.350820   -1.786052    2.520784
  Cl    -6.206131   -3.761622    1.230982
  Cl    -6.780237   -2.748153    3.997172

----------------------------
CARTESIAN COORDINATES (A.U.)
----------------------------
  NO LB      ZA    FRAG     MASS         X           Y           Z
   0 C     6.0000    0    12.011  -10.920202   -5.226536    4.881607
   1 Cl   17.0000    0    35.453   -8.221859   -3.375148    4.763591
   2 Cl   17.0000    0    35.453  -11.727889   -7.108436    2.326218
   3 Cl   17.0000    0    35.453  -12.812792   -5.193257    7.553559

--------------------------------
INTERNAL COORDINATES (ANGSTROEM)
--------------------------------
 C      0   0   0     0.000000000000     0.00000000     0.00000000
 Cl     1   0   0     1.732812583669     0.00000000     0.00000000
 Cl     1   2   0     1.732917413750   120.00204166     0.00000000
 Cl     1   2   3     1.732789465540   119.99592017   180.07425787

---------------------------
INTERNAL COORDINATES (A.U.)
---------------------------
 C      0   0   0     0.000000000000     0.00000000     0.00000000
 Cl     1   0   0     3.274541224546     0.00000000     0.00000000
 Cl     1   2   0     3.274739324691   120.00204166     0.00000000
 Cl     1   2   3     3.274497537615   119.99592017   180.07425787

------------------------------------------------------------------------------
                   ___                                                        
                  /   \      - P O W E R E D   B Y -                         
                 /     \                                                     
                 |  |  |   _    _      __       _____    __    __             
                 |  |  |  | |  | |    /  \     |  _  \  |  |  /  |          
                  \  \/   | |  | |   /    \    | | | |  |  | /  /          
                 / \  \   | |__| |  /  /\  \   | |_| |  |  |/  /          
                |  |  |   |  __  | /  /__\  \  |    /   |      \           
                |  |  |   | |  | | |   __   |  |    \   |  |\   \          
                \     /   | |  | | |  |  |  |  | |\  \  |  | \   \       
                 \___/    |_|  |_| |__|  |__|  |_| \__\ |__|  \__/        
                                                                              
                      - O R C A' S   B I G   F R I E N D -                    
                                      &                                       
                       - I N T E G R A L  F E E D E R -                       
                                                                              
 v1 FN, 2020, v2 2021                                                         
------------------------------------------------------------------------------


Reading SHARK input file inp.SHARKINP.tmp ... ok
----------------------
SHARK INTEGRAL PACKAGE
----------------------

Number of atoms                             ...      4
Number of basis functions                   ...    142
Number of shells                            ...     50
Maximum angular momentum                    ...      3
Integral batch strategy                     ... SHARK/LIBINT Hybrid
RI-J (if used) integral strategy            ... SPLIT-RIJ (Revised 2003 algorithm where possible)
Printlevel                                  ...      1
Contraction scheme used                     ... SEGMENTED contraction
Coulomb Range Separation                    ... NOT USED
Exchange Range Separation                   ... NOT USED
Finite Nucleus Model                        ... NOT USED
Auxiliary Coulomb fitting basis             ... AVAILABLE
   # of basis functions in Aux-J            ...    202
   # of shells in Aux-J                     ...     66
   Maximum angular momentum in Aux-J        ...      4
Auxiliary J/K fitting basis                 ... NOT available
Auxiliary Correlation fitting basis         ... NOT available
Auxiliary 'external' fitting basis          ... NOT available
Integral threshold                          ...     2.500000e-11
Primitive cut-off                           ...     2.500000e-12
Primitive pair pre-selection threshold      ...     2.500000e-12

Calculating pre-screening integrals         ... done (  0.0 sec) Dimension = 50
Organizing shell pair data                  ... done (  0.1 sec)
Shell pair information
Total number of shell pairs                 ...      1275
Shell pairs after pre-screening             ...      1166
Total number of primitive shell pairs       ...      5281
Primitive shell pairs kept                  ...      3590
          la=0 lb=0:    174 shell pairs
          la=1 lb=0:    309 shell pairs
          la=1 lb=1:    155 shell pairs
          la=2 lb=0:    154 shell pairs
          la=2 lb=1:    144 shell pairs
          la=2 lb=2:     36 shell pairs
          la=3 lb=0:     80 shell pairs
          la=3 lb=1:     72 shell pairs
          la=3 lb=2:     32 shell pairs
          la=3 lb=3:     10 shell pairs

Calculating one electron integrals          ... done (  0.0 sec)
Calculating RI/J V-Matrix + Cholesky decomp.... done (  0.1 sec)
Calculating Nuclear repulsion               ... done (  0.0 sec) ENN=    246.309325816332 Eh

SHARK setup successfully completed in   0.6 seconds

Maximum memory used throughout the entire GTOINT-calculation: 34.1 MB

Diagonalization of the overlap matrix:
Smallest eigenvalue                        ... 2.206e-03
Time for diagonalization                   ...    0.003 sec
Threshold for overlap eigenvalues          ... 1.000e-08
Number of eigenvalues below threshold      ... 0
Time for construction of square roots      ...    0.109 sec
Total time needed                          ...    0.112 sec

-------------------
DFT GRID GENERATION
-------------------

General Integration Accuracy     IntAcc      ... 4.388
Radial Grid Type                 RadialGrid  ... OptM3 with GC (2021)
Angular Grid (max. ang.)         AngularGrid ... 4 (Lebedev-302)
Angular grid pruning method      GridPruning ... 4 (adaptive)
Weight generation scheme         WeightScheme... Becke
Basis function cutoff            BFCut       ... 1.0000e-11
Integration weight cutoff        WCut        ... 1.0000e-14
Angular grids for H and He will be reduced by one unit
Partially contracted basis set               ... off
Rotationally invariant grid construction     ... off

Total number of grid points                  ...    28172
Total number of batches                      ...      442
Average number of points per batch           ...       63
Average number of grid points per atom       ...     7043
Time for grid setup =    0.310 sec


--------------------
CPCM SOLVATION MODEL
--------------------
CPCM parameters:
  Epsilon                                         ...      80.4000
  Refrac                                          ...       1.3300
  Rsolv                                           ...       1.3000
  Surface type                                    ... GAUSSIAN VDW
  Epsilon function type                           ...         CPCM
Radii:
 Radius for C  used is    3.8550 Bohr (=   2.0400 Ang.)
 Radius for Cl used is    3.9684 Bohr (=   2.1000 Ang.)
Calculating surface                               ...        done! (  0.0s)
GEPOL surface points                              ...          314
GEPOL Volume                                      ...     716.2730
GEPOL Surface-area                                ...     439.3391
Calculating surface distance matrix               ...        done! (  0.0s)
Performing Cholesky decomposition & store         ...        done! (  0.0s)
Overall time for CPCM initialization              ...                 0.0s
--------------
SCF ITERATIONS
--------------
ITER       Energy         Delta-E        Max-DP      RMS-DP      [F,P]     Damp
               ***  Starting incremental Fock matrix formation  ***
                      *** Initiating the SOSCF procedure ***
                      *** Re-Reading the Fockian *** 
                      *** Removing any level shift *** 
ITER      Energy       Delta-E        Grad      Rot      Max-DP    RMS-DP
  0  -1418.18735231 -1418.1873523083  0.002325  0.002325  0.004363  0.000164
               *** Restarting incremental Fock matrix formation ***
  1  -1418.18755164  -0.0001993321  0.001980  0.004389  0.006155  0.000164
  2  -1418.18750071   0.0000509290  0.002993  0.002248  0.004276  0.000083
  3  -1418.18758016  -0.0000794452  0.000113  0.000360  0.000326  0.000015
  4  -1418.18758038  -0.0000002272  0.000049  0.000065  0.000163  0.000005
  5  -1418.18758043  -0.0000000449  0.000014  0.000026  0.000030  0.000001
                 **** Energy Check signals convergence ****
              ***Rediagonalizing the Fockian in SOSCF/NRSCF***

               *****************************************************
               *                     SUCCESS                       *
               *           SCF CONVERGED AFTER   6 CYCLES          *
               *****************************************************

Total Energy       :        -1418.18758043 Eh          -38590.84598 eV
  Last Energy change         ...   -3.1005e-09  Tolerance :   1.0000e-08
  Last MAX-Density change    ...    1.9091e-05  Tolerance :   1.0000e-07
             **** THE GBW FILE WAS UPDATED (inp.gbw) ****
             **** DENSITY inp.scfp WAS UPDATED ****
             **** ENERGY FILE WAS UPDATED (inp.en.tmp) ****
             **** THE GBW FILE WAS UPDATED (inp.gbw) ****
             **** DENSITY inp.scfp WAS UPDATED ****
Total SCF time: 0 days 0 hours 0 min 6 sec 

Maximum memory used throughout the entire SCF-calculation: 43.1 MB


-------------------------------------------------------------------------------
                          DFT DISPERSION CORRECTION                            
                                                                               
                              DFTD3 V3.1  Rev 1                                
                          USING Becke-Johnson damping                          
-------------------------------------------------------------------------------
-------------------------   ----------------
Dispersion correction           -0.004579727
-------------------------   ----------------


-------------------------   --------------------
FINAL SINGLE POINT ENERGY     -1418.192160159056
-------------------------   --------------------

------------------------------------------------------------------------------
                         ORCA SCF GRADIENT CALCULATION
------------------------------------------------------------------------------

Gradient of the Kohn-Sham DFT energy:
Kohn-Sham wavefunction type      ... RKS
Hartree-Fock exchange scaling    ...    0.000
Number of operators              ...    1
Number of atoms                  ...    4
Basis set dimensions             ...  142
Integral neglect threshold       ... 2.5e-11
Integral primitive cutoff        ... 2.5e-12
SHARK Integral package           ... ON

Nuc. rep. gradient       (SHARK) ... done (  0.0 sec)
HCore & Overlap gradient (SHARK) ... done (  0.0 sec)
RI-J gradient            (SHARK) ... done (  0.6 sec)
Exchange-correlation gradient    ... done
Dispersion correction            ... done

------------------
CARTESIAN GRADIENT
------------------

   1   C   :   -0.000135788    0.000168560   -0.000120929
   2   Cl  :   -0.004171632   -0.002807966    0.000276630
   3   Cl  :    0.001412010    0.002841660    0.003956226
   4   Cl  :    0.002895410   -0.000202255   -0.004111927

Difference to translation invariance:
           :   -0.0000000002   -0.0000000001    0.0000000001

Difference to rotation invariance:
           :    0.0004006587   -0.0007127586    0.0007949707

Norm of the cartesian gradient     ...    0.0087451676
RMS gradient                       ...    0.0025245124
MAX gradient                       ...    0.0041716318

-------
TIMINGS
-------

Total SCF gradient time            ...        2.333 sec

One electron gradient       ....       0.039 sec  (  1.7%)
RI-J Coulomb gradient       ....       0.585 sec  ( 25.1%)
XC gradient                 ....       1.222 sec  ( 52.4%)
CPCM gradient               ....       0.111 sec  (  4.8%)
   A-Matrix (El+Nuc)        ....       0.005 sec  (  0.2%)
   Potential                ....       0.106 sec  (  4.5%)

Maximum memory used throughout the entire SCFGRAD-calculation: 56.3 MB
------------------------------------------------------------------------------
                         ORCA GEOMETRY RELAXATION STEP
------------------------------------------------------------------------------

Reading the OPT-File                    .... done
Getting information on internals        .... done
Copying old internal coords+grads       .... done
Making the new internal coordinates     .... (new redundants).... done
Validating the new internal coordinates .... (new redundants).... done
Calculating the B-matrix                .... done
Calculating the G,G- and P matrices     .... done
Transforming gradient to internals      .... done
Projecting the internal gradient        .... done
Number of atoms                         ....   4
Number of internal coordinates          ....   7
Current Energy                          .... -1418.192160159 Eh
Current gradient norm                   ....     0.008745168 Eh/bohr
Maximum allowed component of the step   ....  0.300
Current trust radius                    ....  0.300
Updating the Hessian (BFGS)             .... done
Forming the augmented Hessian           .... done
Diagonalizing the augmented Hessian     .... done
Last element of RFO vector              ....  0.999455423
Lowest eigenvalues of augmented Hessian:
 -0.000283347  0.056159603  0.272408176  0.414064408  0.414064643
Length of the computed step             ....  0.033015809
The final length of the internal step   ....  0.033015809
Converting the step to cartesian space:
 Initial RMS(Int)=    0.0124788027
Transforming coordinates:
 Iter   0:  RMS(Cart)=    0.0095052538 RMS(Int)=    0.0124814901
 Iter   1:  RMS(Cart)=    0.0000121472 RMS(Int)=    0.0000165838
 Iter   2:  RMS(Cart)=    0.0000000788 RMS(Int)=    0.0000001059
done
Storing new coordinates                 .... done

                                .--------------------.
          ----------------------|Geometry convergence|-------------------------
          Item                value                   Tolerance       Converged
          ---------------------------------------------------------------------
          Energy change      -0.0009305322            0.0000050000      NO
          RMS gradient        0.0033041091            0.0001000000      NO
          MAX gradient        0.0050684409            0.0003000000      NO
          RMS step            0.0124788027            0.0020000000      NO
          MAX step            0.0186832891            0.0040000000      NO
          ........................................................
          Max(Bonds)      0.0099      Max(Angles)    0.00
          Max(Dihed)        0.00      Max(Improp)    0.42
          ---------------------------------------------------------------------

The optimization has not yet converged - more geometry cycles are needed


    ---------------------------------------------------------------------------
                         Redundant Internal Coordinates
                            (Angstroem and degrees)

        Definition                    Value    dE/dq     Step     New-Value
    ----------------------------------------------------------------------------
     1. B(Cl  1,C   0)                1.7328 -0.005035  0.0098    1.7426   
     2. B(Cl  2,C   0)                1.7329 -0.005068  0.0099    1.7428   
     3. B(Cl  3,C   0)                1.7328 -0.005031  0.0098    1.7426   
     4. A(Cl  1,C   0,Cl  3)          120.00  0.000005   -0.00    119.99   
     5. A(Cl  2,C   0,Cl  3)          120.00 -0.000002    0.00    120.00   
     6. A(Cl  1,C   0,Cl  2)          120.00 -0.000003    0.00    120.00   
     7. I(Cl  1,Cl  3,Cl  2,C   0)     -0.06  0.000262   -0.42     -0.48   
    ----------------------------------------------------------------------------

         *************************************************************
         *                GEOMETRY OPTIMIZATION CYCLE   3            *
         *************************************************************
---------------------------------
CARTESIAN COORDINATES (ANGSTROEM)
---------------------------------
  C     -5.777036   -2.768139    2.584465
  Cl    -4.343294   -1.779700    2.520049
  Cl    -6.209128   -3.766505    1.222875
  Cl    -6.786454   -2.747247    4.004783

----------------------------
CARTESIAN COORDINATES (A.U.)
----------------------------
  NO LB      ZA    FRAG     MASS         X           Y           Z
   0 C     6.0000    0    12.011  -10.917015   -5.231025    4.883931
   1 Cl   17.0000    0    35.453   -8.207636   -3.363146    4.762202
   2 Cl   17.0000    0    35.453  -11.733551   -7.117663    2.310899
   3 Cl   17.0000    0    35.453  -12.824539   -5.191544    7.567944

--------------------------------
INTERNAL COORDINATES (ANGSTROEM)
--------------------------------
 C      0   0   0     0.000000000000     0.00000000     0.00000000
 Cl     1   0   0     1.742634418650     0.00000000     0.00000000
 Cl     1   2   0     1.742804184801   120.00191110     0.00000000
 Cl     1   2   3     1.742602838009   119.99402091   180.55397003

---------------------------
INTERNAL COORDINATES (A.U.)
---------------------------
 C      0   0   0     0.000000000000     0.00000000     0.00000000
 Cl     1   0   0     3.293101802794     0.00000000     0.00000000
 Cl     1   2   0     3.293422614326   120.00191110     0.00000000
 Cl     1   2   3     3.293042124031   119.99402091   180.55397003

------------------------------------------------------------------------------
                   ___                                                        
                  /   \      - P O W E R E D   B Y -                         
                 /     \                                                     
                 |  |  |   _    _      __       _____    __    __             
                 |  |  |  | |  | |    /  \     |  _  \  |  |  /  |          
                  \  \/   | |  | |   /    \    | | | |  |  | /  /          
                 / \  \   | |__| |  /  /\  \   | |_| |  |  |/  /          
                |  |  |   |  __  | /  /__\  \  |    /   |      \           
                |  |  |   | |  | | |   __   |  |    \   |  |\   \          
                \     /   | |  | | |  |  |  |  | |\  \  |  | \   \       
                 \___/    |_|  |_| |__|  |__|  |_| \__\ |__|  \__/        
                                                                              
                      - O R C A' S   B I G   F R I E N D -                    
                                      &                                       
                       - I N T E G R A L  F E E D E R -                       
                                                                              
 v1 FN, 2020, v2 2021                                                         
------------------------------------------------------------------------------


Reading SHARK input file inp.SHARKINP.tmp ... ok
----------------------
SHARK INTEGRAL PACKAGE
----------------------

Number of atoms                             ...      4
Number of basis functions                   ...    142
Number of shells                            ...     50
Maximum angular momentum                    ...      3
Integral batch strategy                     ... SHARK/LIBINT Hybrid
RI-J (if used) integral strategy            ... SPLIT-RIJ (Revised 2003 algorithm where possible)
Printlevel                                  ...      1
Contraction scheme used                     ... SEGMENTED contraction
Coulomb Range Separation                    ... NOT USED
Exchange Range Separation                   ... NOT USED
Finite Nucleus Model                        ... NOT USED
Auxiliary Coulomb fitting basis             ... AVAILABLE
   # of basis functions in Aux-J            ...    202
   # of shells in Aux-J                     ...     66
   Maximum angular momentum in Aux-J        ...      4
Auxiliary J/K fitting basis                 ... NOT available
Auxiliary Correlation fitting basis         ... NOT available
Auxiliary 'external' fitting basis          ... NOT available
Integral threshold                          ...     2.500000e-11
Primitive cut-off                           ...     2.500000e-12
Primitive pair pre-selection threshold      ...     2.500000e-12

Calculating pre-screening integrals         ... done (  0.0 sec) Dimension = 50
Organizing shell pair data                  ... done (  0.1 sec)
Shell pair information
Total number of shell pairs                 ...      1275
Shell pairs after pre-screening             ...      1164
Total number of primitive shell pairs       ...      5281
Primitive shell pairs kept                  ...      3574
          la=0 lb=0:    174 shell pairs
          la=1 lb=0:    309 shell pairs
          la=1 lb=1:    153 shell pairs
          la=2 lb=0:    154 shell pairs
          la=2 lb=1:    144 shell pairs
          la=2 lb=2:     36 shell pairs
          la=3 lb=0:     80 shell pairs
          la=3 lb=1:     72 shell pairs
          la=3 lb=2:     32 shell pairs
          la=3 lb=3:     10 shell pairs

Calculating one electron integrals          ... done (  0.0 sec)
Calculating RI/J V-Matrix + Cholesky decomp.... done (  0.1 sec)
Calculating Nuclear repulsion               ... done (  0.0 sec) ENN=    244.919035115095 Eh

SHARK setup successfully completed in   0.5 seconds

Maximum memory used throughout the entire GTOINT-calculation: 34.0 MB

Diagonalization of the overlap matrix:
Smallest eigenvalue                        ... 2.315e-03
Time for diagonalization                   ...    0.003 sec
Threshold for overlap eigenvalues          ... 1.000e-08
Number of eigenvalues below threshold      ... 0
Time for construction of square roots      ...    0.021 sec
Total time needed                          ...    0.024 sec

-------------------
DFT GRID GENERATION
-------------------

General Integration Accuracy     IntAcc      ... 4.388
Radial Grid Type                 RadialGrid  ... OptM3 with GC (2021)
Angular Grid (max. ang.)         AngularGrid ... 4 (Lebedev-302)
Angular grid pruning method      GridPruning ... 4 (adaptive)
Weight generation scheme         WeightScheme... Becke
Basis function cutoff            BFCut       ... 1.0000e-11
Integration weight cutoff        WCut        ... 1.0000e-14
Angular grids for H and He will be reduced by one unit
Partially contracted basis set               ... off
Rotationally invariant grid construction     ... off

Total number of grid points                  ...    28174
Total number of batches                      ...      441
Average number of points per batch           ...       63
Average number of grid points per atom       ...     7044
Time for grid setup =    0.276 sec


--------------------
CPCM SOLVATION MODEL
--------------------
CPCM parameters:
  Epsilon                                         ...      80.4000
  Refrac                                          ...       1.3300
  Rsolv                                           ...       1.3000
  Surface type                                    ... GAUSSIAN VDW
  Epsilon function type                           ...         CPCM
Radii:
 Radius for C  used is    3.8550 Bohr (=   2.0400 Ang.)
 Radius for Cl used is    3.9684 Bohr (=   2.1000 Ang.)
Calculating surface                               ...        done! (  0.0s)
GEPOL surface points                              ...          315
GEPOL Volume                                      ...     719.2830
GEPOL Surface-area                                ...     441.0457
Calculating surface distance matrix               ...        done! (  0.0s)
Performing Cholesky decomposition & store         ...        done! (  0.0s)
Overall time for CPCM initialization              ...                 0.0s
--------------
SCF ITERATIONS
--------------
ITER       Energy         Delta-E        Max-DP      RMS-DP      [F,P]     Damp
               ***  Starting incremental Fock matrix formation  ***
                      *** Initiating the SOSCF procedure ***
                      *** Re-Reading the Fockian *** 
                      *** Removing any level shift *** 
ITER      Energy       Delta-E        Grad      Rot      Max-DP    RMS-DP
  0  -1418.18767153 -1418.1876715310  0.001289  0.001289  0.002298  0.000100
               *** Restarting incremental Fock matrix formation ***
  1  -1418.18774172  -0.0000701924  0.001113  0.003256  0.004106  0.000137
  2  -1418.18772664   0.0000150797  0.001678  0.001299  0.002394  0.000051
  3  -1418.18775214  -0.0000254972  0.000079  0.000725  0.000546  0.000020
  4  -1418.18775224  -0.0000001025  0.000059  0.000610  0.000358  0.000013
  5  -1418.18775231  -0.0000000635  0.000033  0.000215  0.000127  0.000005
  6  -1418.18775232  -0.0000000164  0.000019  0.000026  0.000049  0.000002
  7  -1418.18775234  -0.0000000132  0.000004  0.000011  0.000010  0.000000
                  ***Gradient check signals convergence***
              ***Rediagonalizing the Fockian in SOSCF/NRSCF***

               *****************************************************
               *                     SUCCESS                       *
               *           SCF CONVERGED AFTER   8 CYCLES          *
               *****************************************************

Total Energy       :        -1418.18775234 Eh          -38590.85066 eV
  Last Energy change         ...   -1.9368e-09  Tolerance :   1.0000e-08
  Last MAX-Density change    ...    4.5321e-06  Tolerance :   1.0000e-07
             **** THE GBW FILE WAS UPDATED (inp.gbw) ****
             **** DENSITY inp.scfp WAS UPDATED ****
             **** ENERGY FILE WAS UPDATED (inp.en.tmp) ****
             **** THE GBW FILE WAS UPDATED (inp.gbw) ****
             **** DENSITY inp.scfp WAS UPDATED ****
Total SCF time: 0 days 0 hours 0 min 7 sec 

Maximum memory used throughout the entire SCF-calculation: 43.0 MB


-------------------------------------------------------------------------------
                          DFT DISPERSION CORRECTION                            
                                                                               
                              DFTD3 V3.1  Rev 1                                
                          USING Becke-Johnson damping                          
-------------------------------------------------------------------------------
-------------------------   ----------------
Dispersion correction           -0.004562834
-------------------------   ----------------


-------------------------   --------------------
FINAL SINGLE POINT ENERGY     -1418.192315171981
-------------------------   --------------------

------------------------------------------------------------------------------
                         ORCA SCF GRADIENT CALCULATION
------------------------------------------------------------------------------

Gradient of the Kohn-Sham DFT energy:
Kohn-Sham wavefunction type      ... RKS
Hartree-Fock exchange scaling    ...    0.000
Number of operators              ...    1
Number of atoms                  ...    4
Basis set dimensions             ...  142
Integral neglect threshold       ... 2.5e-11
Integral primitive cutoff        ... 2.5e-12
SHARK Integral package           ... ON

Nuc. rep. gradient       (SHARK) ... done (  0.0 sec)
HCore & Overlap gradient (SHARK) ... done (  0.0 sec)
RI-J gradient            (SHARK) ... done (  0.6 sec)
[...]
     1. B(Cl  1,C   0)                1.7430 -0.000170  0.0000    1.7430   
     2. B(Cl  2,C   0)                1.7438 -0.000031 -0.0000    1.7437   
     3. B(Cl  3,C   0)                1.7436 -0.000037 -0.0000    1.7436   
     4. A(Cl  1,C   0,Cl  3)          120.01  0.000094    0.00    120.01   
     5. A(Cl  2,C   0,Cl  3)          119.93  0.000053    0.00    119.93   
     6. A(Cl  1,C   0,Cl  2)          120.02  0.000104   -0.00    120.02   
     7. I(Cl  1,Cl  3,Cl  2,C   0)     -2.15  0.005808   -0.00     -2.15   
    ----------------------------------------------------------------------------

         *************************************************************
         *                GEOMETRY OPTIMIZATION CYCLE  50            *
         *************************************************************
---------------------------------
CARTESIAN COORDINATES (ANGSTROEM)
---------------------------------
  C     -5.769815   -2.777391    2.589339
  Cl    -4.344927   -1.776085    2.518401
  Cl    -6.211880   -3.763777    1.221029
  Cl    -6.789289   -2.744338    4.003403

----------------------------
CARTESIAN COORDINATES (A.U.)
----------------------------
  NO LB      ZA    FRAG     MASS         X           Y           Z
   0 C     6.0000    0    12.011  -10.903370   -5.248508    4.893142
   1 Cl   17.0000    0    35.453   -8.210722   -3.356315    4.759089
   2 Cl   17.0000    0    35.453  -11.738752   -7.112508    2.307410
   3 Cl   17.0000    0    35.453  -12.829897   -5.186047    7.565335

--------------------------------
INTERNAL COORDINATES (ANGSTROEM)
--------------------------------
 C      0   0   0     0.000000000000     0.00000000     0.00000000
 Cl     1   0   0     1.742971669363     0.00000000     0.00000000
 Cl     1   2   0     1.743746857955   120.01854504     0.00000000
 Cl     1   2   3     1.743558504512   120.00794899   182.48193787

---------------------------
INTERNAL COORDINATES (A.U.)
---------------------------
 C      0   0   0     0.000000000000     0.00000000     0.00000000
 Cl     1   0   0     3.293739114279     0.00000000     0.00000000
 Cl     1   2   0     3.295204008420   120.01854504     0.00000000
 Cl     1   2   3     3.294848071997   120.00794899   182.48193787

------------------------------------------------------------------------------
                   ___                                                        
                  /   \      - P O W E R E D   B Y -                         
                 /     \                                                     
                 |  |  |   _    _      __       _____    __    __             
                 |  |  |  | |  | |    /  \     |  _  \  |  |  /  |          
                  \  \/   | |  | |   /    \    | | | |  |  | /  /          
                 / \  \   | |__| |  /  /\  \   | |_| |  |  |/  /          
                |  |  |   |  __  | /  /__\  \  |    /   |      \           
                |  |  |   | |  | | |   __   |  |    \   |  |\   \          
                \     /   | |  | | |  |  |  |  | |\  \  |  | \   \       
                 \___/    |_|  |_| |__|  |__|  |_| \__\ |__|  \__/        
                                                                              
                      - O R C A' S   B I G   F R I E N D -                    
                                      &                                       
                       - I N T E G R A L  F E E D E R -                       
                                                                              
 v1 FN, 2020, v2 2021                                                         
------------------------------------------------------------------------------


Reading SHARK input file inp.SHARKINP.tmp ... ok
----------------------
SHARK INTEGRAL PACKAGE
----------------------

Number of atoms                             ...      4
Number of basis functions                   ...    142
Number of shells                            ...     50
Maximum angular momentum                    ...      3
Integral batch strategy                     ... SHARK/LIBINT Hybrid
RI-J (if used) integral strategy            ... SPLIT-RIJ (Revised 2003 algorithm where possible)
Printlevel                                  ...      1
Contraction scheme used                     ... SEGMENTED contraction
Coulomb Range Separation                    ... NOT USED
Exchange Range Separation                   ... NOT USED
Finite Nucleus Model                        ... NOT USED
Auxiliary Coulomb fitting basis             ... AVAILABLE
   # of basis functions in Aux-J            ...    202
   # of shells in Aux-J                     ...     66
   Maximum angular momentum in Aux-J        ...      4
Auxiliary J/K fitting basis                 ... NOT available
Auxiliary Correlation fitting basis         ... NOT available
Auxiliary 'external' fitting basis          ... NOT available
Integral threshold                          ...     2.500000e-11
Primitive cut-off                           ...     2.500000e-12
Primitive pair pre-selection threshold      ...     2.500000e-12

Calculating pre-screening integrals         ... done (  0.1 sec) Dimension = 50
Organizing shell pair data                  ... done (  0.2 sec)
Shell pair information
Total number of shell pairs                 ...      1275
Shell pairs after pre-screening             ...      1164
Total number of primitive shell pairs       ...      5281
Primitive shell pairs kept                  ...      3574
          la=0 lb=0:    174 shell pairs
          la=1 lb=0:    309 shell pairs
          la=1 lb=1:    153 shell pairs
          la=2 lb=0:    154 shell pairs
          la=2 lb=1:    144 shell pairs
          la=2 lb=2:     36 shell pairs
          la=3 lb=0:     80 shell pairs
          la=3 lb=1:     72 shell pairs
          la=3 lb=2:     32 shell pairs
          la=3 lb=3:     10 shell pairs

Calculating one electron integrals          ... done (  0.0 sec)
Calculating RI/J V-Matrix + Cholesky decomp.... done (  0.3 sec)
Calculating Nuclear repulsion               ... done (  0.1 sec) ENN=    244.825644165665 Eh

SHARK setup successfully completed in   0.9 seconds

Maximum memory used throughout the entire GTOINT-calculation: 34.0 MB

Diagonalization of the overlap matrix:
Smallest eigenvalue                        ... 2.323e-03
Time for diagonalization                   ...    0.004 sec
Threshold for overlap eigenvalues          ... 1.000e-08
Number of eigenvalues below threshold      ... 0
Time for construction of square roots      ...    0.165 sec
Total time needed                          ...    0.169 sec

-------------------
DFT GRID GENERATION
-------------------

General Integration Accuracy     IntAcc      ... 4.388
Radial Grid Type                 RadialGrid  ... OptM3 with GC (2021)
Angular Grid (max. ang.)         AngularGrid ... 4 (Lebedev-302)
Angular grid pruning method      GridPruning ... 4 (adaptive)
Weight generation scheme         WeightScheme... Becke
Basis function cutoff            BFCut       ... 1.0000e-11
Integration weight cutoff        WCut        ... 1.0000e-14
Angular grids for H and He will be reduced by one unit
Partially contracted basis set               ... off
Rotationally invariant grid construction     ... off

Total number of grid points                  ...    28174
Total number of batches                      ...      442
Average number of points per batch           ...       63
Average number of grid points per atom       ...     7044
Time for grid setup =    0.330 sec


--------------------
CPCM SOLVATION MODEL
--------------------
CPCM parameters:
  Epsilon                                         ...      80.4000
  Refrac                                          ...       1.3300
  Rsolv                                           ...       1.3000
  Surface type                                    ... GAUSSIAN VDW
  Epsilon function type                           ...         CPCM
Radii:
 Radius for C  used is    3.8550 Bohr (=   2.0400 Ang.)
 Radius for Cl used is    3.9684 Bohr (=   2.1000 Ang.)
Calculating surface                               ...        done! (  0.0s)
GEPOL surface points                              ...          317
GEPOL Volume                                      ...     720.4748
GEPOL Surface-area                                ...     441.9822
Calculating surface distance matrix               ...        done! (  0.0s)
Performing Cholesky decomposition & store         ...        done! (  0.1s)
Overall time for CPCM initialization              ...                 0.1s
--------------
SCF ITERATIONS
--------------
ITER       Energy         Delta-E        Max-DP      RMS-DP      [F,P]     Damp
               ***  Starting incremental Fock matrix formation  ***
                      *** Initiating the SOSCF procedure ***
                      *** Re-Reading the Fockian *** 
                      *** Removing any level shift *** 
ITER      Energy       Delta-E        Grad      Rot      Max-DP    RMS-DP
  0  -1418.18785883 -1418.1878588277  0.000004  0.000004  0.000006  0.000000
               *** Restarting incremental Fock matrix formation ***
  1  -1418.18785883  -0.0000000006  0.000004  0.000008  0.000012  0.000000
  2  -1418.18785883   0.0000000012  0.000007  0.000005  0.000010  0.000000
                 **** Energy Check signals convergence ****
              ***Rediagonalizing the Fockian in SOSCF/NRSCF***

               *****************************************************
               *                     SUCCESS                       *
               *           SCF CONVERGED AFTER   3 CYCLES          *
               *****************************************************

Total Energy       :        -1418.18785883 Eh          -38590.85356 eV
  Last Energy change         ...   -9.3496e-10  Tolerance :   1.0000e-08
  Last MAX-Density change    ...    8.3511e-07  Tolerance :   1.0000e-07
             **** THE GBW FILE WAS UPDATED (inp.gbw) ****
             **** DENSITY inp.scfp WAS UPDATED ****
             **** ENERGY FILE WAS UPDATED (inp.en.tmp) ****
             **** THE GBW FILE WAS UPDATED (inp.gbw) ****
             **** DENSITY inp.scfp WAS UPDATED ****
Total SCF time: 0 days 0 hours 0 min 3 sec 

Maximum memory used throughout the entire SCF-calculation: 43.0 MB


-------------------------------------------------------------------------------
                          DFT DISPERSION CORRECTION                            
                                                                               
                              DFTD3 V3.1  Rev 1                                
                          USING Becke-Johnson damping                          
-------------------------------------------------------------------------------
-------------------------   ----------------
Dispersion correction           -0.004561759
-------------------------   ----------------


-------------------------   --------------------
FINAL SINGLE POINT ENERGY     -1418.192420587214
-------------------------   --------------------

------------------------------------------------------------------------------
                         ORCA SCF GRADIENT CALCULATION
------------------------------------------------------------------------------

Gradient of the Kohn-Sham DFT energy:
Kohn-Sham wavefunction type      ... RKS
Hartree-Fock exchange scaling    ...    0.000
Number of operators              ...    1
Number of atoms                  ...    4
Basis set dimensions             ...  142
Integral neglect threshold       ... 2.5e-11
Integral primitive cutoff        ... 2.5e-12
SHARK Integral package           ... ON

Nuc. rep. gradient       (SHARK) ... done (  0.0 sec)
HCore & Overlap gradient (SHARK) ... done (  0.0 sec)
RI-J gradient            (SHARK) ... done (  0.6 sec)
Exchange-correlation gradient    ... done
Dispersion correction            ... done

------------------
CARTESIAN GRADIENT
------------------

   1   C   :   -0.002636029    0.004105448   -0.002055587
   2   Cl  :    0.000756255   -0.001320320    0.000753477
   3   Cl  :    0.001008020   -0.001337246    0.000692374
   4   Cl  :    0.000871754   -0.001447883    0.000609736

Difference to translation invariance:
           :   -0.0000000002   -0.0000000001    0.0000000001

Difference to rotation invariance:
           :    0.0004074909   -0.0006541303    0.0007448584

Norm of the cartesian gradient     ...    0.0061174750
RMS gradient                       ...    0.0017659629
MAX gradient                       ...    0.0041054484

-------
TIMINGS
-------

Total SCF gradient time            ...        2.307 sec

One electron gradient       ....       0.040 sec  (  1.8%)
RI-J Coulomb gradient       ....       0.584 sec  ( 25.3%)
XC gradient                 ....       1.226 sec  ( 53.1%)
CPCM gradient               ....       0.112 sec  (  4.8%)
   A-Matrix (El+Nuc)        ....       0.005 sec  (  0.2%)
   Potential                ....       0.107 sec  (  4.6%)

Maximum memory used throughout the entire SCFGRAD-calculation: 56.2 MB
------------------------------------------------------------------------------
                         ORCA GEOMETRY RELAXATION STEP
------------------------------------------------------------------------------

Reading the OPT-File                    .... done
Getting information on internals        .... done
Copying old internal coords+grads       .... done
Making the new internal coordinates     .... (new redundants).... done
Validating the new internal coordinates .... (new redundants).... done
Calculating the B-matrix                .... done
Calculating the G,G- and P matrices     .... done
Transforming gradient to internals      .... done
Projecting the internal gradient        .... done
Number of atoms                         ....   4
Number of internal coordinates          ....   7
Current Energy                          .... -1418.192420587 Eh
Current gradient norm                   ....     0.006117475 Eh/bohr
Maximum allowed component of the step   ....  0.300
Current trust radius                    ....  0.300
Resetting Hessian after 50 BFGS Update Steps....
Build internal Hessian                  .... (Almloef) done
Updating Hessian with the last 5 steps  .... done
Forming the augmented Hessian           .... done
Diagonalizing the augmented Hessian     .... done
Last element of RFO vector              ....  0.993084654
Lowest eigenvalues of augmented Hessian:
 -0.000685750  0.048976665  0.147409203  0.351353542  0.380972425
Length of the computed step             ....  0.118217989
The final length of the internal step   ....  0.118217989
Converting the step to cartesian space:
 Initial RMS(Int)=    0.0446822000
Transforming coordinates:
 Iter   0:  RMS(Cart)=    0.0324624673 RMS(Int)=    0.0446939616
 Iter   1:  RMS(Cart)=    0.0012799130 RMS(Int)=    0.0016658695
 Iter   2:  RMS(Cart)=    0.0000255219 RMS(Int)=    0.0000356982
 Iter   3:  RMS(Cart)=    0.0000019308 RMS(Int)=    0.0000025000
 Iter   4:  RMS(Cart)=    0.0000000432 RMS(Int)=    0.0000000604
done
Storing new coordinates                 .... done

                                .--------------------.
          ----------------------|Geometry convergence|-------------------------
          Item                value                   Tolerance       Converged
          ---------------------------------------------------------------------
          Energy change      -0.0000000033            0.0000050000      YES
          RMS gradient        0.0021968353            0.0001000000      NO
          MAX gradient        0.0058074872            0.0003000000      NO
          RMS step            0.0446822000            0.0020000000      NO
          MAX step            0.1179480163            0.0040000000      NO
          ........................................................
          Max(Bonds)      0.0032      Max(Angles)    0.16
          Max(Dihed)        0.00      Max(Improp)    6.76
          ---------------------------------------------------------------------

The optimization has not yet converged - more geometry cycles are needed


    ---------------------------------------------------------------------------
                         Redundant Internal Coordinates
                            (Angstroem and degrees)

        Definition                    Value    dE/dq     Step     New-Value
    ----------------------------------------------------------------------------
     1. B(Cl  1,C   0)                1.7430 -0.000172 -0.0000    1.7429   
     2. B(Cl  2,C   0)                1.7437 -0.000042  0.0032    1.7469   
     3. B(Cl  3,C   0)                1.7436 -0.000042  0.0019    1.7455   
     4. A(Cl  1,C   0,Cl  3)          120.01  0.000095   -0.16    119.85   
     5. A(Cl  2,C   0,Cl  3)          119.93  0.000052   -0.14    119.78   
     6. A(Cl  1,C   0,Cl  2)          120.02  0.000105    0.01    120.03   
     7. I(Cl  1,Cl  3,Cl  2,C   0)     -2.15  0.005807   -6.76     -8.91   
    ----------------------------------------------------------------------------




    ----------------------------------------------------------------------------
                                  WARNING !!!
       The optimization did not converge but reached the maximum number of
       optimization cycles.
       Please check your results very carefully.
    ----------------------------------------------------------------------------



                            ***************************************
                            *     ORCA property calculations      *
                            ***************************************

                                    ---------------------
                                    Active property flags
                                    ---------------------
   (+) Dipole Moment


------------------------------------------------------------------------------
                       ORCA ELECTRIC PROPERTIES CALCULATION
------------------------------------------------------------------------------

Dipole Moment Calculation                       ... on
Quadrupole Moment Calculation                   ... off
Polarizability Calculation                      ... off
GBWName                                         ... inp.gbw
Electron density                                ... inp.scfp
The origin for moment calculation is the CENTER OF MASS  = (-10.934726, -5.206987  4.871564)

-------------
DIPOLE MOMENT
-------------
                                X             Y             Z
Electronic contribution:     -0.63946       0.86850      -0.44195
Nuclear contribution   :      0.02044      -0.02745       0.01409
                        -----------------------------------------
Total Dipole Moment    :     -0.61902       0.84105      -0.42786
                        -----------------------------------------
Magnitude (a.u.)       :      1.12855
Magnitude (Debye)      :      2.86854



--------------------
Rotational spectrum 
--------------------
 
Rotational constants in cm-1:     0.104470     0.104155     0.052185 
Rotational constants in MHz :  3131.925400  3122.476807  1564.453768 

 Dipole components along the rotational axes: 
x,y,z [a.u.] :     0.006848     0.020052    -1.128349 
x,y,z [Debye]:     0.017405     0.050968    -2.868036 

 

Timings for individual modules:

Sum of individual times         ...      377.132 sec (=   6.286 min)
GTO integral calculation        ...       32.566 sec (=   0.543 min)   8.6 %
SCF iterations                  ...      221.708 sec (=   3.695 min)  58.8 %
SCF Gradient evaluation         ...      118.777 sec (=   1.980 min)  31.5 %
Geometry relaxation             ...        4.081 sec (=   0.068 min)   1.1 %
                             ****ORCA TERMINATED NORMALLY****
TOTAL RUN TIME: 0 days 0 hours 6 minutes 35 seconds 633 msec
