 Entering Gaussian System
 *********************************************
 Gaussian 98:
 frequency output generated by the xtb code
 *********************************************
                         Standard orientation:
 --------------------------------------------------------------------
  Center     Atomic     Atomic              Coordinates (Angstroms)
  Number     Number      Type              X           Y           Z
 --------------------------------------------------------------------
    1          7             0       -8.592691   -3.298986   -1.819166
    2          6             0       -7.628817   -2.630300   -1.771552
    3          7             0       -6.669070   -1.796392   -1.812070
    4          1             0       -5.834601   -2.098348   -1.310052
 --------------------------------------------------------------------
     1 basis functions        1 primitive gaussians
     1 alpha electrons        1 beta electrons
 
 Harmonic frequencies (cm**-1), IR intensities (km*mol⁻¹),
 Raman scattering activities (A**4/amu), Raman depolarization ratios,
 reduced masses (AMU), force constants (mDyne/A) and normal coordinates:
                      1                      2                      3
                        a                      a                      a 
 Frequencies --   454.2774               498.6193              1079.2609
 Red. masses --    10.8284                11.8133                 3.9655
 Frc consts  --     0.0000                 0.0000                 0.0000
 IR Inten    --    43.8574                39.8814               115.4376
 Raman Activ --     0.0000                 0.0000                 0.0000
 Depolar     --     0.0000                 0.0000                 0.0000
 Atom AN      X      Y      Z        X      Y      Z        X      Y      Z
   1   7    -0.17   0.31  -0.23    -0.14   0.18   0.34     0.03   0.08  -0.03
   2   6     0.38  -0.52   0.43     0.28  -0.36  -0.69     0.15  -0.21   0.17
   3   7    -0.22   0.08  -0.13    -0.10   0.12   0.24    -0.06   0.31  -0.19
   4   1     0.12   0.35  -0.13    -0.09   0.11   0.21    -0.42  -0.73   0.21
                      4                      5                      6
                        a                      a                      a 
 Frequencies --  1271.2638              2367.9786              3250.3657
 Red. masses --    13.6216                12.5780                 1.8743
 Frc consts  --     0.0000                 0.0000                 0.0000
 IR Inten    --    50.5043               829.2672               216.5758
 Raman Activ --     0.0000                 0.0000                 0.0000
 Depolar     --     0.0000                 0.0000                 0.0000
 Atom AN      X      Y      Z        X      Y      Z        X      Y      Z
   1   7    -0.50  -0.35  -0.03     0.43   0.30   0.02    -0.00  -0.00   0.00
   2   6    -0.11  -0.16   0.04    -0.66  -0.48  -0.02     0.01   0.02  -0.01
   3   7     0.57   0.48  -0.02     0.17   0.13  -0.00    -0.22   0.06  -0.12
   4   1     0.13   0.07   0.02     0.07   0.04   0.01     0.81  -0.26   0.47
