4
 energy: -8.639148636452 gnorm: 0.000446430897 xtb: 6.7.1 (edcfbbe)
N           -8.59269042046263       -3.29898600700416       -1.81916545815746
C           -7.62881588480129       -2.63029928560110       -1.77155216745512
N           -6.66906961170400       -1.79639189821360       -1.81206954505662
H           -5.83460095430417       -2.09834812094492       -1.31005141335729
