4
 energy: -8.618418790433 gnorm: 0.245940114527 xtb: 6.7.1 (edcfbbe)
N           -8.47622600000000       -3.30207800000000       -1.76958200000000
C           -7.60803000000000       -2.53787900000000       -1.81138800000000
N           -6.70797400000000       -1.79052000000000       -1.83124800000000
H           -5.93287200000000       -2.19368700000000       -1.30073800000000
4
 energy: -8.637609337303 gnorm: 0.029531863842 xtb: 6.7.1 (edcfbbe)
N           -8.54039787279064       -3.32862709581379       -1.78215244204325
C           -7.64137278378757       -2.56818735170632       -1.80928103473475
N           -6.66192019357887       -1.76831571519167       -1.82387458399396
H           -5.88141114984292       -2.15903383728822       -1.29764793922804
4
 energy: -8.638109835538 gnorm: 0.012233087501 xtb: 6.7.1 (edcfbbe)
N           -8.55002578411001       -3.32603711265338       -1.78747762578668
C           -7.64516684778318       -2.57821912727964       -1.80559755608887
N           -6.66025962288145       -1.77142037705771       -1.82156500165059
H           -5.86964974522536       -2.14848738300928       -1.29831581647387
4
 energy: -8.638542012308 gnorm: 0.015869614397 xtb: 6.7.1 (edcfbbe)
N           -8.56786681714292       -3.32085340428047       -1.79754636219513
C           -7.64625836864068       -2.59489209421307       -1.79732562963710
N           -6.65967082551113       -1.77864780445868       -1.81754012921911
H           -5.85130598870528       -2.12977069704778       -1.30054387894866
4
 energy: -8.638835696699 gnorm: 0.016461752600 xtb: 6.7.1 (edcfbbe)
N           -8.58327657943221       -3.31347431701817       -1.80776093640314
C           -7.64308240315572       -2.61110307855353       -1.78753580152699
N           -6.66160760125839       -1.78739637030149       -1.81376104840932
H           -5.83713541615368       -2.11219023412681       -1.30389821366055
4
 energy: -8.639066931197 gnorm: 0.009080542274 xtb: 6.7.1 (edcfbbe)
N           -8.59538007444722       -3.30357172627949       -1.81793258968987
C           -7.63601939470068       -2.62714998001230       -1.77622906832774
N           -6.66576987710153       -1.79717478202607       -1.81036063822898
H           -5.82793265375057       -2.09626751168214       -1.30843370375341
4
 energy: -8.639134824016 gnorm: 0.002665348327 xtb: 6.7.1 (edcfbbe)
N           -8.59563588452582       -3.29899667827167       -1.82043275796555
C           -7.63123901367704       -2.63133903386847       -1.77206654775282
N           -6.66840998887386       -1.80000005123589       -1.80996964004322
H           -5.82981711292329       -2.09382823662397       -1.31048705423841
4
 energy: -8.639143255045 gnorm: 0.001738598090 xtb: 6.7.1 (edcfbbe)
N           -8.59409329933135       -3.29860035243525       -1.82000604304628
C           -7.62981541698538       -2.63089499224816       -1.77171174758394
N           -6.66893125720899       -1.79915848884388       -1.81062258103211
H           -5.83226202647428       -2.09551016647271       -1.31061562833768
4
 energy: -8.639147296345 gnorm: 0.001652772094 xtb: 6.7.1 (edcfbbe)
N           -8.59267022180843       -3.29885050521825       -1.81929263196038
C           -7.62875872478235       -2.63019318759255       -1.77164296383776
N           -6.66914647148417       -1.79724998543977       -1.81170497139187
H           -5.83452658192505       -2.09787032174943       -1.31031543280998
4
 energy: -8.639148636451 gnorm: 0.000446254670 xtb: 6.7.1 (edcfbbe)
N           -8.59266679675678       -3.29902782308071       -1.81920121012651
C           -7.62879592855175       -2.63033613795931       -1.77158338779260
N           -6.66905388037000       -1.79642365465446       -1.81209595981081
H           -5.83458539432147       -2.09837638430552       -1.31007544227008
