      -----------------------------------------------------------      
     |                   =====================                   |     
     |                           x T B                           |     
     |                   =====================                   |     
     |                         S. Grimme                         |     
     |          Mulliken Center for Theoretical Chemistry        |     
     |                    University of Bonn                     |     
      -----------------------------------------------------------      

   * xtb version 6.7.1 (edcfbbe) compiled by 'albert@albert-system' on 2024-07-22

   xtb is free software: you can redistribute it and/or modify it under
   the terms of the GNU Lesser General Public License as published by
   the Free Software Foundation, either version 3 of the License, or
   (at your option) any later version.
   
   xtb is distributed in the hope that it will be useful,
   but WITHOUT ANY WARRANTY; without even the implied warranty of
   MERCHANTABILITY or FITNESS FOR A PARTICULAR PURPOSE.  See the
   GNU Lesser General Public License for more details.
   
   Cite this work as:
   * C. Bannwarth, E. Caldeweyher, S. Ehlert, A. Hansen, P. Pracht,
     J. Seibert, S. Spicher, S. Grimme, WIREs Comput. Mol. Sci., 2020, 11,
     e01493. DOI: 10.1002/wcms.1493
   
   for GFN2-xTB:
   * C. Bannwarth, S. Ehlert and S. Grimme., J. Chem. Theory Comput., 2019,
     15, 1652-1671. DOI: 10.1021/acs.jctc.8b01176
   for GFN1-xTB:
   * S. Grimme, C. Bannwarth, P. Shushkov, J. Chem. Theory Comput., 2017,
     13, 1989-2009. DOI: 10.1021/acs.jctc.7b00118
   for GFN0-xTB:
   * P. Pracht, E. Caldeweyher, S. Ehlert, S. Grimme, ChemRxiv, 2019, preprint.
     DOI: 10.26434/chemrxiv.8326202.v1
   for GFN-FF:
   * S. Spicher and S. Grimme, Angew. Chem. Int. Ed., 2020, 59, 15665-15673.
     DOI: 10.1002/anie.202004239
   
   for ALPB and GBSA implicit solvation:
   * S. Ehlert, M. Stahn, S. Spicher, S. Grimme, J. Chem. Theory Comput.,
     2021, 17, 4250-4261. DOI: 10.1021/acs.jctc.1c00471
   
   for ddCOSMO and CPCM-X implicit solvation:
   * M. Stahn, S. Ehlert, S. Grimme, J. Phys. Chem. A,
     2023, XX, XXXX-XXXX. DOI: 10.1021/acs.jpca.3c04382
   
   for DFT-D4:
   * E. Caldeweyher, C. Bannwarth and S. Grimme, J. Chem. Phys., 2017,
     147, 034112. DOI: 10.1063/1.4993215
   * E. Caldeweyher, S. Ehlert, A. Hansen, H. Neugebauer, S. Spicher,
     C. Bannwarth and S. Grimme, J. Chem. Phys., 2019, 150, 154122.
     DOI: 10.1063/1.5090222
   * E. Caldeweyher, J.-M. Mewes, S. Ehlert and S. Grimme, Phys. Chem. Chem. Phys.
     2020, 22, 8499-8512. DOI: 10.1039/D0CP00502A
   
   for sTDA-xTB:
   * S. Grimme and C. Bannwarth, J. Chem. Phys., 2016, 145, 054103.
     DOI: 10.1063/1.4959605
   
   in the mass-spec context:
   * V. Asgeirsson, C. Bauer and S. Grimme, Chem. Sci., 2017, 8, 4879.
     DOI: 10.1039/c7sc00601b
   * J. Koopman and S. Grimme, ACS Omega 2019, 4, 12, 15120-15133.
     DOI: 10.1021/acsomega.9b02011
   
   for metadynamics refer to:
   * S. Grimme, J. Chem. Theory Comput., 2019, 155, 2847-2862
     DOI: 10.1021/acs.jctc.9b00143
   
   for SPH calculations refer to:
   * S. Spicher and S. Grimme, J. Chem. Theory Comput., 2021, 17, 1701-1714
     DOI: 10.1021/acs.jctc.0c01306
   
   for ONIOM refer to:
   * C. Plett, A. Katbashev, S. Ehlert, S. Grimme, M. Bursch,
     Phys. Chem. Chem. Phys., 2023, 25, 17860-17868. DOI: 10.1039/D3CP02178E
   
   for DIPRO refer to:
   * J. Kohn, N. Gildemeister, S. Grimme, D. Fazzi, A. Hansen,
     J. Chem. Phys., 2023, just accepted.
   
   for PTB refer to:
   * S. Grimme, M. Mueller, A. Hansen, J. Chem. Phys., 2023, 158, 124111.
     DOI: 10.1063/5.0137838
   
   with help from (in alphabetical order)
   P. Atkinson, C. Bannwarth, F. Bohle, G. Brandenburg, E. Caldeweyher
   M. Checinski, S. Dohm, S. Ehlert, S. Ehrlich, I. Gerasimov, C. Hölzer
   A. Katbashev, J. Kohn, J. Koopman, C. Lavigne, S. Lehtola, F. März, M. Müller,
   F. Musil, H. Neugebauer, J. Pisarek, C. Plett, P. Pracht, F. Pultar,
   J. Seibert, P. Shushkov, S. Spicher, M. Stahn, M. Steiner, T. Strunk,
   J. Stückrath, T. Rose, and J. Unsleber
   
 * started run on 2025/10/18 at 05:02:43.895     
   ID    Z sym.   atoms
    1    8 O      1, 2

           -------------------------------------------------
          |                Calculation Setup                |
           -------------------------------------------------

          program call               : xtb xyz.xyz --charge -1 --ohess
          hostname                   : m003
          coordinate file            : xyz.xyz
          omp threads                :                     2


           -------------------------------------------------
          |                 G F N 2 - x T B                 |
           -------------------------------------------------

        Reference                      10.1021/acs.jctc.8b01176
      * Hamiltonian:
        H0-scaling (s, p, d)           1.850000    2.230000    2.230000
        zeta-weighting                 0.500000
      * Dispersion:
        s8                             2.700000
        a1                             0.520000
        a2                             5.000000
        s9                             5.000000
      * Repulsion:
        kExp                           1.500000    1.000000
        rExp                           1.000000
      * Coulomb:
        alpha                          2.000000
        third order                    shell-resolved
        anisotropic                    true
        a3                             3.000000
        a5                             4.000000
        cn-shift                       1.200000
        cn-exp                         4.000000
        max-rad                        5.000000


          ...................................................
          :                      SETUP                      :
          :.................................................:
          :  # basis functions                   8          :
          :  # atomic orbitals                   8          :
          :  # shells                            4          :
          :  # electrons                        13          :
          :  max. iterations                   250          :
          :  Hamiltonian                  GFN2-xTB          :
          :  restarted?                      false          :
          :  GBSA solvation                  false          :
          :  PC potential                    false          :
          :  electronic temp.          300.0000000     K    :
          :  accuracy                    1.0000000          :
          :  -> integral cutoff          0.2500000E+02      :
          :  -> integral neglect         0.1000000E-07      :
          :  -> SCF convergence          0.1000000E-05 Eh   :
          :  -> wf. convergence          0.1000000E-03 e    :
          :  Broyden damping             0.4000000          :
          :  net charge                         -1          :
          :  unpaired electrons                  0          :
          ...................................................

 iter      E             dE          RMSdq      gap      omega  full diag
   1     -8.1679260 -0.816793E+01  0.626E+00   11.96       0.0  T
   2     -8.1679349 -0.890549E-05  0.375E+00   11.95       1.0  T
   3     -8.1679375 -0.252943E-05  0.282E-02   11.93       2.5  T
   4     -8.1679375 -0.767599E-09  0.133E-02   11.93       5.3  T
   5     -8.1679375 -0.201410E-09  0.199E-05   11.93    3557.8  T
   6     -8.1679375  0.000000E+00  0.113E-07   11.93  100000.0  T

   *** convergence criteria satisfied after 6 iterations ***

         #    Occupation            Energy/Eh            Energy/eV
      -------------------------------------------------------------
         1        2.0000           -0.3969916             -10.8027
         2        2.0000           -0.3557482              -9.6804
         3        2.0000           -0.2421566              -6.5894
         4        2.0000           -0.2275094              -6.1908
         5        2.0000           -0.2275094              -6.1908
         6        1.5000           -0.0629429              -1.7128
         7        1.5000           -0.0629429              -1.7128 (HOMO)
         8                          0.3756115              10.2209 (LUMO)
      -------------------------------------------------------------
                  HL-Gap            0.4385545 Eh           11.9337 eV
             Fermi-level            0.0466957 Eh            1.2707 eV

 SCC (total)                   0 d,  0 h,  0 min,  0.023 sec
 SCC setup                      ...        0 min,  0.000 sec (  0.556%)
 Dispersion                     ...        0 min,  0.000 sec (  0.132%)
 classical contributions        ...        0 min,  0.000 sec (  0.092%)
 integral evaluation            ...        0 min,  0.000 sec (  0.634%)
 iterations                     ...        0 min,  0.022 sec ( 97.386%)
 molecular gradient             ...        0 min,  0.000 sec (  0.797%)
 printout                       ...        0 min,  0.000 sec (  0.299%)

         :::::::::::::::::::::::::::::::::::::::::::::::::::::
         ::                     SUMMARY                     ::
         :::::::::::::::::::::::::::::::::::::::::::::::::::::
         :: total energy              -8.164014559018 Eh    ::
         :: gradient norm              0.098744903589 Eh/a0 ::
         :: HOMO-LUMO gap             11.933674044825 eV    ::
         ::.................................................::
         :: SCC energy                -8.167937460070 Eh    ::
         :: -> isotropic ES            0.222006275156 Eh    ::
         :: -> anisotropic ES         -0.017660399269 Eh    ::
         :: -> anisotropic XC         -0.009680804696 Eh    ::
         :: -> dispersion             -0.000306033726 Eh    ::
         :: repulsion energy           0.003922901052 Eh    ::
         :: add. restraining           0.000000000000 Eh    ::
         :: total charge              -1.000000000000 e     ::
         :::::::::::::::::::::::::::::::::::::::::::::::::::::

      ----------------------------------------------------------- 
     |                   =====================                   |
     |                        A N C O P T                        |
     |                   =====================                   |
     |               Approximate Normal Coordinate               |
     |                Rational Function Optimizer                |
      ----------------------------------------------------------- 
      ----------------------------------------------------------- 
     |                   =====================                   |
     |                        A N C O P T                        |
     |                   =====================                   |
     |               Approximate Normal Coordinate               |
     |                Rational Function Optimizer                |
      ----------------------------------------------------------- 

          ...................................................
          :                      SETUP                      :
          :.................................................:
          :   optimization level            normal          :
          :   max. optcycles                   200          :
          :   ANC micro-cycles                  20          :
          :   degrees of freedom                 1          :
          :.................................................:
          :   RF solver                   davidson          :
          :   write xtbopt.log                true          :
          :   linear (good luck)              true          :
          :   energy convergence         0.5000000E-05 Eh   :
          :   grad. convergence          0.1000000E-02 Eh/α :
          :   maxmium RF displ.          1.0000000          :
          :   Hlow (freq-cutoff)         0.1000000E-01      :
          :   Hmax (freq-cutoff)         5.0000000          :
          :   S6 in model hess.         20.0000000          :
          ...................................................

generating ANC from exact Hessian ...
Using Lindh-Hessian (1995)
 Shifting diagonal of input Hessian by   0.000000000000000E+000
 Lowest  eigenvalues of input Hessian
    0.000000    0.000000    0.000000    0.000000    0.000000    1.552494
 Highest eigenvalues
    0.000000    0.000000    0.000000    0.000000    0.000000    1.552494
 

........................................................................
.............................. CYCLE    1 ..............................
........................................................................

 iter      E             dE          RMSdq      gap      omega  full diag
   1     -8.1679375 -0.816794E+01  0.501E-08   11.93       0.0  T
   2     -8.1679375  0.532907E-14  0.432E-08   11.93  100000.0  T
   3     -8.1679375 -0.888178E-14  0.247E-08   11.93  100000.0  T
     SCC iter.                  ...        0 min,  0.000 sec
     gradient                   ...        0 min,  0.000 sec
 * total energy  :    -8.1640146 Eh     change       -0.1776357E-14 Eh
   gradient norm :     0.0987449 Eh/α   predicted     0.0000000E+00 (-100.00%)
   displ. norm   :     0.0633488 α      lambda       -0.6255373E-02
   maximum displ.:     0.0633488 α      in ANC's #1, #1, #1, ...

........................................................................
.............................. CYCLE    2 ..............................
........................................................................

 iter      E             dE          RMSdq      gap      omega  full diag
   1     -8.1699658 -0.816997E+01  0.595E-01   10.24       0.0  T
   2     -8.1699659 -0.132076E-06  0.357E-01   10.24       1.0  T
   3     -8.1699660 -0.765955E-07  0.491E-03   10.24      14.4  T
   4     -8.1699660 -0.330740E-10  0.168E-03   10.24      42.2  T
   5     -8.1699660 -0.428457E-11  0.906E-09   10.24  100000.0  T
   6     -8.1699660 -0.177636E-14  0.576E-09   10.24  100000.0  T
     SCC iter.                  ...        0 min,  0.000 sec
     gradient                   ...        0 min,  0.000 sec
 * total energy  :    -8.1675711 Eh     change       -0.3556503E-02 Eh
   gradient norm :     0.0172351 Eh/α   predicted    -0.3140237E-02 ( -11.70%)
   displ. norm   :     0.0133926 α      lambda       -0.2308215E-03
   maximum displ.:     0.0133926 α      in ANC's #1, #1, #1, ...

........................................................................
.............................. CYCLE    3 ..............................
........................................................................

 iter      E             dE          RMSdq      gap      omega  full diag
   1     -8.1698593 -0.816986E+01  0.118E-01    9.93       0.0  T
   2     -8.1698593 -0.591362E-08  0.707E-02    9.93       1.0  T
   3     -8.1698593 -0.347658E-08  0.105E-03    9.93      67.6  T
   4     -8.1698593 -0.162892E-11  0.335E-04    9.93     211.1  T
   5     -8.1698593 -0.186517E-12  0.288E-09    9.93  100000.0  T
     SCC iter.                  ...        0 min,  0.000 sec
     gradient                   ...        0 min,  0.000 sec
 * total energy  :    -8.1677035 Eh     change       -0.1324258E-03 Eh
   gradient norm :     0.0026830 Eh/α   predicted    -0.1154317E-03 ( -12.83%)
   displ. norm   :     0.0024692 α      lambda       -0.6623939E-05
   maximum displ.:     0.0024692 α      in ANC's #1, #1, #1, ...

........................................................................
.............................. CYCLE    4 ..............................
........................................................................

 iter      E             dE          RMSdq      gap      omega  full diag
   1     -8.1698212 -0.816982E+01  0.214E-02    9.87       0.0  T
   2     -8.1698212 -0.200355E-09  0.129E-02    9.87       5.5  T
   3     -8.1698212 -0.118085E-09  0.193E-04    9.87     366.6  T
   4     -8.1698212 -0.586198E-13  0.415E-06    9.87   17023.1  T
     SCC iter.                  ...        0 min,  0.000 sec
     gradient                   ...        0 min,  0.000 sec
 * total energy  :    -8.1677069 Eh     change       -0.3420212E-05 Eh
   gradient norm :     0.0000920 Eh/α   predicted    -0.3312433E-05 (  -3.15%)
   displ. norm   :     0.0001315 α      lambda       -0.8557843E-08
   maximum displ.:     0.0001315 α      in ANC's #1, #1, #1, ...

   *** GEOMETRY OPTIMIZATION CONVERGED AFTER 4 ITERATIONS ***

------------------------------------------------------------------------
 total energy gain   :        -0.0036923 Eh       -2.3170 kcal/mol
 total RMSD          :         0.0560103 a0        0.0296 Å
 total power (kW/mol):        -2.4235653 (step)-3362.6099 (real)
------------------------------------------------------------------------

 ANCopt (total)                0 d,  0 h,  0 min,  0.003 sec
 optimizer setup                ...        0 min,  0.000 sec (  6.523%)
 model hessian                  ...        0 min,  0.000 sec (  0.898%)
 ANC generation                 ...        0 min,  0.000 sec (  1.515%)
 coordinate transformation      ...        0 min,  0.000 sec (  0.898%)
 single point calculation       ...        0 min,  0.002 sec ( 76.132%)
 optimization log               ...        0 min,  0.000 sec (  3.426%)
 hessian update                 ...        0 min,  0.000 sec (  0.758%)
 rational function              ...        0 min,  0.000 sec (  3.443%)

================
 final structure:
================
2
 xtb: 6.7.1 (edcfbbe)
O           -3.00727789674504       -4.53771341875273        2.75375962601345
O           -4.16282410325496       -5.19531458124727        2.57683637398655
 
 Bond Distances (Angstroems)
 ---------------------------
O1-O2=1.3413         O2-O1=1.3413         
 O  O  Rav=1.3413 sigma=0.0000  Rmin=1.3413  Rmax=1.3413     1
 
 selected bond angles (degree)
 --------------------

 
 selected dihedral angles (degree)
 ---------------------------------

           -------------------------------------------------
          |                Final Singlepoint                |
           -------------------------------------------------

          ...................................................
          :                      SETUP                      :
          :.................................................:
          :  # basis functions                   8          :
          :  # atomic orbitals                   8          :
          :  # shells                            4          :
          :  # electrons                        13          :
          :  max. iterations                   250          :
          :  Hamiltonian                  GFN2-xTB          :
          :  restarted?                      false          :
          :  GBSA solvation                  false          :
          :  PC potential                    false          :
          :  electronic temp.          300.0000000     K    :
          :  accuracy                    1.0000000          :
          :  -> integral cutoff          0.2500000E+02      :
          :  -> integral neglect         0.1000000E-07      :
          :  -> SCF convergence          0.1000000E-05 Eh   :
          :  -> wf. convergence          0.1000000E-03 e    :
          :  Broyden damping             0.4000000          :
          :  net charge                         -1          :
          :  unpaired electrons                  0          :
          ...................................................

 iter      E             dE          RMSdq      gap      omega  full diag
   1     -8.1698212 -0.816982E+01  0.111E-09    9.87       0.0  T
   2     -8.1698212 -0.710543E-14  0.639E-10    9.87  100000.0  T
   3     -8.1698212  0.532907E-14  0.436E-10    9.87  100000.0  T

   *** convergence criteria satisfied after 3 iterations ***

         #    Occupation            Energy/Eh            Energy/eV
      -------------------------------------------------------------
         1        2.0000           -0.3925841             -10.6828
         2        2.0000           -0.3578150              -9.7366
         3        2.0000           -0.2456400              -6.6842
         4        2.0000           -0.2213106              -6.0222
         5        2.0000           -0.2213106              -6.0222
         6        1.5000           -0.0803369              -2.1861
         7        1.5000           -0.0803369              -2.1861 (HOMO)
         8                          0.2823189               7.6823 (LUMO)
      -------------------------------------------------------------
                  HL-Gap            0.3626558 Eh            9.8684 eV
             Fermi-level            0.0103271 Eh            0.2810 eV

 SCC (total)                   0 d,  0 h,  0 min,  0.001 sec
 SCC setup                      ...        0 min,  0.000 sec ( 12.319%)
 Dispersion                     ...        0 min,  0.000 sec (  2.192%)
 classical contributions        ...        0 min,  0.000 sec (  1.096%)
 integral evaluation            ...        0 min,  0.000 sec ( 16.396%)
 iterations                     ...        0 min,  0.000 sec ( 31.434%)
 molecular gradient             ...        0 min,  0.000 sec ( 23.148%)
 printout                       ...        0 min,  0.000 sec (  8.286%)

         :::::::::::::::::::::::::::::::::::::::::::::::::::::
         ::                     SUMMARY                     ::
         :::::::::::::::::::::::::::::::::::::::::::::::::::::
         :: total energy              -8.167706908089 Eh    ::
         :: gradient norm              0.000091999237 Eh/a0 ::
         :: HOMO-LUMO gap              9.868366468707 eV    ::
         ::.................................................::
         :: SCC energy                -8.169821195616 Eh    ::
         :: -> isotropic ES            0.218274603567 Eh    ::
         :: -> anisotropic ES         -0.015517721106 Eh    ::
         :: -> anisotropic XC         -0.006607336727 Eh    ::
         :: -> dispersion             -0.000306037781 Eh    ::
         :: repulsion energy           0.002114287527 Eh    ::
         :: add. restraining           0.000000000000 Eh    ::
         :: total charge              -1.000000000000 e     ::
         :::::::::::::::::::::::::::::::::::::::::::::::::::::

           ------------------------------------------------- 
          |                Numerical Hessian                |
           ------------------------------------------------- 
step length          :   0.00500
SCC accuracy         :   0.30000
Hessian scale factor :   1.00000
frozen atoms in %    :   0.00000    0
RMS gradient         :   0.00009

writing file <hessian>.

 vibrational frequencies (cm⁻¹)
eigval :        0.00     0.00     0.00     0.00     0.00  1312.89
           -------------------------------------------------
          |                Property Printout                |
           -------------------------------------------------

    * Orbital Energies and Occupations

         #    Occupation            Energy/Eh            Energy/eV
      -------------------------------------------------------------
         1        2.0000           -0.3925841             -10.6828
         2        2.0000           -0.3578150              -9.7366
         3        2.0000           -0.2456400              -6.6842
         4        2.0000           -0.2213106              -6.0222
         5        2.0000           -0.2213106              -6.0222
         6        1.5000           -0.0803369              -2.1861
         7        1.5000           -0.0803369              -2.1861 (HOMO)
         8                          0.2823189               7.6823 (LUMO)
      -------------------------------------------------------------
                  HL-Gap            0.3626558 Eh            9.8684 eV
             Fermi-level            0.0103271 Eh            0.2810 eV

     #   Z          covCN         q      C6AA      α(0)
     1   8 O        0.965    -0.500    23.725     6.533
     2   8 O        0.965    -0.500    23.725     6.533

 Mol. C6AA /au·bohr⁶  :         94.900368
 Mol. C8AA /au·bohr⁸  :       1915.141123
 Mol. α(0) /au        :         13.066466


Wiberg/Mayer (AO) data.
largest (>0.10) Wiberg bond orders for each atom

 ---------------------------------------------------------------------------
     #   Z sym  total        # sym  WBO       # sym  WBO       # sym  WBO
 ---------------------------------------------------------------------------
     1   8 O    1.250 --     2 O    1.250
     2   8 O    1.250 --     1 O    1.250
 ---------------------------------------------------------------------------

Topologies differ in total number of bonds
Writing topology from bond orders to xtbtopo.mol

molecular dipole:
                 x           y           z       tot (Debye)
 q only:        6.775       9.196      -5.037
   full:        6.775       9.196      -5.037      31.730
molecular quadrupole (traceless):
                xx          xy          yy          xz          yz          zz
 q only:        8.088     -94.473     -48.715      50.910      69.323      40.628
  q+dip:        7.322     -95.263     -48.541      50.698      69.202      41.219
   full:        7.640     -94.935     -48.614      50.786      69.253      40.973

           -------------------------------------------------
          |                Geometry Summary                 |
           -------------------------------------------------

      molecular mass/u    :       31.9988098
   center of mass at/Å    :       -3.5850675      -4.8664910       2.6653193
  moments of inertia/u·Å² :       -0.6636453E-15   0.1439169E+02   0.1439169E+02
rotational constants/cm⁻¹ :       -0.2540157E+17   0.1171345E+01   0.1171345E+01

           -------------------------------------------------
          |               Frequency Printout                |
           -------------------------------------------------
 vibrational frequencies (cm⁻¹)
eigval :        0.00     0.00     0.00     0.00     0.00  1312.89
 reduced masses (amu)
   1: 16.00   2: 16.00   3: 16.00   4: 16.00   5: 16.00   6: 16.00
 IR intensities (km·mol⁻¹)
   1:  0.00   2:  0.00   3: 30.47   4: 30.47   5: 30.47   6:  0.00
 Raman intensities (Ä⁴*amu⁻¹)
   1:  0.00   2:  0.00   3:  0.00   4:  0.00   5:  0.00   6:  0.00
 output can be read by thermo (or use thermo option).
 writing <g98.out> molden fake output.
 recommended (thermochemical) frequency scaling factor: 1.0
           -------------------------------------------------
          |             Thermodynamic Functions             |
           -------------------------------------------------

Molecule has the following symmetry elements: (i) (Cinf) (C2) 2*(sigma) 
It seems to be the Dinfh point group
din symmetry found (for desy threshold:  0.10E+00) used in thermo

          ...................................................
          :                      SETUP                      :
          :.................................................:
          :  # frequencies                           1      :
          :  # imaginary freq.                       0      :
          :  linear?                              true      :
          :  only rotor calc.                    false      :
          :  symmetry                              din      :
          :  rotational number                       2      :
          :  scaling factor                  1.0000000      :
          :  rotor cutoff                   50.0000000 cm⁻¹ :
          :  imag. cutoff                  -20.0000000 cm⁻¹ :
          :.................................................:

    mode    ω/cm⁻¹     T·S(HO)/kcal·mol⁻¹    T·S(FR)/kcal·mol⁻¹   T·S(vib)
   ------------------------------------------------------------------------
   ------------------------------------------------------------------------

   temp. (K)  partition function   enthalpy   heat capacity  entropy
                                   cal/mol     cal/K/mol   cal/K/mol   J/K/mol
 298.15  VIB   1.00                    6.664      0.142      0.026
         ROT   88.5                  592.502      1.987     10.895
         INT   88.6                  599.165      2.129     10.921
         TR   0.175E+27             1481.254      4.968     36.305
         TOT                        2080.4193     7.0973    47.2260   197.5938

       T/K    H(0)-H(T)+PV         H(T)/Eh          T*S/Eh         G(T)/Eh
   ------------------------------------------------------------------------
    298.15    0.331536E-02    0.630635E-02    0.224386E-01   -0.161323E-01
   ------------------------------------------------------------------------

         :::::::::::::::::::::::::::::::::::::::::::::::::::::
         ::                  THERMODYNAMIC                  ::
         :::::::::::::::::::::::::::::::::::::::::::::::::::::
         :: total free energy          -8.183839170467 Eh   ::
         ::.................................................::
         :: total energy               -8.167706908089 Eh   ::
         :: zero point energy           0.002990993851 Eh   ::
         :: G(RRHO) w/o ZPVE           -0.019123256229 Eh   ::
         :: G(RRHO) contrib.           -0.016132262378 Eh   ::
         :::::::::::::::::::::::::::::::::::::::::::::::::::::

optimized geometry written to: xtbopt.xyz


           -------------------------------------------------
          | TOTAL ENERGY               -8.167706908089 Eh   |
          | TOTAL ENTHALPY             -8.161400554983 Eh   |
          | TOTAL FREE ENERGY          -8.183839170467 Eh   |
          | GRADIENT NORM               0.000091999237 Eh/α |
          | HOMO-LUMO GAP               9.868366468685 eV   |
           -------------------------------------------------

------------------------------------------------------------------------
 * finished run on 2025/10/18 at 05:02:44.194     
------------------------------------------------------------------------
 total:
 * wall-time:     0 d,  0 h,  0 min,  0.299 sec
 *  cpu-time:     0 d,  0 h,  0 min,  0.317 sec
 * ratio c/w:     1.060 speedup
 SCF:
 * wall-time:     0 d,  0 h,  0 min,  0.023 sec
 *  cpu-time:     0 d,  0 h,  0 min,  0.026 sec
 * ratio c/w:     1.160 speedup
 ANC optimizer:
 * wall-time:     0 d,  0 h,  0 min,  0.078 sec
 *  cpu-time:     0 d,  0 h,  0 min,  0.082 sec
 * ratio c/w:     1.052 speedup
 analytical hessian:
 * wall-time:     0 d,  0 h,  0 min,  0.022 sec
 *  cpu-time:     0 d,  0 h,  0 min,  0.026 sec
 * ratio c/w:     1.200 speedup

