2
 energy: -8.167706908089 gnorm: 0.000091999237 xtb: 6.7.1 (edcfbbe)
O           -3.00729204361013       -4.53769286644647        2.75377804317661
O           -4.16284231086507       -5.19528828729131        2.57685997249880
