2
 energy: -8.164014559018 gnorm: 0.098744904067 xtb: 6.7.1 (edcfbbe)
O           -3.03281300000000       -4.55224500000000        2.74985000000000
O           -4.13728900000000       -5.18078300000000        2.58074600000000
2
 energy: -8.167571062120 gnorm: 0.017235081839 xtb: 6.7.1 (edcfbbe)
O           -3.01239125195630       -4.54062333988979        2.75297673093954
O           -4.15771074804370       -5.19240466011021        2.57761926906046
2
 energy: -8.167703487877 gnorm: 0.002682991472 xtb: 6.7.1 (edcfbbe)
O           -3.00807389050629       -4.53816640489883        2.75363775308094
O           -4.16202810949371       -5.19486159510117        2.57695824691906
2
 energy: -8.167706908089 gnorm: 0.000091991710 xtb: 6.7.1 (edcfbbe)
O           -3.00727789674504       -4.53771341875273        2.75375962601345
O           -4.16282410325496       -5.19531458124727        2.57683637398655
