 Entering Gaussian System
 *********************************************
 Gaussian 98:
 frequency output generated by the xtb code
 *********************************************
                         Standard orientation:
 --------------------------------------------------------------------
  Center     Atomic     Atomic              Coordinates (Angstroms)
  Number     Number      Type              X           Y           Z
 --------------------------------------------------------------------
    1          6             0       -5.303636   -3.618597    0.498248
    2          6             0       -6.501032   -4.131556    1.284317
    3          1             0       -2.073727   -1.581822    2.218132
    4          1             0       -1.597162   -0.756650    0.730900
    5          1             0       -3.050802   -0.250933    1.597872
    6          6             0       -7.340275   -5.191166    0.520505
    7          1             0       -6.185683   -4.599948    2.220617
    8          1             0       -7.184195   -3.316848    1.538843
    9          8             0       -6.986762   -5.515323   -0.631103
   10          8             0       -8.328764   -5.651997    1.135032
   11          6             0       -4.479299   -2.608411    1.291511
   12          6             0       -3.276248   -2.096077    0.503114
   13          1             0       -5.120633   -1.768041    1.567844
   14          1             0       -4.136155   -3.081509    2.214778
   15          6             0       -2.445023   -1.107617    1.312918
   16          1             0       -2.657025   -2.947001    0.211032
   17          1             0       -3.630566   -1.618195   -0.412766
   18          1             0       -4.686351   -4.474779    0.213979
   19          1             0       -5.665961   -3.170473   -0.430471
 --------------------------------------------------------------------
     1 basis functions        1 primitive gaussians
     1 alpha electrons        1 beta electrons
 
 Harmonic frequencies (cm**-1), IR intensities (km*mol⁻¹),
 Raman scattering activities (A**4/amu), Raman depolarization ratios,
 reduced masses (AMU), force constants (mDyne/A) and normal coordinates:
                      1                      2                      3
                        a                      a                      a 
 Frequencies --   -27.3551                47.7164                95.3541
 Red. masses --    10.3788                10.2751                11.5143
 Frc consts  --     0.0000                 0.0000                 0.0000
 IR Inten    --     0.2541                 8.9263                 5.1447
 Raman Activ --     0.0000                 0.0000                 0.0000
 Depolar     --     0.0000                 0.0000                 0.0000
 Atom AN      X      Y      Z        X      Y      Z        X      Y      Z
   1   6     0.13  -0.16   0.08    -0.23   0.30  -0.15     0.17  -0.10  -0.31
   2   6    -0.10   0.14  -0.08    -0.23   0.29  -0.15     0.14   0.03  -0.27
   3   1    -0.09   0.11   0.07     0.06  -0.19   0.01    -0.05  -0.03   0.09
   4   1     0.04  -0.05   0.03     0.08  -0.11   0.06    -0.03   0.10   0.17
   5   1    -0.03   0.05  -0.15     0.13  -0.08   0.12    -0.09  -0.02   0.15
   6   6    -0.02   0.03  -0.01     0.04  -0.05   0.03    -0.05  -0.02   0.02
   7   1    -0.11   0.11   0.04    -0.07   0.16  -0.00     0.04   0.04  -0.06
   8   1    -0.03   0.08  -0.14    -0.11   0.07  -0.12     0.06   0.03  -0.10
   9   8    -0.29   0.36  -0.19     0.11  -0.13   0.07    -0.35  -0.27   0.00
  10   8     0.28  -0.35   0.19     0.23  -0.29   0.15     0.03   0.19   0.33
  11   6    -0.08   0.11  -0.06    -0.12   0.16  -0.08     0.08  -0.11  -0.20
  12   6     0.15  -0.20   0.10    -0.04   0.05  -0.02     0.11   0.17   0.02
  13   1    -0.04   0.07  -0.16    -0.01   0.06  -0.01    -0.01  -0.06  -0.04
  14   1    -0.10   0.13   0.06    -0.06   0.01  -0.03     0.02  -0.06  -0.07
  15   6    -0.05   0.07  -0.02     0.24  -0.34   0.16    -0.14   0.08   0.38
  16   1     0.06  -0.09   0.17    -0.08  -0.01  -0.07     0.07   0.09  -0.02
  17   1     0.12  -0.15  -0.05     0.01   0.10   0.03     0.05   0.10   0.02
  18   1     0.06  -0.08   0.16    -0.09   0.08  -0.07     0.05  -0.04  -0.07
  19   1     0.11  -0.15  -0.05    -0.07   0.12  -0.03     0.07  -0.03  -0.10
                      4                      5                      6
                        a                      a                      a 
 Frequencies --   101.2479               119.8687               219.3118
 Red. masses --     6.0458                 7.6917                11.1986
 Frc consts  --     0.0000                 0.0000                 0.0000
 IR Inten    --     0.6743                 1.3870                 5.9679
 Raman Activ --     0.0000                 0.0000                 0.0000
 Depolar     --     0.0000                 0.0000                 0.0000
 Atom AN      X      Y      Z        X      Y      Z        X      Y      Z
   1   6     0.20  -0.28   0.20    -0.16   0.21  -0.10     0.11   0.15   0.12
   2   6    -0.21   0.24  -0.09    -0.17   0.22  -0.11    -0.00  -0.10  -0.20
   3   1     0.16  -0.10  -0.14    -0.04   0.17   0.02     0.14   0.10  -0.04
   4   1    -0.10   0.12  -0.10    -0.05   0.07  -0.04     0.08  -0.06  -0.15
   5   1    -0.00  -0.07   0.18    -0.11   0.05  -0.13     0.18   0.11  -0.09
   6   6    -0.03   0.05  -0.03    -0.02   0.03  -0.01    -0.08  -0.14  -0.15
   7   1    -0.21   0.18   0.08    -0.05   0.10  -0.01    -0.03  -0.05  -0.06
   8   1    -0.06   0.13  -0.23    -0.07   0.05  -0.06    -0.02  -0.05  -0.06
   9   8     0.06   0.03   0.00     0.03  -0.04   0.02    -0.35  -0.37  -0.19
  10   8     0.01  -0.05  -0.04     0.07  -0.09   0.05    -0.03   0.01   0.06
  11   6     0.14  -0.20   0.15     0.27  -0.37   0.18    -0.01   0.15   0.33
  12   6    -0.19   0.20  -0.10     0.15  -0.21   0.10    -0.03   0.11   0.23
  13   1     0.00  -0.11   0.11     0.15  -0.11   0.22    -0.01   0.04   0.09
  14   1     0.14  -0.06   0.00     0.12  -0.25  -0.04    -0.01   0.03   0.09
  15   6     0.02  -0.01  -0.07    -0.16   0.22  -0.11     0.34   0.16  -0.19
  16   1    -0.06   0.11  -0.19     0.11  -0.03   0.08    -0.04   0.01   0.06
  17   1    -0.17   0.14   0.06     0.01  -0.14   0.00    -0.04   0.01   0.07
  18   1     0.03  -0.15   0.20    -0.14   0.04  -0.17     0.07   0.07   0.03
  19   1     0.18  -0.15  -0.02    -0.06   0.21   0.05     0.07   0.07   0.03
                      7                      8                      9
                        a                      a                      a 
 Frequencies --   232.5442               315.4654               404.3551
 Red. masses --     2.1710                11.6352                 9.8059
 Frc consts  --     0.0000                 0.0000                 0.0000
 IR Inten    --     0.0325                 5.0242                 0.7363
 Raman Activ --     0.0000                 0.0000                 0.0000
 Depolar     --     0.0000                 0.0000                 0.0000
 Atom AN      X      Y      Z        X      Y      Z        X      Y      Z
   1   6     0.04  -0.08   0.02     0.09   0.01  -0.11     0.04   0.22   0.39
   2   6    -0.01   0.02   0.01     0.18   0.05  -0.16    -0.04  -0.00   0.05
   3   1    -0.44   0.07   0.23    -0.03  -0.04  -0.04    -0.18  -0.12   0.02
   4   1     0.30  -0.42   0.21    -0.08  -0.10  -0.08    -0.03   0.05   0.16
   5   1     0.18   0.24  -0.38    -0.04  -0.04  -0.04    -0.17  -0.12   0.02
   6   6     0.01   0.01   0.01     0.21   0.13  -0.06     0.06  -0.03  -0.14
   7   1    -0.02   0.02   0.02     0.06   0.01  -0.05    -0.07  -0.04   0.02
   8   1     0.00   0.02  -0.03     0.06   0.01  -0.04    -0.06  -0.04   0.01
   9   8     0.02   0.03   0.01     0.09   0.03  -0.09    -0.16  -0.22  -0.18
  10   8     0.00   0.00  -0.00     0.32   0.35   0.20     0.12   0.11   0.02
  11   6     0.07  -0.11   0.03    -0.26  -0.08   0.23     0.24   0.23   0.10
  12   6    -0.15   0.20  -0.11    -0.37  -0.22   0.13     0.07  -0.11  -0.34
  13   1     0.01  -0.08   0.10    -0.10  -0.04   0.06     0.14   0.11   0.03
  14   1     0.10  -0.08  -0.04    -0.10  -0.04   0.06     0.14   0.11   0.03
  15   6     0.00  -0.05   0.03    -0.22  -0.22  -0.12    -0.29  -0.20   0.04
  16   1    -0.06   0.08  -0.13    -0.14  -0.09   0.04     0.01  -0.04  -0.09
  17   1    -0.09   0.13   0.03    -0.14  -0.09   0.03     0.01  -0.03  -0.09
  18   1     0.00  -0.03   0.01     0.06   0.03  -0.03     0.02   0.07   0.10
  19   1     0.02  -0.02   0.00     0.05   0.03  -0.03     0.03   0.07   0.11
                     10                     11                     12
                        a                      a                      a 
 Frequencies --   523.7518               567.5810               652.2276
 Red. masses --    11.5314                 8.3661                13.4652
 Frc consts  --     0.0000                 0.0000                 0.0000
 IR Inten    --     8.3114                26.2526                53.1793
 Raman Activ --     0.0000                 0.0000                 0.0000
 Depolar     --     0.0000                 0.0000                 0.0000
 Atom AN      X      Y      Z        X      Y      Z        X      Y      Z
   1   6     0.36   0.20  -0.16    -0.04   0.04  -0.02    -0.02  -0.02  -0.02
   2   6     0.26   0.10  -0.20     0.08  -0.12   0.06     0.17   0.31   0.34
   3   1    -0.07  -0.05  -0.01     0.00   0.00  -0.00     0.02   0.01  -0.00
   4   1    -0.03  -0.01   0.02    -0.00   0.00  -0.00    -0.01  -0.03  -0.03
   5   1    -0.07  -0.05  -0.01     0.00  -0.00   0.00     0.02   0.02  -0.00
   6   6    -0.15  -0.03   0.20     0.39  -0.49   0.25     0.26   0.24   0.10
   7   1     0.13   0.09  -0.04    -0.08   0.34   0.23     0.07   0.10   0.09
   8   1     0.14   0.08  -0.06    -0.16  -0.06  -0.39     0.06   0.10   0.09
   9   8    -0.05   0.10   0.25    -0.14   0.19  -0.10    -0.44  -0.31   0.06
  10   8    -0.32  -0.35  -0.19    -0.15   0.20  -0.09     0.19  -0.08  -0.46
  11   6     0.07   0.15   0.19    -0.01   0.01  -0.01    -0.05  -0.07  -0.07
  12   6    -0.08  -0.08  -0.04     0.00  -0.00   0.00    -0.06  -0.01   0.07
  13   1     0.02   0.04   0.05     0.00   0.00   0.02    -0.03  -0.03  -0.02
  14   1     0.02   0.04   0.05     0.00  -0.01  -0.01    -0.03  -0.03  -0.02
  15   6    -0.15  -0.13  -0.05     0.00   0.00   0.00    -0.00  -0.00   0.00
  16   1    -0.05  -0.04  -0.01     0.00  -0.00   0.01    -0.01   0.00   0.02
  17   1    -0.05  -0.04  -0.01     0.01  -0.01  -0.01    -0.01  -0.00   0.02
  18   1     0.16   0.10  -0.04     0.01   0.05  -0.09    -0.05  -0.04   0.00
  19   1     0.16   0.11  -0.04    -0.09   0.05   0.04    -0.05  -0.04  -0.00
                     13                     14                     15
                        a                      a                      a 
 Frequencies --   763.7139               793.9066               866.3120
 Red. masses --     2.0818                 3.1075                 3.9240
 Frc consts  --     0.0000                 0.0000                 0.0000
 IR Inten    --    22.6514                 1.7447                17.8940
 Raman Activ --     0.0000                 0.0000                 0.0000
 Depolar     --     0.0000                 0.0000                 0.0000
 Atom AN      X      Y      Z        X      Y      Z        X      Y      Z
   1   6     0.09  -0.12   0.06     0.09  -0.13   0.06    -0.02   0.02  -0.01
   2   6     0.04  -0.05   0.03     0.09  -0.12   0.06     0.15  -0.20   0.10
   3   1     0.01   0.09   0.04    -0.05  -0.22  -0.10     0.09   0.26   0.12
   4   1    -0.01   0.02  -0.01     0.05  -0.07   0.03    -0.07   0.09  -0.05
   5   1    -0.06  -0.02  -0.07     0.16   0.07   0.17    -0.20  -0.10  -0.20
   6   6    -0.09   0.13  -0.06    -0.15   0.20  -0.10    -0.17   0.22  -0.11
   7   1    -0.15   0.04   0.09    -0.21   0.06   0.13    -0.18   0.09   0.17
   8   1     0.06   0.08  -0.15     0.09   0.10  -0.21     0.06   0.06  -0.25
   9   8     0.02  -0.03   0.02     0.04  -0.05   0.03     0.04  -0.05   0.03
  10   8     0.03  -0.03   0.01     0.04  -0.05   0.02     0.04  -0.05   0.02
  11   6     0.08  -0.12   0.05    -0.04   0.05  -0.03    -0.13   0.17  -0.09
  12   6     0.05  -0.06   0.03    -0.12   0.16  -0.08     0.08  -0.11   0.05
  13   1    -0.07   0.05  -0.41    -0.10  -0.10   0.12     0.07   0.03   0.28
  14   1    -0.18   0.28   0.25     0.17   0.00  -0.08     0.06  -0.21  -0.19
  15   6     0.00  -0.00   0.00    -0.02   0.03  -0.01     0.06  -0.08   0.04
  16   1     0.01   0.08  -0.26     0.05  -0.05   0.40    -0.16  -0.09  -0.17
  17   1    -0.17   0.15   0.16     0.18  -0.26  -0.25     0.07   0.21   0.12
  18   1    -0.08   0.03  -0.39     0.03   0.07  -0.27     0.19   0.14   0.03
  19   1    -0.15   0.28   0.23    -0.19   0.13   0.17    -0.17  -0.16  -0.02
                     16                     17                     18
                        a                      a                      a 
 Frequencies --   892.5143               945.3837               964.8309
 Red. masses --    11.7052                 5.9934                 3.2471
 Frc consts  --     0.0000                 0.0000                 0.0000
 IR Inten    --    71.1818                13.9086                 2.0205
 Raman Activ --     0.0000                 0.0000                 0.0000
 Depolar     --     0.0000                 0.0000                 0.0000
 Atom AN      X      Y      Z        X      Y      Z        X      Y      Z
   1   6     0.11   0.07  -0.02     0.05   0.10   0.11    -0.12   0.17  -0.08
   2   6     0.19   0.35   0.40    -0.07  -0.13  -0.13     0.14  -0.17   0.09
   3   1     0.05   0.03  -0.01     0.19   0.10  -0.01    -0.10  -0.25  -0.13
   4   1    -0.07  -0.10  -0.11    -0.23  -0.36  -0.39     0.07  -0.08   0.05
   5   1     0.04   0.03  -0.01     0.18   0.15  -0.02     0.18   0.11   0.19
   6   6    -0.23  -0.30  -0.24     0.05   0.07   0.06    -0.12   0.15  -0.08
   7   1     0.11   0.14   0.11    -0.07  -0.07  -0.03    -0.03   0.12   0.12
   8   1     0.11   0.15   0.10    -0.07  -0.08  -0.04    -0.03  -0.03  -0.17
   9   8     0.17  -0.07  -0.38    -0.04   0.03   0.12     0.03  -0.04   0.02
  10   8    -0.20  -0.03   0.24     0.04   0.00  -0.05     0.02  -0.03   0.02
  11   6     0.07  -0.01  -0.13     0.25   0.03  -0.30     0.05  -0.08   0.04
  12   6    -0.08   0.00   0.13    -0.10   0.03   0.23     0.06  -0.07   0.03
  13   1     0.00  -0.01  -0.03     0.13   0.06  -0.08     0.25   0.19  -0.09
  14   1     0.00  -0.01  -0.03     0.12   0.05  -0.08    -0.29  -0.13   0.07
  15   6    -0.09  -0.06   0.01    -0.31  -0.18   0.09    -0.08   0.13  -0.06
  16   1    -0.00   0.01   0.03     0.10   0.10   0.06     0.25   0.18  -0.09
  17   1    -0.00   0.01   0.03     0.08   0.09   0.06    -0.29  -0.14   0.06
  18   1    -0.02  -0.01  -0.00     0.02   0.03   0.03     0.14   0.09   0.19
  19   1    -0.02  -0.01  -0.00     0.02   0.02   0.02    -0.05  -0.21  -0.13
                     19                     20                     21
                        a                      a                      a 
 Frequencies --  1061.9911              1068.2043              1098.6961
 Red. masses --    10.0258                 3.6050                 7.6258
 Frc consts  --     0.0000                 0.0000                 0.0000
 IR Inten    --     0.6564                 8.4452                 0.3011
 Raman Activ --     0.0000                 0.0000                 0.0000
 Depolar     --     0.0000                 0.0000                 0.0000
 Atom AN      X      Y      Z        X      Y      Z        X      Y      Z
   1   6    -0.06   0.15   0.41    -0.07   0.12  -0.02     0.43   0.36   0.08
   2   6     0.22   0.09  -0.22     0.16  -0.18   0.09    -0.18  -0.04   0.18
   3   1     0.14   0.12   0.06     0.04   0.07   0.04    -0.09  -0.06  -0.02
   4   1     0.00  -0.02  -0.03    -0.01   0.02  -0.01     0.06   0.08   0.09
   5   1     0.14   0.14   0.07    -0.03  -0.02  -0.04    -0.08  -0.08  -0.01
   6   6    -0.01  -0.04   0.01    -0.19   0.24  -0.13     0.02   0.00  -0.00
   7   1     0.07   0.02  -0.06     0.32   0.35   0.12    -0.22  -0.15   0.04
   8   1     0.13   0.08  -0.03    -0.35  -0.32  -0.14    -0.20  -0.14   0.05
   9   8     0.00   0.02   0.01     0.03  -0.04   0.02    -0.01   0.01   0.03
  10   8    -0.05  -0.03   0.00     0.03  -0.05   0.02    -0.00   0.00   0.00
  11   6    -0.26  -0.27  -0.18     0.04  -0.12   0.02    -0.15  -0.25  -0.29
  12   6    -0.16  -0.27  -0.30    -0.07   0.04  -0.06     0.01   0.06   0.11
  13   1     0.01  -0.01  -0.04    -0.15  -0.11  -0.10    -0.18  -0.17  -0.08
  14   1    -0.01  -0.04  -0.05     0.11   0.15   0.06    -0.17  -0.18  -0.08
  15   6     0.14   0.24   0.28     0.04  -0.02   0.05     0.05  -0.02  -0.13
  16   1     0.02  -0.02  -0.10    -0.07  -0.06   0.06    -0.00   0.01   0.02
  17   1     0.00  -0.04  -0.08     0.10   0.01  -0.06    -0.00   0.01   0.02
  18   1     0.06   0.10   0.10    -0.20  -0.15   0.13     0.16   0.13   0.02
  19   1     0.02   0.08   0.11     0.27   0.10  -0.08     0.15   0.13   0.02
                     22                     23                     24
                        a                      a                      a 
 Frequencies --  1107.6821              1133.2859              1203.1083
 Red. masses --     8.6581                 8.1636                 5.8415
 Frc consts  --     0.0000                 0.0000                 0.0000
 IR Inten    --     0.1844                 2.9034                 0.0900
 Raman Activ --     0.0000                 0.0000                 0.0000
 Depolar     --     0.0000                 0.0000                 0.0000
 Atom AN      X      Y      Z        X      Y      Z        X      Y      Z
   1   6     0.19  -0.00  -0.28    -0.15   0.02   0.27     0.15  -0.21   0.10
   2   6    -0.21  -0.06   0.18     0.22   0.04  -0.24    -0.04   0.06  -0.03
   3   1     0.07   0.09   0.07    -0.17  -0.10  -0.01    -0.09  -0.22  -0.14
   4   1     0.04   0.05   0.05     0.11   0.17   0.19     0.07  -0.09   0.04
   5   1     0.07   0.08   0.07    -0.15  -0.14  -0.00     0.16   0.11   0.18
   6   6     0.02   0.01   0.00    -0.02  -0.01   0.00    -0.03   0.03  -0.02
   7   1    -0.12  -0.07   0.04     0.05   0.00  -0.07     0.20   0.11  -0.03
   8   1    -0.12  -0.07   0.05     0.04   0.00  -0.07    -0.18  -0.14   0.05
   9   8    -0.01  -0.01  -0.00    -0.00   0.02   0.05     0.00  -0.00   0.00
  10   8     0.03   0.02  -0.00    -0.02  -0.02  -0.01     0.00  -0.00   0.00
  11   6     0.27   0.17  -0.08     0.26   0.03  -0.34    -0.20   0.26  -0.13
  12   6    -0.38  -0.32  -0.07    -0.21   0.04   0.39     0.22  -0.30   0.15
  13   1     0.11   0.08  -0.03     0.05  -0.00  -0.08    -0.03  -0.01   0.21
  14   1     0.12   0.07  -0.03     0.05   0.01  -0.08     0.11  -0.09  -0.16
  15   6     0.17   0.23   0.24     0.12  -0.00  -0.19    -0.15   0.20  -0.10
  16   1    -0.23  -0.18  -0.02    -0.19  -0.09   0.10    -0.02  -0.03  -0.24
  17   1    -0.23  -0.18  -0.02    -0.18  -0.09   0.10    -0.05   0.15   0.19
  18   1     0.02  -0.02  -0.08    -0.15  -0.07   0.06    -0.09  -0.08  -0.16
  19   1     0.02  -0.03  -0.07    -0.14  -0.08   0.07     0.04   0.16   0.12
                     25                     26                     27
                        a                      a                      a 
 Frequencies --  1227.5065              1247.0469              1275.9459
 Red. masses --     4.0774                 3.4753                 1.7370
 Frc consts  --     0.0000                 0.0000                 0.0000
 IR Inten    --     8.3242                 0.5717                 0.0947
 Raman Activ --     0.0000                 0.0000                 0.0000
 Depolar     --     0.0000                 0.0000                 0.0000
 Atom AN      X      Y      Z        X      Y      Z        X      Y      Z
   1   6     0.11   0.08  -0.00    -0.17   0.22  -0.11     0.05  -0.08   0.03
   2   6     0.33   0.22  -0.08     0.09  -0.13   0.06     0.09  -0.09   0.05
   3   1     0.06   0.03   0.00    -0.06  -0.16  -0.11     0.01   0.04   0.03
   4   1    -0.05  -0.07  -0.08     0.05  -0.07   0.03    -0.02   0.03  -0.01
   5   1     0.05   0.06  -0.00     0.12   0.09   0.15    -0.02  -0.02  -0.04
   6   6    -0.00  -0.01  -0.01     0.03  -0.04   0.02     0.01  -0.01   0.00
   7   1    -0.27  -0.26  -0.06    -0.29  -0.14   0.06    -0.14  -0.07   0.05
   8   1    -0.28  -0.24  -0.08     0.26   0.20  -0.09     0.10   0.07  -0.06
   9   8     0.01   0.02   0.03    -0.00   0.00  -0.00    -0.00   0.00  -0.00
  10   8    -0.08  -0.05   0.03    -0.00   0.01  -0.00    -0.00  -0.00   0.00
  11   6     0.06   0.11   0.14     0.07  -0.09   0.04    -0.08   0.09  -0.05
  12   6     0.12   0.00  -0.15     0.09  -0.13   0.06    -0.08   0.10  -0.05
  13   1    -0.20  -0.14   0.02    -0.15  -0.12  -0.07     0.35   0.28   0.07
  14   1    -0.19  -0.14   0.02     0.13   0.15   0.05    -0.32  -0.28  -0.06
  15   6    -0.06   0.01   0.09    -0.13   0.18  -0.08     0.03  -0.04   0.02
  16   1    -0.05  -0.06  -0.03    -0.27  -0.21  -0.09    -0.03  -0.01   0.07
  17   1    -0.05  -0.04  -0.03     0.24   0.25   0.08     0.06  -0.00  -0.06
  18   1    -0.30  -0.22   0.01    -0.14  -0.08   0.17    -0.38  -0.29  -0.03
  19   1    -0.30  -0.22   0.01     0.20   0.02  -0.14     0.37   0.31   0.03
                     28                     29                     30
                        a                      a                      a 
 Frequencies --  1283.8636              1286.7971              1335.6417
 Red. masses --     2.2764                 4.2066                13.8540
 Frc consts  --     0.0000                 0.0000                 0.0000
 IR Inten    --     0.2398                 1.5022               503.9316
 Raman Activ --     0.0000                 0.0000                 0.0000
 Depolar     --     0.0000                 0.0000                 0.0000
 Atom AN      X      Y      Z        X      Y      Z        X      Y      Z
   1   6    -0.07   0.10  -0.04     0.05   0.07   0.12    -0.03  -0.04  -0.03
   2   6     0.05  -0.10   0.04    -0.24  -0.20  -0.06     0.08   0.10   0.07
   3   1     0.04   0.07   0.05     0.05  -0.01  -0.01    -0.00   0.00   0.00
   4   1    -0.02   0.01  -0.02    -0.07  -0.10  -0.11     0.00   0.01   0.01
   5   1    -0.05  -0.05  -0.07     0.02   0.04  -0.03     0.00  -0.00   0.01
   6   6     0.01  -0.02   0.01    -0.05  -0.04  -0.01    -0.39  -0.47  -0.30
   7   1    -0.15  -0.06   0.04     0.23   0.24   0.04    -0.02  -0.06  -0.01
   8   1     0.16   0.12  -0.05     0.24   0.18   0.07    -0.04  -0.02  -0.03
   9   8    -0.00   0.00   0.00    -0.02   0.01   0.04    -0.12   0.15   0.45
  10   8     0.01   0.01  -0.00     0.10   0.05  -0.05     0.41   0.20  -0.23
  11   6    -0.11   0.19  -0.09     0.20   0.12  -0.04     0.00   0.01   0.01
  12   6     0.08  -0.08   0.03     0.21   0.12  -0.10    -0.03  -0.02  -0.00
  13   1    -0.29  -0.19   0.12    -0.26  -0.20  -0.02     0.00   0.00   0.01
  14   1     0.26   0.11  -0.10    -0.33  -0.25  -0.01    -0.00   0.01   0.01
  15   6     0.06  -0.09   0.05    -0.07   0.01   0.12     0.01   0.00  -0.01
  16   1     0.36   0.26  -0.06    -0.27  -0.21  -0.00     0.03   0.02  -0.00
  17   1    -0.42  -0.26   0.05    -0.21  -0.16  -0.02     0.03   0.02  -0.00
  18   1    -0.19  -0.13   0.07    -0.05  -0.02  -0.00     0.04   0.02   0.00
  19   1     0.20   0.10  -0.06    -0.04  -0.04   0.02     0.03   0.03  -0.00
                     31                     32                     33
                        a                      a                      a 
 Frequencies --  1343.3709              1371.9460              1405.6212
 Red. masses --     4.7560                 5.6362                 3.2267
 Frc consts  --     0.0000                 0.0000                 0.0000
 IR Inten    --     2.9632                 0.5091                 0.6183
 Raman Activ --     0.0000                 0.0000                 0.0000
 Depolar     --     0.0000                 0.0000                 0.0000
 Atom AN      X      Y      Z        X      Y      Z        X      Y      Z
   1   6     0.29   0.22   0.01    -0.26  -0.18   0.03    -0.02  -0.01   0.01
   2   6    -0.18  -0.17  -0.07     0.07   0.06   0.02     0.01   0.01   0.00
   3   1    -0.01   0.06   0.03    -0.02   0.04   0.02     0.26   0.43   0.11
   4   1     0.06   0.10   0.11     0.03   0.05   0.05     0.13   0.28   0.39
   5   1     0.04  -0.00   0.06     0.02  -0.01   0.05     0.42   0.21   0.21
   6   6    -0.03  -0.03   0.00     0.04   0.04   0.02     0.00   0.00  -0.00
   7   1     0.11   0.18   0.05    -0.01  -0.06  -0.03    -0.00  -0.01  -0.00
   8   1     0.16   0.10   0.09    -0.04  -0.02  -0.05    -0.00  -0.00  -0.01
   9   8    -0.01   0.00   0.02     0.01  -0.01  -0.04    -0.00   0.00   0.00
  10   8     0.06   0.03  -0.03    -0.05  -0.02   0.02    -0.00  -0.00   0.00
  11   6     0.01   0.04   0.07     0.35   0.26   0.01    -0.01  -0.02  -0.03
  12   6    -0.27  -0.20  -0.01    -0.25  -0.20  -0.03     0.09   0.06  -0.01
  13   1    -0.04  -0.01  -0.02    -0.30  -0.23  -0.02     0.00  -0.00  -0.00
  14   1    -0.02  -0.05  -0.01    -0.30  -0.24  -0.01    -0.00   0.00  -0.00
  15   6     0.04  -0.01  -0.09     0.04   0.01  -0.04    -0.26  -0.28  -0.20
  16   1     0.29   0.21   0.01     0.22   0.15   0.02    -0.08  -0.07   0.06
  17   1     0.28   0.21   0.00     0.20   0.17   0.01    -0.11  -0.02   0.03
  18   1    -0.31  -0.22   0.00     0.20   0.16  -0.02     0.02   0.02   0.00
  19   1    -0.29  -0.23   0.01     0.22   0.14  -0.01     0.02   0.02   0.00
                     34                     35                     36
                        a                      a                      a 
 Frequencies --  1467.9898              1493.0358              1495.6104
 Red. masses --     2.0870                 1.9717                 1.5335
 Frc consts  --     0.0000                 0.0000                 0.0000
 IR Inten    --     2.0025                 4.2327                 1.5700
 Raman Activ --     0.0000                 0.0000                 0.0000
 Depolar     --     0.0000                 0.0000                 0.0000
 Atom AN      X      Y      Z        X      Y      Z        X      Y      Z
   1   6    -0.06  -0.06  -0.03    -0.02  -0.01   0.01     0.00  -0.00   0.00
   2   6     0.15  -0.02  -0.25     0.00   0.01   0.00    -0.00  -0.00  -0.00
   3   1    -0.00  -0.00  -0.00    -0.06   0.11   0.08     0.43   0.15  -0.11
   4   1    -0.00  -0.00  -0.00     0.01  -0.07  -0.03     0.40  -0.54   0.25
   5   1    -0.00  -0.00  -0.00    -0.01  -0.06   0.16    -0.34  -0.28   0.15
   6   6    -0.02  -0.02  -0.02    -0.01  -0.00   0.00     0.00   0.00  -0.00
   7   1    -0.43   0.39   0.33     0.01  -0.01  -0.01    -0.00   0.00   0.00
   8   1     0.02  -0.19   0.64    -0.00   0.00  -0.02    -0.00  -0.00   0.00
   9   8    -0.00   0.01   0.02     0.00   0.00  -0.00    -0.00   0.00   0.00
  10   8     0.01   0.00  -0.01     0.00   0.00  -0.00    -0.00  -0.00   0.00
  11   6     0.01   0.01   0.01    -0.06   0.07   0.23     0.00  -0.01  -0.01
  12   6     0.01   0.00  -0.01     0.00   0.07   0.13    -0.02   0.03  -0.03
  13   1    -0.01   0.00  -0.02    -0.08   0.12  -0.55     0.02   0.01   0.03
  14   1     0.01  -0.02  -0.01     0.29  -0.38  -0.30    -0.03   0.01   0.02
  15   6    -0.00   0.00   0.00     0.00  -0.00  -0.05    -0.12   0.16  -0.07
  16   1    -0.00  -0.01   0.02    -0.07   0.06  -0.31     0.02   0.01   0.06
  17   1    -0.02   0.01   0.01     0.14  -0.24  -0.17    -0.03   0.01   0.01
  18   1     0.05   0.03   0.02     0.01   0.01   0.01    -0.00  -0.00  -0.01
  19   1     0.03   0.05   0.01     0.00   0.02   0.01     0.00  -0.00  -0.00
                     37                     38                     39
                        a                      a                      a 
 Frequencies --  1497.5257              1501.1488              1507.7706
 Red. masses --     1.7898                 1.7059                 1.8710
 Frc consts  --     0.0000                 0.0000                 0.0000
 IR Inten    --     0.0146                 0.3413                 3.6235
 Raman Activ --     0.0000                 0.0000                 0.0000
 Depolar     --     0.0000                 0.0000                 0.0000
 Atom AN      X      Y      Z        X      Y      Z        X      Y      Z
   1   6     0.02  -0.02  -0.06     0.01  -0.00  -0.02     0.05  -0.08  -0.25
   2   6    -0.00  -0.01  -0.01    -0.00  -0.00   0.00    -0.02  -0.01   0.00
   3   1    -0.07   0.12   0.09    -0.41   0.31   0.32     0.05  -0.05  -0.05
   4   1    -0.00  -0.04  -0.02    -0.09  -0.17  -0.25     0.01   0.02   0.03
   5   1     0.02  -0.04   0.17    -0.02  -0.21   0.56    -0.00   0.02  -0.08
   6   6     0.00   0.00  -0.00     0.00   0.00  -0.00     0.02   0.01  -0.01
   7   1    -0.01   0.02   0.01     0.00  -0.00  -0.00     0.03  -0.01  -0.02
   8   1     0.00  -0.00   0.02    -0.00   0.00  -0.01     0.01   0.02  -0.03
   9   8     0.00  -0.00  -0.00    -0.00   0.00   0.00    -0.00   0.00   0.00
  10   8    -0.00  -0.00   0.00    -0.00  -0.00   0.00    -0.01  -0.00   0.00
  11   6     0.06  -0.02  -0.13    -0.01  -0.02  -0.01     0.02   0.02   0.01
  12   6    -0.05   0.06   0.19     0.07  -0.01  -0.12    -0.00  -0.02  -0.03
  13   1     0.03  -0.09   0.34     0.01  -0.00   0.04    -0.02   0.00  -0.07
  14   1    -0.20   0.22   0.19    -0.01   0.04   0.03     0.02  -0.06  -0.04
  15   6     0.01  -0.01  -0.05     0.13   0.02  -0.16    -0.01   0.00   0.02
  16   1    -0.08   0.12  -0.52     0.01  -0.07   0.21     0.02  -0.02   0.10
  17   1     0.27  -0.36  -0.29    -0.14   0.14   0.12    -0.05   0.07   0.06
  18   1     0.02  -0.04   0.14     0.00  -0.01   0.05     0.11  -0.14   0.64
  19   1    -0.08   0.09   0.07    -0.03   0.03   0.03    -0.33   0.45   0.34
                     40                     41                     42
                        a                      a                      a 
 Frequencies --  1652.9792              2936.9440              2948.5133
 Red. masses --    13.1041                 1.9444                 1.9210
 Frc consts  --     0.0000                 0.0000                 0.0000
 IR Inten    --   933.1399                56.2344                11.5553
 Raman Activ --     0.0000                 0.0000                 0.0000
 Depolar     --     0.0000                 0.0000                 0.0000
 Atom AN      X      Y      Z        X      Y      Z        X      Y      Z
   1   6    -0.00  -0.00   0.00    -0.04   0.05  -0.03    -0.10   0.13  -0.06
   2   6    -0.03  -0.01   0.03     0.16  -0.20   0.11    -0.04   0.05  -0.03
   3   1     0.00  -0.00  -0.00    -0.00  -0.00  -0.00    -0.00   0.00  -0.01
   4   1    -0.00  -0.00  -0.00     0.00  -0.00   0.00     0.00  -0.00   0.00
   5   1    -0.00   0.00  -0.00    -0.00   0.00   0.00    -0.00   0.01   0.00
   6   6     0.49   0.03  -0.68     0.00  -0.01   0.00    -0.00   0.00  -0.00
   7   1     0.04   0.04   0.01    -0.18   0.27  -0.57     0.05  -0.07   0.14
   8   1     0.04   0.03   0.01    -0.39   0.47   0.16     0.08  -0.10  -0.03
   9   8    -0.12   0.10   0.37    -0.00   0.00  -0.00     0.00  -0.00   0.00
  10   8    -0.29  -0.13   0.19    -0.00   0.00  -0.00    -0.00  -0.00   0.00
  11   6    -0.00   0.00   0.01     0.01  -0.01   0.00     0.12  -0.15   0.08
  12   6    -0.00   0.00   0.00    -0.00   0.00  -0.00    -0.04   0.05  -0.02
  13   1     0.00   0.00  -0.00    -0.02   0.03   0.01    -0.28   0.37   0.13
  14   1     0.00  -0.00  -0.00    -0.01   0.01  -0.03    -0.15   0.21  -0.43
  15   6    -0.00   0.00   0.00    -0.00   0.00  -0.00     0.00  -0.00   0.00
  16   1    -0.00   0.00  -0.00     0.00  -0.00  -0.00     0.09  -0.12  -0.05
  17   1     0.00  -0.00  -0.00     0.00  -0.00   0.00     0.05  -0.07   0.14
  18   1    -0.01  -0.00  -0.02     0.10  -0.14  -0.05     0.24  -0.33  -0.12
  19   1     0.00  -0.02  -0.01     0.06  -0.07   0.16     0.13  -0.16   0.35
                     43                     44                     45
                        a                      a                      a 
 Frequencies --  2955.9854              2956.7462              2964.3586
 Red. masses --     1.9647                 1.5074                 2.0245
 Frc consts  --     0.0000                 0.0000                 0.0000
 IR Inten    --    90.4132                66.3468               236.8265
 Raman Activ --     0.0000                 0.0000                 0.0000
 Depolar     --     0.0000                 0.0000                 0.0000
 Atom AN      X      Y      Z        X      Y      Z        X      Y      Z
   1   6     0.12  -0.16   0.07     0.03  -0.04   0.02    -0.04   0.05  -0.02
   2   6     0.01  -0.02   0.07     0.07  -0.07  -0.17    -0.01   0.01  -0.00
   3   1    -0.01   0.01  -0.02    -0.00   0.00  -0.01    -0.02   0.02  -0.05
   4   1     0.00  -0.00   0.00    -0.00  -0.00   0.00     0.00  -0.00   0.00
   5   1    -0.01   0.02   0.01    -0.00   0.00   0.00    -0.03   0.04   0.02
   6   6    -0.00  -0.00   0.00     0.00  -0.00  -0.01    -0.00   0.00  -0.00
   7   1    -0.08   0.12  -0.23     0.20  -0.29   0.51     0.01  -0.01   0.02
   8   1     0.04  -0.05  -0.00    -0.45   0.53   0.13     0.02  -0.02  -0.01
   9   8    -0.00   0.00   0.00    -0.00  -0.00  -0.00     0.00  -0.00   0.00
  10   8     0.00   0.00  -0.00    -0.00  -0.00   0.00    -0.00  -0.00   0.00
  11   6     0.08  -0.11   0.05     0.01  -0.02   0.04    -0.08   0.11  -0.06
  12   6    -0.07   0.10  -0.05    -0.02   0.02  -0.02    -0.14   0.19  -0.09
  13   1    -0.20   0.26   0.09     0.02  -0.02  -0.00     0.17  -0.23  -0.08
  14   1    -0.09   0.13  -0.27    -0.05   0.07  -0.14     0.11  -0.15   0.29
  15   6     0.00  -0.00   0.00     0.00  -0.00   0.00     0.01  -0.01   0.01
  16   1     0.17  -0.24  -0.09     0.03  -0.05  -0.02     0.32  -0.44  -0.16
  17   1     0.10  -0.13   0.26     0.03  -0.04   0.08     0.18  -0.24   0.49
  18   1    -0.27   0.37   0.13    -0.06   0.09   0.03     0.08  -0.12  -0.04
  19   1    -0.14   0.18  -0.38    -0.04   0.06  -0.12     0.05  -0.05   0.12
                     46                     47                     48
                        a                      a                      a 
 Frequencies --  2971.0433              2975.1579              2981.0388
 Red. masses --     1.4570                 1.4895                 1.4849
 Frc consts  --     0.0000                 0.0000                 0.0000
 IR Inten    --    59.0376                34.3214               161.0874
 Raman Activ --     0.0000                 0.0000                 0.0000
 Depolar     --     0.0000                 0.0000                 0.0000
 Atom AN      X      Y      Z        X      Y      Z        X      Y      Z
   1   6     0.00  -0.01  -0.03     0.03  -0.06  -0.17    -0.01   0.03   0.08
   2   6    -0.01   0.01   0.02     0.01  -0.00  -0.02    -0.00  -0.00   0.00
   3   1     0.01  -0.01   0.02     0.01  -0.00   0.01     0.01  -0.01   0.02
   4   1    -0.01  -0.00   0.00    -0.01  -0.00   0.01    -0.05  -0.02   0.03
   5   1    -0.01   0.02   0.01    -0.01   0.01   0.00    -0.01   0.02   0.01
   6   6    -0.00  -0.00   0.00     0.00  -0.00  -0.00    -0.00   0.00   0.00
   7   1    -0.03   0.04  -0.07     0.01  -0.02   0.03    -0.00   0.00  -0.00
   8   1     0.06  -0.07  -0.02    -0.02   0.03   0.00     0.00  -0.00   0.00
   9   8    -0.00   0.00   0.00    -0.00   0.00   0.00     0.00  -0.00  -0.00
  10   8     0.00   0.00  -0.00     0.00   0.00   0.00    -0.00  -0.00  -0.00
  11   6    -0.05   0.06   0.18     0.01  -0.01  -0.03    -0.01   0.01   0.03
  12   6    -0.00   0.00  -0.01    -0.02   0.03   0.09    -0.04   0.05   0.17
  13   1     0.41  -0.54  -0.14    -0.05   0.06   0.02     0.05  -0.07  -0.01
  14   1    -0.23   0.31  -0.53     0.03  -0.04   0.07    -0.03   0.04  -0.07
  15   6     0.00  -0.00  -0.01     0.00   0.00  -0.00     0.01   0.00  -0.01
  16   1    -0.02   0.02   0.01     0.18  -0.24  -0.07     0.36  -0.49  -0.13
  17   1     0.02  -0.03   0.05    -0.11   0.14  -0.25    -0.22   0.29  -0.49
  18   1    -0.06   0.09   0.02    -0.35   0.48   0.12     0.17  -0.23  -0.06
  19   1     0.05  -0.05   0.11     0.22  -0.28   0.51    -0.11   0.14  -0.25
                     49                     50                     51
                        a                      a                      a 
 Frequencies --  3030.4608              3034.5021              3041.9134
 Red. masses --     1.9540                 1.8925                 1.2979
 Frc consts  --     0.0000                 0.0000                 0.0000
 IR Inten    --    84.1793                79.9128                40.7915
 Raman Activ --     0.0000                 0.0000                 0.0000
 Depolar     --     0.0000                 0.0000                 0.0000
 Atom AN      X      Y      Z        X      Y      Z        X      Y      Z
   1   6    -0.00   0.00  -0.00     0.00  -0.00  -0.00     0.00  -0.00  -0.00
   2   6     0.00  -0.00   0.00     0.00  -0.00  -0.00    -0.00   0.00   0.00
   3   1     0.22  -0.30   0.59     0.20  -0.24   0.40    -0.13   0.20  -0.36
   4   1    -0.04   0.03  -0.00    -0.45  -0.19   0.31    -0.59  -0.23   0.43
   5   1     0.36  -0.49  -0.19    -0.31   0.46   0.11     0.27  -0.33  -0.11
   6   6    -0.00   0.00  -0.00     0.00   0.00  -0.00    -0.00  -0.00  -0.00
   7   1    -0.00  -0.00   0.00     0.00  -0.00   0.00    -0.00   0.00  -0.00
   8   1     0.00   0.00  -0.00    -0.00   0.00   0.00     0.00  -0.00  -0.00
   9   8     0.00  -0.00   0.00     0.00   0.00  -0.00    -0.00   0.00   0.00
  10   8    -0.00   0.00  -0.00    -0.00   0.00   0.00     0.00   0.00  -0.00
  11   6    -0.00   0.00  -0.00     0.00  -0.00  -0.00    -0.00   0.00   0.00
  12   6    -0.02   0.02  -0.01     0.01  -0.01  -0.02     0.00   0.00  -0.00
  13   1     0.00  -0.00  -0.00    -0.02   0.02   0.00     0.00  -0.00  -0.00
  14   1     0.00  -0.00   0.01     0.01  -0.01   0.02    -0.00   0.00  -0.00
  15   6    -0.15   0.22  -0.11     0.16  -0.01  -0.23     0.13   0.10   0.01
  16   1     0.03  -0.04  -0.01    -0.03   0.04   0.01    -0.01   0.01   0.00
  17   1     0.02  -0.03   0.05     0.02  -0.02   0.04     0.01  -0.01   0.01
  18   1    -0.00  -0.00  -0.00    -0.00   0.00   0.00    -0.00   0.01   0.00
  19   1     0.00   0.00   0.00     0.00  -0.00   0.00     0.00  -0.00   0.01
