      -----------------------------------------------------------      
     |                   =====================                   |     
     |                           x T B                           |     
     |                   =====================                   |     
     |                         S. Grimme                         |     
     |          Mulliken Center for Theoretical Chemistry        |     
     |                    University of Bonn                     |     
      -----------------------------------------------------------      

   * xtb version 6.7.1 (edcfbbe) compiled by 'albert@albert-system' on 2024-07-22

   xtb is free software: you can redistribute it and/or modify it under
   the terms of the GNU Lesser General Public License as published by
   the Free Software Foundation, either version 3 of the License, or
   (at your option) any later version.
   
   xtb is distributed in the hope that it will be useful,
   but WITHOUT ANY WARRANTY; without even the implied warranty of
   MERCHANTABILITY or FITNESS FOR A PARTICULAR PURPOSE.  See the
   GNU Lesser General Public License for more details.
   
   Cite this work as:
   * C. Bannwarth, E. Caldeweyher, S. Ehlert, A. Hansen, P. Pracht,
     J. Seibert, S. Spicher, S. Grimme, WIREs Comput. Mol. Sci., 2020, 11,
     e01493. DOI: 10.1002/wcms.1493
   
   for GFN2-xTB:
   * C. Bannwarth, S. Ehlert and S. Grimme., J. Chem. Theory Comput., 2019,
     15, 1652-1671. DOI: 10.1021/acs.jctc.8b01176
   for GFN1-xTB:
   * S. Grimme, C. Bannwarth, P. Shushkov, J. Chem. Theory Comput., 2017,
     13, 1989-2009. DOI: 10.1021/acs.jctc.7b00118
   for GFN0-xTB:
   * P. Pracht, E. Caldeweyher, S. Ehlert, S. Grimme, ChemRxiv, 2019, preprint.
     DOI: 10.26434/chemrxiv.8326202.v1
   for GFN-FF:
   * S. Spicher and S. Grimme, Angew. Chem. Int. Ed., 2020, 59, 15665-15673.
     DOI: 10.1002/anie.202004239
   
   for ALPB and GBSA implicit solvation:
   * S. Ehlert, M. Stahn, S. Spicher, S. Grimme, J. Chem. Theory Comput.,
     2021, 17, 4250-4261. DOI: 10.1021/acs.jctc.1c00471
   
   for ddCOSMO and CPCM-X implicit solvation:
   * M. Stahn, S. Ehlert, S. Grimme, J. Phys. Chem. A,
     2023, XX, XXXX-XXXX. DOI: 10.1021/acs.jpca.3c04382
   
   for DFT-D4:
   * E. Caldeweyher, C. Bannwarth and S. Grimme, J. Chem. Phys., 2017,
     147, 034112. DOI: 10.1063/1.4993215
   * E. Caldeweyher, S. Ehlert, A. Hansen, H. Neugebauer, S. Spicher,
     C. Bannwarth and S. Grimme, J. Chem. Phys., 2019, 150, 154122.
     DOI: 10.1063/1.5090222
   * E. Caldeweyher, J.-M. Mewes, S. Ehlert and S. Grimme, Phys. Chem. Chem. Phys.
     2020, 22, 8499-8512. DOI: 10.1039/D0CP00502A
   
   for sTDA-xTB:
   * S. Grimme and C. Bannwarth, J. Chem. Phys., 2016, 145, 054103.
     DOI: 10.1063/1.4959605
   
   in the mass-spec context:
   * V. Asgeirsson, C. Bauer and S. Grimme, Chem. Sci., 2017, 8, 4879.
     DOI: 10.1039/c7sc00601b
   * J. Koopman and S. Grimme, ACS Omega 2019, 4, 12, 15120-15133.
     DOI: 10.1021/acsomega.9b02011
   
   for metadynamics refer to:
   * S. Grimme, J. Chem. Theory Comput., 2019, 155, 2847-2862
     DOI: 10.1021/acs.jctc.9b00143
   
   for SPH calculations refer to:
   * S. Spicher and S. Grimme, J. Chem. Theory Comput., 2021, 17, 1701-1714
     DOI: 10.1021/acs.jctc.0c01306
   
   for ONIOM refer to:
   * C. Plett, A. Katbashev, S. Ehlert, S. Grimme, M. Bursch,
     Phys. Chem. Chem. Phys., 2023, 25, 17860-17868. DOI: 10.1039/D3CP02178E
   
   for DIPRO refer to:
   * J. Kohn, N. Gildemeister, S. Grimme, D. Fazzi, A. Hansen,
     J. Chem. Phys., 2023, just accepted.
   
   for PTB refer to:
   * S. Grimme, M. Mueller, A. Hansen, J. Chem. Phys., 2023, 158, 124111.
     DOI: 10.1063/5.0137838
   
   with help from (in alphabetical order)
   P. Atkinson, C. Bannwarth, F. Bohle, G. Brandenburg, E. Caldeweyher
   M. Checinski, S. Dohm, S. Ehlert, S. Ehrlich, I. Gerasimov, C. Hölzer
   A. Katbashev, J. Kohn, J. Koopman, C. Lavigne, S. Lehtola, F. März, M. Müller,
   F. Musil, H. Neugebauer, J. Pisarek, C. Plett, P. Pracht, F. Pultar,
   J. Seibert, P. Shushkov, S. Spicher, M. Stahn, M. Steiner, T. Strunk,
   J. Stückrath, T. Rose, and J. Unsleber
   
 * started run on 2025/10/18 at 03:37:38.437     
   ID    Z sym.   atoms
    1    6 C      1, 2, 6, 11, 12, 15
    2    1 H      3-5, 7, 8, 13, 14, 16-19
    3    8 O      9, 10

           -------------------------------------------------
          |                Calculation Setup                |
           -------------------------------------------------

          program call               : xtb xyz.xyz --alpb water --charge -1 --ohess
          hostname                   : m003
          coordinate file            : xyz.xyz
          omp threads                :                     2


           -------------------------------------------------
          |                 G F N 2 - x T B                 |
           -------------------------------------------------

        Reference                      10.1021/acs.jctc.8b01176
      * Hamiltonian:
        H0-scaling (s, p, d)           1.850000    2.230000    2.230000
        zeta-weighting                 0.500000
      * Dispersion:
        s8                             2.700000
        a1                             0.520000
        a2                             5.000000
        s9                             5.000000
      * Repulsion:
        kExp                           1.500000    1.000000
        rExp                           1.000000
      * Coulomb:
        alpha                          2.000000
        third order                    shell-resolved
        anisotropic                    true
        a3                             3.000000
        a5                             4.000000
        cn-shift                       1.200000
        cn-exp                         4.000000
        max-rad                        5.000000

      * Solvation model:               ALPB
        Solvent                        water
        Parameter file                 internal GFN2-xTB/ALPB
        Dielectric constant                8.0200E+01
        Reference state                gsolv [1 M gas/solution]
        Free energy shift                  1.0808E-03 Eh       6.7819E-01 kcal/mol
        Temperature                        2.9815E+02 K
        Density                            1.0000E+00 kg/L
        Solvent mass                       1.8000E+01 g/mol
        Interaction kernel             P16
        Born radius scaling (c1)           1.4744E+00
        Born radii integrator          GBOBC
        Born offset                        0.0000E+00 a0       0.0000E+00 AA
        H-bond correction              true
        Ion screening                  false
        Surface tension                    1.0000E-05 Eh       1.5569E+01 dyn/cm
        Grid points                               230 per atom

          ...................................................
          :                      SETUP                      :
          :.................................................:
          :  # basis functions                  43          :
          :  # atomic orbitals                  43          :
          :  # shells                           27          :
          :  # electrons                        48          :
          :  max. iterations                   250          :
          :  Hamiltonian                  GFN2-xTB          :
          :  restarted?                      false          :
          :  GBSA solvation                   true          :
          :  PC potential                    false          :
          :  electronic temp.          300.0000000     K    :
          :  accuracy                    1.0000000          :
          :  -> integral cutoff          0.2500000E+02      :
          :  -> integral neglect         0.1000000E-07      :
          :  -> SCF convergence          0.1000000E-05 Eh   :
          :  -> wf. convergence          0.1000000E-03 e    :
          :  Broyden damping             0.4000000          :
          :  net charge                         -1          :
          :  unpaired electrons                  0          :
          ...................................................

 iter      E             dE          RMSdq      gap      omega  full diag
   1    -27.1219383 -0.271219E+02  0.405E+00    5.06       0.0  T
   2    -27.2174780 -0.955397E-01  0.182E+00    4.70       1.0  T
   3    -27.2200304 -0.255237E-02  0.998E-01    5.00       1.0  T
   4    -27.2207067 -0.676316E-03  0.231E-01    4.82       1.0  T
   5    -27.2211500 -0.443281E-03  0.909E-02    4.90       1.0  T
   6    -27.2211539 -0.396685E-05  0.165E-02    4.88       1.4  T
   7    -27.2211559 -0.194289E-05  0.608E-03    4.89       3.8  T
   8    -27.2211559 -0.354730E-07  0.259E-03    4.89       8.9  T
   9    -27.2211559 -0.164877E-07  0.499E-04    4.89      46.0  T
  10    -27.2211559 -0.115116E-08  0.208E-04    4.89     110.5  T

   *** convergence criteria satisfied after 10 iterations ***

         #    Occupation            Energy/Eh            Energy/eV
      -------------------------------------------------------------
         1        2.0000           -0.6594045             -17.9433
       ...           ...                  ...                  ...
        18        2.0000           -0.4332847             -11.7903
        19        2.0000           -0.4263770             -11.6023
        20        2.0000           -0.4256378             -11.5822
        21        2.0000           -0.4180199             -11.3749
        22        2.0000           -0.3894833             -10.5984
        23        2.0000           -0.3758572             -10.2276
        24        2.0000           -0.3504461              -9.5361 (HOMO)
        25                         -0.1707996              -4.6477 (LUMO)
        26                          0.0675088               1.8370
        27                          0.1112065               3.0261
        28                          0.1147543               3.1226
        29                          0.1378729               3.7517
       ...                                ...                  ...
        43                          0.6154996              16.7486
      -------------------------------------------------------------
                  HL-Gap            0.1796465 Eh            4.8884 eV
             Fermi-level           -0.2606229 Eh           -7.0919 eV

 SCC (total)                   0 d,  0 h,  0 min,  0.064 sec
 SCC setup                      ...        0 min,  0.001 sec (  0.902%)
 Dispersion                     ...        0 min,  0.000 sec (  0.284%)
 classical contributions        ...        0 min,  0.000 sec (  0.064%)
 integral evaluation            ...        0 min,  0.001 sec (  2.109%)
 iterations                     ...        0 min,  0.060 sec ( 92.361%)
 molecular gradient             ...        0 min,  0.003 sec (  4.064%)
 printout                       ...        0 min,  0.000 sec (  0.166%)

         :::::::::::::::::::::::::::::::::::::::::::::::::::::
         ::                     SUMMARY                     ::
         :::::::::::::::::::::::::::::::::::::::::::::::::::::
         :: total energy             -26.928216443152 Eh    ::
         :: total w/o Gsasa/hb       -26.929506264471 Eh    ::
         :: gradient norm              0.037689184580 Eh/a0 ::
         :: HOMO-LUMO gap              4.888429570641 eV    ::
         ::.................................................::
         :: SCC energy               -27.221185937814 Eh    ::
         :: -> isotropic ES            0.236629148935 Eh    ::
         :: -> anisotropic ES          0.004824203895 Eh    ::
         :: -> anisotropic XC          0.007247454629 Eh    ::
         :: -> dispersion             -0.011804846317 Eh    ::
         :: -> Gsolv                  -0.113092346997 Eh    ::
         ::    -> Gelec               -0.114382168316 Eh    ::
         ::    -> Gsasa                0.003735535714 Eh    ::
         ::    -> Ghb                 -0.003526474093 Eh    ::
         ::    -> Gshift               0.001080759698 Eh    ::
         :: repulsion energy           0.292969494662 Eh    ::
         :: add. restraining           0.000000000000 Eh    ::
         :: total charge              -1.000000000000 e     ::
         :::::::::::::::::::::::::::::::::::::::::::::::::::::

      ----------------------------------------------------------- 
     |                   =====================                   |
     |                        A N C O P T                        |
     |                   =====================                   |
     |               Approximate Normal Coordinate               |
     |                Rational Function Optimizer                |
      ----------------------------------------------------------- 
      ----------------------------------------------------------- 
     |                   =====================                   |
     |                        A N C O P T                        |
     |                   =====================                   |
     |               Approximate Normal Coordinate               |
     |                Rational Function Optimizer                |
      ----------------------------------------------------------- 

          ...................................................
          :                      SETUP                      :
          :.................................................:
          :   optimization level            normal          :
          :   max. optcycles                   200          :
          :   ANC micro-cycles                  20          :
          :   degrees of freedom                51          :
          :.................................................:
          :   RF solver                   davidson          :
          :   write xtbopt.log                true          :
          :   linear?                        false          :
          :   energy convergence         0.5000000E-05 Eh   :
          :   grad. convergence          0.1000000E-02 Eh/α :
          :   maxmium RF displ.          1.0000000          :
          :   Hlow (freq-cutoff)         0.1000000E-01      :
          :   Hmax (freq-cutoff)         5.0000000          :
          :   S6 in model hess.         20.0000000          :
          ...................................................

generating ANC from exact Hessian ...
Using Lindh-Hessian (1995)
 Shifting diagonal of input Hessian by   8.143106515920581E-003
 Lowest  eigenvalues of input Hessian
    0.000000    0.000000    0.000000    0.000000    0.000000    0.000000
    0.010000    0.010701    0.011224    0.014444    0.018344    0.018459
    0.022191    0.022422    0.029275    0.043077    0.047944    0.050288
 Highest eigenvalues
    1.181571    1.196736    1.238229    1.284825    1.641376    2.276985
 

........................................................................
.............................. CYCLE    1 ..............................
........................................................................

 iter      E             dE          RMSdq      gap      omega  full diag
   1    -27.2211559 -0.272212E+02  0.435E-05    4.89       0.0  T
   2    -27.2211559 -0.226308E-11  0.292E-05    4.89     785.7  T
   3    -27.2211559 -0.603961E-12  0.942E-06    4.89    2436.3  T
     SCC iter.                  ...        0 min,  0.001 sec
     gradient                   ...        0 min,  0.003 sec
 * total energy  :   -26.9282164 Eh     change       -0.5922729E-10 Eh
   gradient norm :     0.0376894 Eh/α   predicted     0.0000000E+00 (-100.00%)
   displ. norm   :     0.1227901 α      lambda       -0.2936984E-02
   maximum displ.:     0.0645256 α      in ANC's #8, #34, #35, ...

........................................................................
.............................. CYCLE    2 ..............................
........................................................................

 iter      E             dE          RMSdq      gap      omega  full diag
   1    -27.2318577 -0.272319E+02  0.116E-01    5.08       0.0  T
   2    -27.2318912 -0.334110E-04  0.680E-02    5.05       1.0  T
   3    -27.2318926 -0.146552E-05  0.309E-02    5.06       1.0  T
   4    -27.2318952 -0.256194E-05  0.376E-03    5.06       6.1  T
   5    -27.2318952 -0.255249E-07  0.243E-03    5.06       9.4  T
   6    -27.2318952 -0.521462E-08  0.610E-04    5.06      37.6  T
   7    -27.2318952 -0.711804E-09  0.154E-04    5.06     148.9  T
     SCC iter.                  ...        0 min,  0.003 sec
     gradient                   ...        0 min,  0.003 sec
 * total energy  :   -26.9301452 Eh     change       -0.1928751E-02 Eh
   gradient norm :     0.0125256 Eh/α   predicted    -0.1490643E-02 ( -22.71%)
   displ. norm   :     0.0769641 α      lambda       -0.5603146E-03
   maximum displ.:     0.0350344 α      in ANC's #2, #8, #5, ...

........................................................................
.............................. CYCLE    3 ..............................
........................................................................

 iter      E             dE          RMSdq      gap      omega  full diag
   1    -27.2349488 -0.272349E+02  0.510E-02    5.14       0.0  T
   2    -27.2349531 -0.435139E-05  0.299E-02    5.13       1.0  T
   3    -27.2349532 -0.289522E-07  0.118E-02    5.13       1.9  T
   4    -27.2349536 -0.449275E-06  0.159E-03    5.13      14.4  T
   5    -27.2349536 -0.614782E-08  0.101E-03    5.13      22.7  T
   6    -27.2349536 -0.893468E-09  0.282E-04    5.13      81.3  T
   7    -27.2349536 -0.129152E-09  0.523E-05    5.13     438.9  T
     SCC iter.                  ...        0 min,  0.003 sec
     gradient                   ...        0 min,  0.003 sec
 * total energy  :   -26.9304367 Eh     change       -0.2914855E-03 Eh
   gradient norm :     0.0032658 Eh/α   predicted    -0.2818904E-03 (  -3.29%)
   displ. norm   :     0.0344921 α      lambda       -0.2436163E-04
   maximum displ.:     0.0261068 α      in ANC's #2, #8, #1, ...

........................................................................
.............................. CYCLE    4 ..............................
........................................................................

 iter      E             dE          RMSdq      gap      omega  full diag
   1    -27.2345392 -0.272345E+02  0.103E-02    5.12       0.0  T
   2    -27.2345395 -0.231813E-06  0.642E-03    5.12       3.6  T
   3    -27.2345395 -0.891369E-08  0.275E-03    5.12       8.3  T
   4    -27.2345395 -0.239861E-07  0.297E-04    5.12      77.3  T
   5    -27.2345395 -0.593054E-10  0.167E-04    5.12     137.0  T
     SCC iter.                  ...        0 min,  0.002 sec
     gradient                   ...        0 min,  0.003 sec
 * total energy  :   -26.9304537 Eh     change       -0.1698457E-04 Eh
   gradient norm :     0.0015024 Eh/α   predicted    -0.1219996E-04 ( -28.17%)
   displ. norm   :     0.0686543 α      lambda       -0.1731935E-04
   maximum displ.:     0.0534661 α      in ANC's #2, #1, #5, ...

........................................................................
.............................. CYCLE    5 ..............................
........................................................................

 iter      E             dE          RMSdq      gap      omega  full diag
   1    -27.2337967 -0.272338E+02  0.242E-02    5.11       0.0  T
   2    -27.2337973 -0.641884E-06  0.149E-02    5.11       1.5  T
   3    -27.2337973  0.522395E-07  0.460E-03    5.11       5.0  T
   4    -27.2337974 -0.134225E-06  0.586E-04    5.11      39.1  T
   5    -27.2337974 -0.589814E-09  0.328E-04    5.11      70.0  T
     SCC iter.                  ...        0 min,  0.002 sec
     gradient                   ...        0 min,  0.003 sec
 * total energy  :   -26.9304535 Eh     change        0.2140575E-06 Eh
   gradient norm :     0.0030958 Eh/α   predicted    -0.8678301E-05 (*******%)
   displ. norm   :     0.0178052 α      lambda       -0.1959213E-04
   maximum displ.:     0.0122972 α      in ANC's #2, #1, #10, ...

........................................................................
.............................. CYCLE    6 ..............................
........................................................................

 iter      E             dE          RMSdq      gap      omega  full diag
   1    -27.2338930 -0.272339E+02  0.979E-03    5.12       0.0  T
   2    -27.2338930 -0.364567E-07  0.591E-03    5.12       3.9  T
   3    -27.2338930  0.415197E-08  0.954E-04    5.12      24.1  T
   4    -27.2338930 -0.756837E-08  0.190E-04    5.12     120.5  T
     SCC iter.                  ...        0 min,  0.002 sec
     gradient                   ...        0 min,  0.003 sec
 * total energy  :   -26.9304653 Eh     change       -0.1180647E-04 Eh
   gradient norm :     0.0018852 Eh/α   predicted    -0.9821874E-05 ( -16.81%)
   displ. norm   :     0.0216913 α      lambda       -0.6983441E-05
   maximum displ.:     0.0117450 α      in ANC's #1, #8, #5, ...

........................................................................
.............................. CYCLE    7 ..............................
........................................................................

 iter      E             dE          RMSdq      gap      omega  full diag
   1    -27.2344882 -0.272345E+02  0.851E-03    5.13       0.0  T
   2    -27.2344884 -0.269415E-06  0.534E-03    5.12       4.3  T
   3    -27.2344885 -0.265827E-07  0.266E-03    5.12       8.6  T
   4    -27.2344885 -0.114816E-07  0.291E-04    5.12      78.7  T
   5    -27.2344885 -0.534861E-10  0.171E-04    5.12     134.4  T
     SCC iter.                  ...        0 min,  0.002 sec
     gradient                   ...        0 min,  0.003 sec
 * total energy  :   -26.9304702 Eh     change       -0.4908749E-05 Eh
   gradient norm :     0.0006270 Eh/α   predicted    -0.3498697E-05 ( -28.73%)
   displ. norm   :     0.0228488 α      lambda       -0.1960742E-05
   maximum displ.:     0.0162930 α      in ANC's #1, #2, #3, ...

   *** GEOMETRY OPTIMIZATION CONVERGED AFTER 7 ITERATIONS ***

------------------------------------------------------------------------
 total energy gain   :        -0.0022537 Eh       -1.4142 kcal/mol
 total RMSD          :         0.0604898 a0        0.0320 Å
 total power (kW/mol):        -0.8453069 (step) -118.7820 (real)
------------------------------------------------------------------------

 ANCopt (total)                0 d,  0 h,  0 min,  0.050 sec
 optimizer setup                ...        0 min,  0.000 sec (  0.430%)
 model hessian                  ...        0 min,  0.005 sec ( 10.115%)
 ANC generation                 ...        0 min,  0.000 sec (  0.897%)
 coordinate transformation      ...        0 min,  0.000 sec (  0.122%)
 single point calculation       ...        0 min,  0.043 sec ( 85.760%)
 optimization log               ...        0 min,  0.001 sec (  1.004%)
 hessian update                 ...        0 min,  0.000 sec (  0.158%)
 rational function              ...        0 min,  0.000 sec (  0.858%)

================
 final structure:
================
19
 xtb: 6.7.1 (edcfbbe)
C           -5.30361823878482       -3.61862532839382        0.49822362149340
C           -6.50101471952839       -4.13159196350860        1.28428719711444
H           -2.07372628696073       -1.58183625652043        2.21812189030361
H           -1.59715995829392       -0.75665986040572        0.73089269275198
H           -3.05080602665465       -0.25095199340680        1.59786071708382
C           -7.34024920051133       -5.19120531160025        0.52047043797577
H           -6.18566635978767       -4.59998343353952        2.22058714476995
H           -7.18418223602120       -3.31688833320645        1.53881180233239
O           -6.98673010251697       -5.51535766484705       -0.63113691921544
O           -8.32873775993586       -5.65204214928726        1.13499262014339
C           -4.47928930428042       -2.60843668426963        1.29149060989112
C           -3.27623854971018       -2.09609448486560        0.50309913835009
H           -5.12062847795426       -1.76807083593537        1.56782298191276
H           -4.13614577445627       -3.08153449572883        2.21475809059923
C           -2.44502178151577       -1.10763190999116        1.31290749679900
H           -2.65700996224927       -2.94701494050864        0.21101731992183
H           -3.63055609927924       -1.61821281757061       -0.41278151851582
H           -4.68632826450453       -4.47480313093241        0.21395479700335
H           -5.66594189705450       -3.17050140548187       -0.43049612071492
 
 Bond Distances (Angstroems)
 ---------------------------
C1-C2=1.5214         C1-C11=1.5262        C1-H18=1.0931        C1-H19=1.0930        C2-C1=1.5214         C2-C6=1.5526         
C2-H7=1.0934         C2-H8=1.0933         H3-C15=1.0873        H4-C15=1.0866        H5-C15=1.0872        C6-C2=1.5526         
C6-O9=1.2475         C6-O10=1.2518        H7-C2=1.0934         H8-C2=1.0933         O9-C6=1.2475         O10-C6=1.2518        
C11-C1=1.5262        C11-C12=1.5269       C11-H13=1.0927       C11-H14=1.0927       C12-C11=1.5269       C12-C15=1.5244       
C12-H16=1.0922       C12-H17=1.0921       H13-C11=1.0927       H14-C11=1.0927       C15-H3=1.0873        C15-H4=1.0866        
C15-H5=1.0872        C15-C12=1.5244       H16-C12=1.0922       H17-C12=1.0921       H18-C1=1.0931        H19-C1=1.0930        
 C  H  Rav=1.0912 sigma=0.0026  Rmin=1.0866  Rmax=1.0934    11
 C  C  Rav=1.5303 sigma=0.0113  Rmin=1.5214  Rmax=1.5526     5
 O  C  Rav=1.2497 sigma=0.0022  Rmin=1.2475  Rmax=1.2518     2
 
 selected bond angles (degree)
 --------------------
C11-C1-C2=112.32               H18-C1-C2=108.34               H18-C1-C11=110.40              H19-C1-C2=108.44               
H19-C1-C11=110.45              H19-C1-H18=106.70              C6-C2-C1=113.66                H7-C2-C1=111.09                
H7-C2-C6=106.55                H8-C2-C1=111.15                H8-C2-C6=106.58                H8-C2-H7=107.46                
O9-C6-C2=118.57                O10-C6-C2=115.88               O10-C6-O9=125.54               
 
 selected dihedral angles (degree)
 ---------------------------------
C6-C2-C1-C11=181.58           C6-C2-C1-H18=303.79           C6-C2-C1-H19= 59.24           H7-C2-C1-C11=301.73           
H7-C2-C1-H18= 63.95           H7-C2-C1-H19=179.39           H8-C2-C1-C11= 61.34           H8-C2-C1-H18=183.56           
H8-C2-C1-H19=299.01           O9-C6-C2-C1=359.47            O9-C6-C2-H7=236.78            O9-C6-C2-H8=122.25            
O10-C6-C2-C1=179.29           O10-C6-C2-H7= 56.61           O10-C6-C2-H8=302.08           
           -------------------------------------------------
          |                Final Singlepoint                |
           -------------------------------------------------

          ...................................................
          :                      SETUP                      :
          :.................................................:
          :  # basis functions                  43          :
          :  # atomic orbitals                  43          :
          :  # shells                           27          :
          :  # electrons                        48          :
          :  max. iterations                   250          :
          :  Hamiltonian                  GFN2-xTB          :
          :  restarted?                      false          :
          :  GBSA solvation                   true          :
          :  PC potential                    false          :
          :  electronic temp.          300.0000000     K    :
          :  accuracy                    1.0000000          :
          :  -> integral cutoff          0.2500000E+02      :
          :  -> integral neglect         0.1000000E-07      :
          :  -> SCF convergence          0.1000000E-05 Eh   :
          :  -> wf. convergence          0.1000000E-03 e    :
          :  Broyden damping             0.4000000          :
          :  net charge                         -1          :
          :  unpaired electrons                  0          :
          ...................................................

 iter      E             dE          RMSdq      gap      omega  full diag
   1    -27.2344885 -0.272345E+02  0.295E-05    5.12       0.0  T
   2    -27.2344885 -0.118661E-11  0.185E-05    5.12    1240.9  T
   3    -27.2344885 -0.170530E-12  0.645E-06    5.12    3558.0  T

   *** convergence criteria satisfied after 3 iterations ***

         #    Occupation            Energy/Eh            Energy/eV
      -------------------------------------------------------------
         1        2.0000           -0.6621589             -18.0183
       ...           ...                  ...                  ...
        18        2.0000           -0.4336598             -11.8005
        19        2.0000           -0.4271768             -11.6241
        20        2.0000           -0.4258465             -11.5879
        21        2.0000           -0.4177063             -11.3664
        22        2.0000           -0.3895726             -10.6008
        23        2.0000           -0.3723368             -10.1318
        24        2.0000           -0.3522398              -9.5849 (HOMO)
        25                         -0.1639566              -4.4615 (LUMO)
        26                          0.0629411               1.7127
        27                          0.1187801               3.2322
        28                          0.1192130               3.2440
        29                          0.1334430               3.6312
       ...                                ...                  ...
        43                          0.6242802              16.9875
      -------------------------------------------------------------
                  HL-Gap            0.1882832 Eh            5.1234 eV
             Fermi-level           -0.2580982 Eh           -7.0232 eV

 SCC (total)                   0 d,  0 h,  0 min,  0.006 sec
 SCC setup                      ...        0 min,  0.000 sec (  5.331%)
 Dispersion                     ...        0 min,  0.000 sec (  1.857%)
 classical contributions        ...        0 min,  0.000 sec (  0.355%)
 integral evaluation            ...        0 min,  0.001 sec ( 17.176%)
 iterations                     ...        0 min,  0.001 sec ( 24.183%)
 molecular gradient             ...        0 min,  0.003 sec ( 48.991%)
 printout                       ...        0 min,  0.000 sec (  1.452%)

         :::::::::::::::::::::::::::::::::::::::::::::::::::::
         ::                     SUMMARY                     ::
         :::::::::::::::::::::::::::::::::::::::::::::::::::::
         :: total energy             -26.930470165874 Eh    ::
         :: total w/o Gsasa/hb       -26.931768035789 Eh    ::
         :: gradient norm              0.000626622836 Eh/a0 ::
         :: HOMO-LUMO gap              5.123446734783 eV    ::
         ::.................................................::
         :: SCC energy               -27.234519626290 Eh    ::
         :: -> isotropic ES            0.237429773436 Eh    ::
         :: -> anisotropic ES          0.003427301670 Eh    ::
         :: -> anisotropic XC          0.006594547290 Eh    ::
         :: -> dispersion             -0.011791646329 Eh    ::
         :: -> Gsolv                  -0.113831440903 Eh    ::
         ::    -> Gelec               -0.115129310818 Eh    ::
         ::    -> Gsasa                0.003728861898 Eh    ::
         ::    -> Ghb                 -0.003511751681 Eh    ::
         ::    -> Gshift               0.001080759698 Eh    ::
         :: repulsion energy           0.304049460415 Eh    ::
         :: add. restraining           0.000000000000 Eh    ::
         :: total charge              -1.000000000000 e     ::
         :::::::::::::::::::::::::::::::::::::::::::::::::::::

           ------------------------------------------------- 
          |                Numerical Hessian                |
           ------------------------------------------------- 
step length          :   0.00500
SCC accuracy         :   0.30000
Hessian scale factor :   1.00000
frozen atoms in %    :   0.00000    0
RMS gradient         :   0.00063
estimated CPU  time      0.03 min
estimated wall time      0.02 min

writing file <hessian>.

 projected vibrational frequencies (cm⁻¹)
eigval :       -0.00     0.00     0.00     0.00     0.00     0.00
eigval :      -27.36    47.72    95.35   101.25   119.87   219.31
eigval :      232.54   315.47   404.36   523.75   567.58   652.23
eigval :      763.71   793.91   866.31   892.51   945.38   964.83
eigval :     1061.99  1068.20  1098.70  1107.68  1133.29  1203.11
eigval :     1227.51  1247.05  1275.95  1283.86  1286.80  1335.64
eigval :     1343.37  1371.95  1405.62  1467.99  1493.04  1495.61
eigval :     1497.53  1501.15  1507.77  1652.98  2936.94  2948.51
eigval :     2955.99  2956.75  2964.36  2971.04  2975.16  2981.04
eigval :     3030.46  3034.50  3041.91
           -------------------------------------------------
          |                Property Printout                |
           -------------------------------------------------

    * Orbital Energies and Occupations

         #    Occupation            Energy/Eh            Energy/eV
      -------------------------------------------------------------
         1        2.0000           -0.6621589             -18.0183
       ...           ...                  ...                  ...
        12        2.0000           -0.4927182             -13.4075
        13        2.0000           -0.4819657             -13.1150
        14        2.0000           -0.4815403             -13.1034
        15        2.0000           -0.4713927             -12.8272
        16        2.0000           -0.4520704             -12.3015
        17        2.0000           -0.4439711             -12.0811
        18        2.0000           -0.4336599             -11.8005
        19        2.0000           -0.4271768             -11.6241
        20        2.0000           -0.4258466             -11.5879
        21        2.0000           -0.4177063             -11.3664
        22        2.0000           -0.3895727             -10.6008
        23        2.0000           -0.3723369             -10.1318
        24        2.0000           -0.3522399              -9.5849 (HOMO)
        25                         -0.1639567              -4.4615 (LUMO)
        26                          0.0629411               1.7127
        27                          0.1187800               3.2322
        28                          0.1192130               3.2440
        29                          0.1334429               3.6312
        30                          0.1541827               4.1955
        31                          0.1599041               4.3512
        32                          0.1733456               4.7170
        33                          0.1761383               4.7930
        34                          0.1883609               5.1256
        35                          0.1931454               5.2558
       ...                                ...                  ...
        43                          0.6242802              16.9875
      -------------------------------------------------------------
                  HL-Gap            0.1882832 Eh            5.1234 eV
             Fermi-level           -0.2580983 Eh           -7.0232 eV

     #   Z          covCN         q      C6AA      α(0)
     1   6 C        3.802    -0.046    21.403     6.587
     2   6 C        3.799    -0.093    22.275     6.720
     3   1 H        0.925     0.041     2.436     2.441
     4   1 H        0.925     0.047     2.352     2.398
     5   1 H        0.925     0.041     2.432     2.439
     6   6 C        2.684     0.362    20.863     7.475
     7   1 H        0.924     0.021     2.719     2.579
     8   1 H        0.924     0.021     2.721     2.580
     9   8 O        0.856    -0.655    27.520     7.033
    10   8 O        0.856    -0.673    27.982     7.092
    11   6 C        3.803    -0.060    21.655     6.625
    12   6 C        3.801    -0.056    21.580     6.614
    13   1 H        0.924     0.031     2.569     2.506
    14   1 H        0.924     0.031     2.572     2.508
    15   6 C        3.752    -0.113    22.729     6.799
    16   1 H        0.924     0.030     2.592     2.518
    17   1 H        0.924     0.030     2.587     2.515
    18   1 H        0.924     0.021     2.717     2.578
    19   1 H        0.924     0.021     2.717     2.578

 Mol. C6AA /au·bohr⁶  :       3140.530227
 Mol. C8AA /au·bohr⁸  :      66891.170619
 Mol. α(0) /au        :         82.583876


Wiberg/Mayer (AO) data.
largest (>0.10) Wiberg bond orders for each atom

 ---------------------------------------------------------------------------
     #   Z sym  total        # sym  WBO       # sym  WBO       # sym  WBO
 ---------------------------------------------------------------------------
     1   6 C    3.996 --     2 C    1.012    11 C    1.005    19 H    0.978
                            18 H    0.977
     2   6 C    3.993 --     1 C    1.012     7 H    0.969     8 H    0.969
                             6 C    0.925
     3   1 H    0.998 --    15 C    0.988
     4   1 H    0.997 --    15 C    0.987
     5   1 H    0.998 --    15 C    0.988
     6   6 C    3.928 --     9 O    1.500    10 O    1.480     2 C    0.925
     7   1 H    1.000 --     2 C    0.969
     8   1 H    1.000 --     2 C    0.969
     9   8 O    1.785 --     6 C    1.500    10 O    0.211
    10   8 O    1.763 --     6 C    1.480     9 O    0.211
    11   6 C    3.996 --    12 C    1.007     1 C    1.005    13 H    0.978
                            14 H    0.977
    12   6 C    3.997 --    15 C    1.019    11 C    1.007    17 H    0.979
                            16 H    0.978
    13   1 H    0.999 --    11 C    0.978
    14   1 H    0.999 --    11 C    0.977
    15   6 C    3.995 --    12 C    1.019     3 H    0.988     5 H    0.988
                             4 H    0.987
    16   1 H    0.999 --    12 C    0.978
    17   1 H    0.999 --    12 C    0.979
    18   1 H    1.000 --     1 C    0.977
    19   1 H    1.000 --     1 C    0.978
 ---------------------------------------------------------------------------

Topologies differ in total number of bonds
Writing topology from bond orders to xtbtopo.mol

molecular dipole:
                 x           y           z       tot (Debye)
 q only:       14.834      10.900      -0.344
   full:       14.812      10.934      -0.257      46.800
molecular quadrupole (traceless):
                xx          xy          yy          xz          yz          zz
 q only:     -159.308    -239.498      -5.326      12.610       6.789     164.634
  q+dip:     -159.949    -243.392      -5.726      11.589       4.771     165.675
   full:     -159.684    -243.118      -5.729      11.589       4.684     165.413

           -------------------------------------------------
          |                Geometry Summary                 |
           -------------------------------------------------

      molecular mass/u    :      115.1505735
   center of mass at/Å    :       -5.5914091      -3.7489869       0.7365265
  moments of inertia/u·Å² :        0.6706108E+02   0.7535399E+03   0.8048862E+03
rotational constants/cm⁻¹ :        0.2513773E+00   0.2237126E-01   0.2094412E-01

 * 15 selected distances

     #   Z          #   Z                                           value/Å
     1   6 C        2   6 C                                       1.5214432
     2   6 C        7   1 H                                       1.0933860
     2   6 C        8   1 H                                       1.0932716
     1   6 C       11   6 C                                       1.5261953
    11   6 C       12   6 C                                       1.5268881 (max)
    11   6 C       13   1 H                                       1.0926530
    11   6 C       14   1 H                                       1.0926994
     3   1 H       15   6 C                                       1.0872642
     4   1 H       15   6 C                                       1.0866428 (min)
     5   1 H       15   6 C                                       1.0872321
    12   6 C       15   6 C                                       1.5243915
    12   6 C       16   1 H                                       1.0921638
    12   6 C       17   1 H                                       1.0921307
     1   6 C       18   1 H                                       1.0931131
     1   6 C       19   1 H                                       1.0929840

 * 2 distinct bonds (by element types)

   Z      Z             #   av. dist./Å        max./Å        min./Å
   1 H    6 C          11     1.0912310     1.0933860     1.0866428
   6 C    6 C           4     1.5247295     1.5268881     1.5214432

           -------------------------------------------------
          |               Frequency Printout                |
           -------------------------------------------------
 projected vibrational frequencies (cm⁻¹)
eigval :       -0.00     0.00     0.00     0.00     0.00     0.00
eigval :      -27.36    47.72    95.35   101.25   119.87   219.31
eigval :      232.54   315.47   404.36   523.75   567.58   652.23
eigval :      763.71   793.91   866.31   892.51   945.38   964.83
eigval :     1061.99  1068.20  1098.70  1107.68  1133.29  1203.11
eigval :     1227.51  1247.05  1275.95  1283.86  1286.80  1335.64
eigval :     1343.37  1371.95  1405.62  1467.99  1493.04  1495.61
eigval :     1497.53  1501.15  1507.77  1652.98  2936.94  2948.51
eigval :     2955.99  2956.75  2964.36  2971.04  2975.16  2981.04
eigval :     3030.46  3034.50  3041.91
 reduced masses (amu)
   1: 12.23   2: 11.68   3: 12.57   4: 10.79   5: 12.05   6: 11.83   7: 10.38   8: 10.28
   9: 11.51  10:  6.05  11:  7.69  12: 11.20  13:  2.17  14: 11.64  15:  9.81  16: 11.53
  17:  8.37  18: 13.47  19:  2.08  20:  3.11  21:  3.92  22: 11.71  23:  5.99  24:  3.25
  25: 10.03  26:  3.60  27:  7.63  28:  8.66  29:  8.16  30:  5.84  31:  4.08  32:  3.48
  33:  1.74  34:  2.28  35:  4.21  36: 13.85  37:  4.76  38:  5.64  39:  3.23  40:  2.09
  41:  1.97  42:  1.53  43:  1.79  44:  1.71  45:  1.87  46: 13.10  47:  1.94  48:  1.92
  49:  1.96  50:  1.51  51:  2.02  52:  1.46  53:  1.49  54:  1.48  55:  1.95  56:  1.89
  57:  1.30
 IR intensities (km·mol⁻¹)
   1: 12.06   2:  8.25   3: 11.56   4:  2.37   5:  9.19   6:  7.54   7:  0.25   8:  8.93
   9:  5.14  10:  0.67  11:  1.39  12:  5.97  13:  0.03  14:  5.02  15:  0.74  16:  8.31
  17: 26.25  18: 53.18  19: 22.65  20:  1.74  21: 17.89  22: 71.18  23: 13.91  24:  2.02
  25:  0.66  26:  8.45  27:  0.30  28:  0.18  29:  2.90  30:  0.09  31:  8.32  32:  0.57
  33:  0.09  34:  0.24  35:  1.50  36:503.93  37:  2.96  38:  0.51  39:  0.62  40:  2.00
  41:  4.23  42:  1.57  43:  0.01  44:  0.34  45:  3.62  46:933.14  47: 56.23  48: 11.56
  49: 90.41  50: 66.35  51:236.83  52: 59.04  53: 34.32  54:161.09  55: 84.18  56: 79.91
  57: 40.79
 Raman intensities (Ä⁴*amu⁻¹)
   1:  0.00   2:  0.00   3:  0.00   4:  0.00   5:  0.00   6:  0.00   7:  0.00   8:  0.00
   9:  0.00  10:  0.00  11:  0.00  12:  0.00  13:  0.00  14:  0.00  15:  0.00  16:  0.00
  17:  0.00  18:  0.00  19:  0.00  20:  0.00  21:  0.00  22:  0.00  23:  0.00  24:  0.00
  25:  0.00  26:  0.00  27:  0.00  28:  0.00  29:  0.00  30:  0.00  31:  0.00  32:  0.00
  33:  0.00  34:  0.00  35:  0.00  36:  0.00  37:  0.00  38:  0.00  39:  0.00  40:  0.00
  41:  0.00  42:  0.00  43:  0.00  44:  0.00  45:  0.00  46:  0.00  47:  0.00  48:  0.00
  49:  0.00  50:  0.00  51:  0.00  52:  0.00  53:  0.00  54:  0.00  55:  0.00  56:  0.00
  57:  0.00
 output can be read by thermo (or use thermo option).
 writing <g98.out> molden fake output.
 recommended (thermochemical) frequency scaling factor: 1.0
           -------------------------------------------------
          |             Thermodynamic Functions             |
           -------------------------------------------------

Refinement of some symmetry elements was terminated before convergence was reached.
Some symmetry elements may remain unidentified.
Molecule has no symmetry elements
It seems to be the C1 point group
c1  symmetry found (for desy threshold:  0.10E+00) used in thermo

          ...................................................
          :                      SETUP                      :
          :.................................................:
          :  # frequencies                          50      :
          :  # imaginary freq.                       1      :
          :  linear?                             false      :
          :  only rotor calc.                    false      :
          :  symmetry                               c1      :
          :  rotational number                       1      :
          :  scaling factor                  1.0000000      :
          :  rotor cutoff                   50.0000000 cm⁻¹ :
          :  imag. cutoff                  -20.0000000 cm⁻¹ :
          :.................................................:

    mode    ω/cm⁻¹     T·S(HO)/kcal·mol⁻¹    T·S(FR)/kcal·mol⁻¹   T·S(vib)
   ------------------------------------------------------------------------
       1     47.72    -1.46387 ( 45.34%)    -1.07021 ( 54.66%)    -1.24869
       2     95.35    -1.05757 ( 92.97%)    -0.86521 (  7.03%)    -1.04405
       3    101.25    -1.02270 ( 94.39%)    -0.84745 (  5.61%)    -1.01286
       4    119.87    -0.92501 ( 97.06%)    -0.79745 (  2.94%)    -0.92126
       5    219.31    -0.58579 ( 99.73%)    -0.61852 (  0.27%)    -0.58588
       6    232.54    -0.55432 ( 99.79%)    -0.60117 (  0.21%)    -0.55442
   ------------------------------------------------------------------------

   temp. (K)  partition function   enthalpy   heat capacity  entropy
                                   cal/mol     cal/K/mol   cal/K/mol   J/K/mol
 298.15  VIB   370.                 3722.779     23.793     23.425
         ROT  0.487E+06              888.752      2.981     29.007
         INT  0.180E+09             4611.532     26.774     52.431
         TR   0.120E+28             1481.254      4.968     40.120
         TOT                        6092.7854    31.7423    92.5517   387.2361

       T/K    H(0)-H(T)+PV         H(T)/Eh          T*S/Eh         G(T)/Eh
   ------------------------------------------------------------------------
    298.15    0.970947E-02    0.170023E+00    0.439743E-01    0.126049E+00
   ------------------------------------------------------------------------

         :::::::::::::::::::::::::::::::::::::::::::::::::::::
         ::                  THERMODYNAMIC                  ::
         :::::::::::::::::::::::::::::::::::::::::::::::::::::
         :: total free energy         -26.804421413333 Eh   ::
         ::.................................................::
         :: total energy              -26.930470165906 Eh   ::
         :: zero point energy           0.160313556859 Eh   ::
         :: G(RRHO) w/o ZPVE           -0.034264804287 Eh   ::
         :: G(RRHO) contrib.            0.126048752572 Eh   ::
         :::::::::::::::::::::::::::::::::::::::::::::::::::::
imag cut-off (cm-1) :    5.00
 found            1  significant imaginary frequency
 writing imag mode distorted coords to xtbhess.xyz
 for further optimization.

optimized geometry written to: xtbopt.xyz


           -------------------------------------------------
          | TOTAL ENERGY              -26.930470165906 Eh   |
          | TOTAL ENTHALPY            -26.760447137423 Eh   |
          | TOTAL FREE ENERGY         -26.804421413333 Eh   |
          | GRADIENT NORM               0.000626600824 Eh/α |
          | HOMO-LUMO GAP               5.123446940343 eV   |
           -------------------------------------------------

------------------------------------------------------------------------
 * finished run on 2025/10/18 at 03:37:39.655     
------------------------------------------------------------------------
 total:
 * wall-time:     0 d,  0 h,  0 min,  1.218 sec
 *  cpu-time:     0 d,  0 h,  0 min,  1.612 sec
 * ratio c/w:     1.324 speedup
 SCF:
 * wall-time:     0 d,  0 h,  0 min,  0.065 sec
 *  cpu-time:     0 d,  0 h,  0 min,  0.079 sec
 * ratio c/w:     1.223 speedup
 ANC optimizer:
 * wall-time:     0 d,  0 h,  0 min,  0.114 sec
 *  cpu-time:     0 d,  0 h,  0 min,  0.170 sec
 * ratio c/w:     1.496 speedup
 analytical hessian:
 * wall-time:     0 d,  0 h,  0 min,  0.605 sec
 *  cpu-time:     0 d,  0 h,  0 min,  1.139 sec
 * ratio c/w:     1.882 speedup

