19
 energy: -26.928216443211 gnorm: 0.037689351781 xtb: 6.7.1 (edcfbbe)
C           -5.30340300000000       -3.62324100000000        0.47188600000000
C           -6.50324200000000       -4.14249600000000        1.25759200000000
H           -2.08107100000000       -1.60336800000000        2.23283600000000
H           -1.60455900000000       -0.77139800000000        0.74287700000000
H           -3.05693100000000       -0.25468900000000        1.61746100000000
C           -7.34628300000000       -5.20124200000000        0.53935400000000
H           -6.15944200000000       -4.58084700000000        2.20272200000000
H           -7.16558800000000       -3.30479500000000        1.50874900000000
O           -6.98097300000000       -5.52260500000000       -0.62416300000000
O           -8.32385800000000       -5.62951900000000        1.21865700000000
C           -4.49565100000000       -2.61311800000000        1.28852100000000
C           -3.28923500000000       -2.10051700000000        0.50225200000000
H           -5.13689100000000       -1.76876700000000        1.56948800000000
H           -4.15432300000000       -3.08324600000000        2.21885600000000
C           -2.46166300000000       -1.12534700000000        1.32440600000000
H           -2.65542300000000       -2.94250200000000        0.20047100000000
H           -3.62655500000000       -1.60327200000000       -0.41464500000000
H           -4.65717300000000       -4.46229600000000        0.18603600000000
H           -5.64678700000000       -3.15417800000000       -0.45847200000000
19
 energy: -26.930145194568 gnorm: 0.012525613369 xtb: 6.7.1 (edcfbbe)
C           -5.30267138615844       -3.62000807603065        0.47827849919273
C           -6.49946275050665       -4.13545874769616        1.26606035802799
H           -2.07901016552613       -1.59535491060540        2.22910316312185
H           -1.59504636524108       -0.76028379174970        0.74808814726846
H           -3.04995205500217       -0.25480013843362        1.61633595044260
C           -7.34595420863297       -5.20129237614868        0.53536127513175
H           -6.16958811201986       -4.58298232572638        2.20927035558996
H           -7.17281710968757       -3.30996373470143        1.51848462850194
O           -6.99856271127744       -5.53206843032052       -0.61907014060951
O           -8.32253317216113       -5.64183562176813        1.18849613122233
C           -4.48598867769063       -2.61024502156899        1.28104948401453
C           -3.27912921370059       -2.09208232368315        0.50502689363888
H           -5.12991602470402       -1.77086678846324        1.55837822609902
H           -4.14785902110591       -3.08425274142668        2.20690907613423
C           -2.44847511962008       -1.11446121145608        1.32440425867538
H           -2.65961793915235       -2.94177132237174        0.20591197360653
H           -3.62818565649548       -1.60508896251288       -0.40936704298424
H           -4.67543794179745       -4.46945034172129        0.19266229832142
H           -5.65884336952004       -3.16517613361530       -0.45049953539586
19
 energy: -26.930436680112 gnorm: 0.003265834288 xtb: 6.7.1 (edcfbbe)
C           -5.30190786432903       -3.61765713864127        0.48466348558208
C           -6.49668760441101       -4.12850427076273        1.27640682811565
H           -2.07957648483863       -1.59333762308020        2.22560231463648
H           -1.59533376427301       -0.75835987132015        0.74707170591283
H           -3.05069818845752       -0.25606745880733        1.61201176844936
C           -7.34129035291317       -5.19798996613995        0.53128406328338
H           -6.17646362806464       -4.58619988936818        2.21695208544672
H           -7.17946228124114       -3.31174483479191        1.52778707637299
O           -7.00049429218717       -5.53101849665037       -0.61997344302718
O           -8.32198966654975       -5.65009128365942        1.16318947942944
C           -4.48129133421777       -2.60772973829708        1.28206064853359
C           -3.27523202553947       -2.09177294170895        0.50164352906442
H           -5.12625904511357       -1.76991809321910        1.55773129523339
H           -4.14327979932785       -3.08331458732241        2.20598491667164
C           -2.44604327506069       -1.11174550356771        1.32260582331241
H           -2.65711329973485       -2.94202266830820        0.20525355069021
H           -3.62605621432175       -1.60666959280158       -0.41174502709127
H           -4.68436312454991       -4.47353333651605        0.19995267795910
H           -5.66550875486906       -3.16976570503741       -0.44359877857525
19
 energy: -26.930453664687 gnorm: 0.001502385529 xtb: 6.7.1 (edcfbbe)
C           -5.30361193921459       -3.61798319963603        0.48878749435243
C           -6.49871042376410       -4.12865658740154        1.27975770422614
H           -2.07807870005428       -1.59143306723033        2.22381721897902
H           -1.59446502289213       -0.75717655048648        0.74409302858837
H           -3.05055768841752       -0.25510533756376        1.60891509257485
C           -7.34129648719592       -5.19614953735812        0.52843068764746
H           -6.18003848124091       -4.58963417799432        2.21888241792124
H           -7.18238925176100       -3.31304034718237        1.53085396333690
O           -6.99589657497834       -5.52773118380996       -0.62277041136569
O           -8.32400534024960       -5.65366780400174        1.15489972692643
C           -4.48037678245633       -2.60768803170315        1.28334687589882
C           -3.27475042184974       -2.09244897333908        0.50119474904460
H           -5.12366363311176       -1.76865891746723        1.55908651749485
H           -4.14035022329370       -3.08209054259046        2.20708868323883
C           -2.44495704647293       -1.11062371292362        1.32038303516465
H           -2.65608938668318       -2.94256368778800        0.20574426503007
H           -3.62590073274135       -1.60825393725117       -0.41250327530301
H           -4.68661032540370       -4.47429301680069        0.20436812815681
H           -5.66730253821890       -3.17024438747195       -0.43949190191280
19
 energy: -26.930453450629 gnorm: 0.003095812839 xtb: 6.7.1 (edcfbbe)
C           -5.30556293432537       -3.61871159779732        0.49664699868250
C           -6.50135083423388       -4.13026104314872        1.28565319467223
H           -2.07560116344456       -1.58652316518610        2.22016067423164
H           -1.59506926802289       -0.75590794186754        0.73676004610341
H           -3.05121356015870       -0.25294894438512        1.60200854128843
C           -7.33719735228084       -5.19608195467700        0.52497271097095
H           -6.18510006325006       -4.59627648955510        2.22240764511525
H           -7.18669183690361       -3.31664843186894        1.53663302116665
O           -6.98820757799037       -5.51694480813771       -0.62989126190928
O           -8.32970973312266       -5.65431133974489        1.13755051268451
C           -4.47912768430637       -2.60770056317665        1.28756000411451
C           -3.27498126249229       -2.09487275647548        0.50051548111812
H           -5.11944205143074       -1.76637847400255        1.56356252880445
H           -4.13516570037794       -3.07993338649007        2.21104690478671
C           -2.44464412784012       -1.10888495956321        1.31553334390812
H           -2.65501597649051       -2.94484757945123        0.20726540087707
H           -3.62707115395635       -1.61343496003894       -0.41434361990457
H           -4.68879612584888       -4.47540193980624        0.21285155499656
H           -5.66910259352384       -3.17137266462720       -0.43200968170730
19
 energy: -26.930465257099 gnorm: 0.001885197073 xtb: 6.7.1 (edcfbbe)
C           -5.30521613409205       -3.61866216882005        0.49798595276552
C           -6.50175447359330       -4.13048421067718        1.28581470703321
H           -2.07493685075703       -1.58480817744135        2.21919607261900
H           -1.59611668552822       -0.75623370801915        0.73423639427618
H           -3.05139690654165       -0.25232110313242        1.60010535678058
C           -7.33886383578060       -5.19255892417851        0.52231438647386
H           -6.18620028708700       -4.59824920915846        2.22200621392218
H           -7.18622368330635       -3.31660688916665        1.53808284572267
O           -6.98555821497795       -5.51592428626130       -0.63053480502118
O           -8.32876482629814       -5.65478136110468        1.13545999441759
C           -4.47904818072132       -2.60792940559206        1.28942391384159
C           -3.27553034760698       -2.09580350421153        0.50094032868056
H           -5.11912535685754       -1.76643541209526        1.56562019499578
H           -4.13469646667473       -3.08015129896820        2.21281080751430
C           -2.44508285591533       -1.10863373277290        1.31424742216391
H           -2.65548044726544       -2.94595128510110        0.20822848650914
H           -3.62827284839095       -1.61558852979777       -0.41436451213078
H           -4.68845314572443       -4.47534470106214        0.21400756535394
H           -5.66832945288097       -3.17097509243932       -0.43069732591810
19
 energy: -26.930470165848 gnorm: 0.000627019607 xtb: 6.7.1 (edcfbbe)
C           -5.30361823878482       -3.61862532839382        0.49822362149340
C           -6.50101471952839       -4.13159196350860        1.28428719711444
H           -2.07372628696073       -1.58183625652043        2.21812189030361
H           -1.59715995829392       -0.75665986040572        0.73089269275198
H           -3.05080602665465       -0.25095199340680        1.59786071708382
C           -7.34024920051133       -5.19120531160025        0.52047043797577
H           -6.18566635978767       -4.59998343353952        2.22058714476995
H           -7.18418223602120       -3.31688833320645        1.53881180233239
O           -6.98673010251697       -5.51535766484705       -0.63113691921544
O           -8.32873775993586       -5.65204214928726        1.13499262014339
C           -4.47928930428042       -2.60843668426963        1.29149060989112
C           -3.27623854971018       -2.09609448486560        0.50309913835009
H           -5.12062847795426       -1.76807083593537        1.56782298191276
H           -4.13614577445627       -3.08153449572883        2.21475809059923
C           -2.44502178151577       -1.10763190999116        1.31290749679900
H           -2.65700996224927       -2.94701494050864        0.21101731992183
H           -3.63055609927924       -1.61821281757061       -0.41278151851582
H           -4.68632826450453       -4.47480313093241        0.21395479700335
H           -5.66594189705450       -3.17050140548187       -0.43049612071492
