 Entering Gaussian System
 *********************************************
 Gaussian 98:
 frequency output generated by the xtb code
 *********************************************
                         Standard orientation:
 --------------------------------------------------------------------
  Center     Atomic     Atomic              Coordinates (Angstroms)
  Number     Number      Type              X           Y           Z
 --------------------------------------------------------------------
    1          8             0       -1.198172    4.408362   -1.367080
    2          6             0       -1.604690    3.419669   -0.580149
    3          6             0       -3.085617    2.987676   -0.749628
    4          1             0       -0.975870    2.474114   -0.719843
    5          1             0       -1.467314    3.669203    0.527965
    6          1             0       -3.243367    2.666746   -1.776365
    7          1             0       -3.321736    2.176260   -0.065218
    8          1             0       -3.726640    3.842610   -0.548960
 --------------------------------------------------------------------
     1 basis functions        1 primitive gaussians
     1 alpha electrons        1 beta electrons
 
 Harmonic frequencies (cm**-1), IR intensities (km*mol⁻¹),
 Raman scattering activities (A**4/amu), Raman depolarization ratios,
 reduced masses (AMU), force constants (mDyne/A) and normal coordinates:
                      1                      2                      3
                        a                      a                      a 
 Frequencies --   223.7603               433.7392               803.2908
 Red. masses --     2.6272                10.2138                 2.1171
 Frc consts  --     0.0000                 0.0000                 0.0000
 IR Inten    --     2.2759                17.5314                 4.6187
 Raman Activ --     0.0000                 0.0000                 0.0000
 Depolar     --     0.0000                 0.0000                 0.0000
 Atom AN      X      Y      Z        X      Y      Z        X      Y      Z
   1   8     0.07  -0.17  -0.17     0.57   0.18   0.06    -0.03   0.07   0.08
   2   6    -0.07   0.16   0.17    -0.24   0.19  -0.28     0.07  -0.17  -0.18
   3   6     0.00  -0.01  -0.01    -0.29  -0.27   0.15     0.04  -0.10  -0.10
   4   1     0.01   0.04   0.18    -0.11   0.02  -0.06     0.29   0.11   0.32
   5   1    -0.09   0.16   0.03    -0.11   0.02  -0.06    -0.41   0.17  -0.02
   6   1    -0.04   0.48  -0.15    -0.21  -0.21   0.10    -0.49   0.02   0.04
   7   1     0.15  -0.36  -0.38     0.20  -0.07   0.15    -0.05   0.11   0.12
   8   1    -0.08  -0.18   0.46    -0.22  -0.20   0.11     0.39   0.21   0.20
                      4                      5                      6
                        a                      a                      a 
 Frequencies --   890.8788              1027.9217              1132.3624
 Red. masses --     8.7900                 8.1243                11.4376
 Frc consts  --     0.0000                 0.0000                 0.0000
 IR Inten    --    53.2384                90.7107               469.8643
 Raman Activ --     0.0000                 0.0000                 0.0000
 Depolar     --     0.0000                 0.0000                 0.0000
 Atom AN      X      Y      Z        X      Y      Z        X      Y      Z
   1   8    -0.14  -0.26   0.19    -0.19  -0.19   0.11    -0.10  -0.39   0.34
   2   6    -0.41   0.07  -0.22     0.54   0.15   0.07     0.11   0.54  -0.47
   3   6     0.49   0.28  -0.08    -0.31   0.17  -0.29    -0.05  -0.16   0.13
   4   1    -0.13  -0.08   0.01     0.08  -0.04   0.05     0.11   0.03  -0.01
   5   1    -0.13  -0.06   0.02     0.07  -0.02   0.07     0.10   0.06   0.02
   6   1     0.01  -0.08   0.05    -0.28  -0.18   0.03     0.11   0.11  -0.03
   7   1     0.51   0.08   0.12     0.36   0.05   0.09    -0.26  -0.04  -0.07
   8   1    -0.00  -0.05   0.07    -0.29  -0.15   0.06     0.12   0.08  -0.06
                      7                      8                      9
                        a                      a                      a 
 Frequencies --  1145.6891              1306.0730              1346.5700
 Red. masses --     6.1439                 1.7766                 3.2467
 Frc consts  --     0.0000                 0.0000                 0.0000
 IR Inten    --    76.6690                 0.0717                31.7372
 Raman Activ --     0.0000                 0.0000                 0.0000
 Depolar     --     0.0000                 0.0000                 0.0000
 Atom AN      X      Y      Z        X      Y      Z        X      Y      Z
   1   8    -0.04   0.11   0.11     0.04  -0.10  -0.11     0.03  -0.02   0.03
   2   6     0.15  -0.37  -0.39    -0.01   0.02   0.02    -0.12  -0.08   0.03
   3   6    -0.09   0.23   0.24    -0.05   0.13   0.13    -0.41  -0.08  -0.08
   4   1     0.09  -0.06   0.35     0.47   0.41  -0.25     0.22   0.16  -0.02
   5   1    -0.19   0.30  -0.10    -0.45  -0.45   0.21     0.24   0.13  -0.06
   6   1     0.36   0.02   0.01     0.15   0.00   0.01     0.42   0.08  -0.10
   7   1     0.04  -0.09  -0.09     0.01  -0.03  -0.03     0.48   0.01   0.18
   8   1    -0.31  -0.12  -0.12    -0.13  -0.04  -0.05     0.34   0.26   0.08
                     10                     11                     12
                        a                      a                      a 
 Frequencies --  1384.5051              1477.8385              1503.5651
 Red. masses --     2.7704                 1.5991                 1.6817
 Frc consts  --     0.0000                 0.0000                 0.0000
 IR Inten    --   143.0678                 1.6639                25.2414
 Raman Activ --     0.0000                 0.0000                 0.0000
 Depolar     --     0.0000                 0.0000                 0.0000
 Atom AN      X      Y      Z        X      Y      Z        X      Y      Z
   1   8    -0.04   0.09  -0.10    -0.00   0.00   0.00    -0.01  -0.05   0.04
   2   6     0.27   0.14  -0.03     0.01  -0.03  -0.03     0.05  -0.05   0.07
   3   6    -0.13  -0.13   0.07     0.06  -0.15  -0.16     0.04  -0.14   0.16
   4   1    -0.47  -0.34   0.09     0.01   0.01   0.00    -0.05   0.05  -0.26
   5   1    -0.48  -0.29   0.14    -0.02  -0.00   0.00    -0.12   0.23  -0.07
   6   1     0.24   0.10  -0.05     0.19   0.39  -0.16    -0.29   0.51  -0.11
   7   1     0.15  -0.02   0.07    -0.20   0.48   0.50     0.26  -0.01   0.10
   8   1     0.22   0.15   0.00    -0.24  -0.26   0.28    -0.10   0.06  -0.59
                     13                     14                     15
                        a                      a                      a 
 Frequencies --  1506.5825              2119.8069              2358.8764
 Red. masses --     1.7094                 1.6791                 1.3594
 Frc consts  --     0.0000                 0.0000                 0.0000
 IR Inten    --   114.8590              1013.3849               629.8588
 Raman Activ --     0.0000                 0.0000                 0.0000
 Depolar     --     0.0000                 0.0000                 0.0000
 Atom AN      X      Y      Z        X      Y      Z        X      Y      Z
   1   8     0.02   0.10  -0.09     0.00  -0.01  -0.01     0.03   0.08  -0.07
   2   6    -0.14   0.04  -0.10     0.07  -0.16  -0.17    -0.11  -0.00  -0.04
   3   6    -0.00  -0.06   0.06     0.01  -0.02  -0.02    -0.02  -0.00  -0.01
   4   1     0.17  -0.08   0.60    -0.42   0.54   0.05     0.35  -0.57  -0.20
   5   1     0.34  -0.50   0.16     0.14   0.14   0.66     0.02   0.25   0.65
   6   1    -0.15   0.21  -0.04    -0.03  -0.01  -0.01    -0.01  -0.00   0.00
   7   1     0.09  -0.00   0.04     0.00  -0.00  -0.00     0.00   0.01  -0.01
   8   1    -0.07   0.01  -0.25     0.03   0.01   0.00    -0.01  -0.00  -0.00
                     16                     17                     18
                        a                      a                      a 
 Frequencies --  2998.7509              3017.6717              3025.8874
 Red. masses --     1.6950                 1.9466                 1.4701
 Frc consts  --     0.0000                 0.0000                 0.0000
 IR Inten    --   107.9980               107.0498                63.5179
 Raman Activ --     0.0000                 0.0000                 0.0000
 Depolar     --     0.0000                 0.0000                 0.0000
 Atom AN      X      Y      Z        X      Y      Z        X      Y      Z
   1   8    -0.00  -0.00  -0.00    -0.00   0.00   0.00    -0.00   0.00  -0.00
   2   6     0.00  -0.01   0.01     0.00  -0.01  -0.01     0.00  -0.00   0.00
   3   6    -0.05  -0.19   0.16     0.08  -0.20  -0.20     0.12  -0.09   0.14
   4   1    -0.00   0.01   0.00     0.00   0.00   0.00     0.00  -0.00   0.00
   5   1    -0.00  -0.00  -0.01    -0.00   0.00   0.00     0.00   0.00   0.00
   6   1    -0.01  -0.03   0.03     0.10   0.17   0.64    -0.07  -0.22  -0.66
   7   1     0.19   0.72  -0.62     0.01  -0.03  -0.03     0.02  -0.00   0.01
   8   1    -0.00  -0.03   0.02    -0.40   0.54   0.10    -0.38   0.55   0.16
