      -----------------------------------------------------------      
     |                   =====================                   |     
     |                           x T B                           |     
     |                   =====================                   |     
     |                         S. Grimme                         |     
     |          Mulliken Center for Theoretical Chemistry        |     
     |                    University of Bonn                     |     
      -----------------------------------------------------------      

   * xtb version 6.7.1 (edcfbbe) compiled by 'albert@albert-system' on 2024-07-22

   xtb is free software: you can redistribute it and/or modify it under
   the terms of the GNU Lesser General Public License as published by
   the Free Software Foundation, either version 3 of the License, or
   (at your option) any later version.
   
   xtb is distributed in the hope that it will be useful,
   but WITHOUT ANY WARRANTY; without even the implied warranty of
   MERCHANTABILITY or FITNESS FOR A PARTICULAR PURPOSE.  See the
   GNU Lesser General Public License for more details.
   
   Cite this work as:
   * C. Bannwarth, E. Caldeweyher, S. Ehlert, A. Hansen, P. Pracht,
     J. Seibert, S. Spicher, S. Grimme, WIREs Comput. Mol. Sci., 2020, 11,
     e01493. DOI: 10.1002/wcms.1493
   
   for GFN2-xTB:
   * C. Bannwarth, S. Ehlert and S. Grimme., J. Chem. Theory Comput., 2019,
     15, 1652-1671. DOI: 10.1021/acs.jctc.8b01176
   for GFN1-xTB:
   * S. Grimme, C. Bannwarth, P. Shushkov, J. Chem. Theory Comput., 2017,
     13, 1989-2009. DOI: 10.1021/acs.jctc.7b00118
   for GFN0-xTB:
   * P. Pracht, E. Caldeweyher, S. Ehlert, S. Grimme, ChemRxiv, 2019, preprint.
     DOI: 10.26434/chemrxiv.8326202.v1
   for GFN-FF:
   * S. Spicher and S. Grimme, Angew. Chem. Int. Ed., 2020, 59, 15665-15673.
     DOI: 10.1002/anie.202004239
   
   for ALPB and GBSA implicit solvation:
   * S. Ehlert, M. Stahn, S. Spicher, S. Grimme, J. Chem. Theory Comput.,
     2021, 17, 4250-4261. DOI: 10.1021/acs.jctc.1c00471
   
   for ddCOSMO and CPCM-X implicit solvation:
   * M. Stahn, S. Ehlert, S. Grimme, J. Phys. Chem. A,
     2023, XX, XXXX-XXXX. DOI: 10.1021/acs.jpca.3c04382
   
   for DFT-D4:
   * E. Caldeweyher, C. Bannwarth and S. Grimme, J. Chem. Phys., 2017,
     147, 034112. DOI: 10.1063/1.4993215
   * E. Caldeweyher, S. Ehlert, A. Hansen, H. Neugebauer, S. Spicher,
     C. Bannwarth and S. Grimme, J. Chem. Phys., 2019, 150, 154122.
     DOI: 10.1063/1.5090222
   * E. Caldeweyher, J.-M. Mewes, S. Ehlert and S. Grimme, Phys. Chem. Chem. Phys.
     2020, 22, 8499-8512. DOI: 10.1039/D0CP00502A
   
   for sTDA-xTB:
   * S. Grimme and C. Bannwarth, J. Chem. Phys., 2016, 145, 054103.
     DOI: 10.1063/1.4959605
   
   in the mass-spec context:
   * V. Asgeirsson, C. Bauer and S. Grimme, Chem. Sci., 2017, 8, 4879.
     DOI: 10.1039/c7sc00601b
   * J. Koopman and S. Grimme, ACS Omega 2019, 4, 12, 15120-15133.
     DOI: 10.1021/acsomega.9b02011
   
   for metadynamics refer to:
   * S. Grimme, J. Chem. Theory Comput., 2019, 155, 2847-2862
     DOI: 10.1021/acs.jctc.9b00143
   
   for SPH calculations refer to:
   * S. Spicher and S. Grimme, J. Chem. Theory Comput., 2021, 17, 1701-1714
     DOI: 10.1021/acs.jctc.0c01306
   
   for ONIOM refer to:
   * C. Plett, A. Katbashev, S. Ehlert, S. Grimme, M. Bursch,
     Phys. Chem. Chem. Phys., 2023, 25, 17860-17868. DOI: 10.1039/D3CP02178E
   
   for DIPRO refer to:
   * J. Kohn, N. Gildemeister, S. Grimme, D. Fazzi, A. Hansen,
     J. Chem. Phys., 2023, just accepted.
   
   for PTB refer to:
   * S. Grimme, M. Mueller, A. Hansen, J. Chem. Phys., 2023, 158, 124111.
     DOI: 10.1063/5.0137838
   
   with help from (in alphabetical order)
   P. Atkinson, C. Bannwarth, F. Bohle, G. Brandenburg, E. Caldeweyher
   M. Checinski, S. Dohm, S. Ehlert, S. Ehrlich, I. Gerasimov, C. Hölzer
   A. Katbashev, J. Kohn, J. Koopman, C. Lavigne, S. Lehtola, F. März, M. Müller,
   F. Musil, H. Neugebauer, J. Pisarek, C. Plett, P. Pracht, F. Pultar,
   J. Seibert, P. Shushkov, S. Spicher, M. Stahn, M. Steiner, T. Strunk,
   J. Stückrath, T. Rose, and J. Unsleber
   
 * started run on 2025/10/17 at 22:47:52.811     
   ID    Z sym.   atoms
    1    8 O      1
    2    6 C      2, 3
    3    1 H      4-8

           -------------------------------------------------
          |                Calculation Setup                |
           -------------------------------------------------

          program call               : xtb xyz.xyz --alpb water --charge -1 --ohess
          hostname                   : m003
          coordinate file            : xyz.xyz
          omp threads                :                     2


           -------------------------------------------------
          |                 G F N 2 - x T B                 |
           -------------------------------------------------

        Reference                      10.1021/acs.jctc.8b01176
      * Hamiltonian:
        H0-scaling (s, p, d)           1.850000    2.230000    2.230000
        zeta-weighting                 0.500000
      * Dispersion:
        s8                             2.700000
        a1                             0.520000
        a2                             5.000000
        s9                             5.000000
      * Repulsion:
        kExp                           1.500000    1.000000
        rExp                           1.000000
      * Coulomb:
        alpha                          2.000000
        third order                    shell-resolved
        anisotropic                    true
        a3                             3.000000
        a5                             4.000000
        cn-shift                       1.200000
        cn-exp                         4.000000
        max-rad                        5.000000

      * Solvation model:               ALPB
        Solvent                        water
        Parameter file                 internal GFN2-xTB/ALPB
        Dielectric constant                8.0200E+01
        Reference state                gsolv [1 M gas/solution]
        Free energy shift                  1.0808E-03 Eh       6.7819E-01 kcal/mol
        Temperature                        2.9815E+02 K
        Density                            1.0000E+00 kg/L
        Solvent mass                       1.8000E+01 g/mol
        Interaction kernel             P16
        Born radius scaling (c1)           1.4744E+00
        Born radii integrator          GBOBC
        Born offset                        0.0000E+00 a0       0.0000E+00 AA
        H-bond correction              true
        Ion screening                  false
        Surface tension                    1.0000E-05 Eh       1.5569E+01 dyn/cm
        Grid points                               230 per atom

          ...................................................
          :                      SETUP                      :
          :.................................................:
          :  # basis functions                  17          :
          :  # atomic orbitals                  17          :
          :  # shells                           11          :
          :  # electrons                        20          :
          :  max. iterations                   250          :
          :  Hamiltonian                  GFN2-xTB          :
          :  restarted?                      false          :
          :  GBSA solvation                   true          :
          :  PC potential                    false          :
          :  electronic temp.          300.0000000     K    :
          :  accuracy                    1.0000000          :
          :  -> integral cutoff          0.2500000E+02      :
          :  -> integral neglect         0.1000000E-07      :
          :  -> SCF convergence          0.1000000E-05 Eh   :
          :  -> wf. convergence          0.1000000E-03 e    :
          :  Broyden damping             0.4000000          :
          :  net charge                         -1          :
          :  unpaired electrons                  0          :
          ...................................................

 iter      E             dE          RMSdq      gap      omega  full diag
   1    -11.1593669 -0.111594E+02  0.500E+00   13.84       0.0  T
   2    -11.2435055 -0.841386E-01  0.207E+00   12.19       1.0  T
   3    -11.2457055 -0.220003E-02  0.105E+00   11.68       1.0  T
   4    -11.2461840 -0.478537E-03  0.292E-01   11.48       1.0  T
   5    -11.2462187 -0.346882E-04  0.110E-01   11.53       1.0  T
   6    -11.2462313 -0.126136E-04  0.252E-02   11.57       1.4  T
   7    -11.2462317 -0.370803E-06  0.606E-03   11.57       5.8  T
   8    -11.2462318 -0.114240E-06  0.252E-03   11.56      14.0  T
   9    -11.2462318 -0.511306E-08  0.711E-04   11.56      49.7  T
  10    -11.2462318 -0.176658E-08  0.192E-04   11.56     184.5  T

   *** convergence criteria satisfied after 10 iterations ***

         #    Occupation            Energy/Eh            Energy/eV
      -------------------------------------------------------------
         1        2.0000           -0.5943179             -16.1722
       ...           ...                  ...                  ...
         4        2.0000           -0.4900183             -13.3341
         5        2.0000           -0.4755949             -12.9416
         6        2.0000           -0.4485710             -12.2062
         7        2.0000           -0.4356509             -11.8547
         8        2.0000           -0.4190862             -11.4039
         9        2.0000           -0.3031077              -8.2480
        10        2.0000           -0.3029150              -8.2427 (HOMO)
        11                          0.1220430               3.3210 (LUMO)
        12                          0.1257288               3.4213
        13                          0.1267736               3.4497
        14                          0.1679966               4.5714
        15                          0.1849651               5.0332
       ...                                ...                  ...
        17                          0.3077946               8.3755
      -------------------------------------------------------------
                  HL-Gap            0.4249579 Eh           11.5637 eV
             Fermi-level           -0.0904360 Eh           -2.4609 eV

 SCC (total)                   0 d,  0 h,  0 min,  0.028 sec
 SCC setup                      ...        0 min,  0.000 sec (  1.146%)
 Dispersion                     ...        0 min,  0.000 sec (  0.250%)
 classical contributions        ...        0 min,  0.000 sec (  0.116%)
 integral evaluation            ...        0 min,  0.000 sec (  1.413%)
 iterations                     ...        0 min,  0.026 sec ( 93.412%)
 molecular gradient             ...        0 min,  0.001 sec (  3.088%)
 printout                       ...        0 min,  0.000 sec (  0.428%)

         :::::::::::::::::::::::::::::::::::::::::::::::::::::
         ::                     SUMMARY                     ::
         :::::::::::::::::::::::::::::::::::::::::::::::::::::
         :: total energy             -11.154312318536 Eh    ::
         :: total w/o Gsasa/hb       -11.153405625746 Eh    ::
         :: gradient norm              0.037065209068 Eh/a0 ::
         :: HOMO-LUMO gap             11.563694147330 eV    ::
         ::.................................................::
         :: SCC energy               -11.246231549094 Eh    ::
         :: -> isotropic ES            0.233211554613 Eh    ::
         :: -> anisotropic ES          0.007621823024 Eh    ::
         :: -> anisotropic XC         -0.000037931457 Eh    ::
         :: -> dispersion             -0.003384809390 Eh    ::
         :: -> Gsolv                  -0.122436048658 Eh    ::
         ::    -> Gelec               -0.121529355868 Eh    ::
         ::    -> Gsasa                0.002074335750 Eh    ::
         ::    -> Ghb                 -0.004061788239 Eh    ::
         ::    -> Gshift               0.001080759698 Eh    ::
         :: repulsion energy           0.091919230559 Eh    ::
         :: add. restraining           0.000000000000 Eh    ::
         :: total charge              -1.000000000000 e     ::
         :::::::::::::::::::::::::::::::::::::::::::::::::::::

      ----------------------------------------------------------- 
     |                   =====================                   |
     |                        A N C O P T                        |
     |                   =====================                   |
     |               Approximate Normal Coordinate               |
     |                Rational Function Optimizer                |
      ----------------------------------------------------------- 
      ----------------------------------------------------------- 
     |                   =====================                   |
     |                        A N C O P T                        |
     |                   =====================                   |
     |               Approximate Normal Coordinate               |
     |                Rational Function Optimizer                |
      ----------------------------------------------------------- 

          ...................................................
          :                      SETUP                      :
          :.................................................:
          :   optimization level            normal          :
          :   max. optcycles                   200          :
          :   ANC micro-cycles                  20          :
          :   degrees of freedom                18          :
          :.................................................:
          :   RF solver                   davidson          :
          :   write xtbopt.log                true          :
          :   linear?                        false          :
          :   energy convergence         0.5000000E-05 Eh   :
          :   grad. convergence          0.1000000E-02 Eh/α :
          :   maxmium RF displ.          1.0000000          :
          :   Hlow (freq-cutoff)         0.1000000E-01      :
          :   Hmax (freq-cutoff)         5.0000000          :
          :   S6 in model hess.         20.0000000          :
          ...................................................

generating ANC from exact Hessian ...
Using Lindh-Hessian (1995)
 Shifting diagonal of input Hessian by   0.000000000000000E+000
 Lowest  eigenvalues of input Hessian
    0.000000    0.000000    0.000000    0.000000    0.000000    0.000000
    0.013557    0.031573    0.034716    0.048438    0.065930    0.069168
    0.103713    0.114211    0.128460    0.134559    0.169582    0.343263
 Highest eigenvalues
    0.614390    0.915499    1.054807    1.058632    1.092591    1.530353
 

........................................................................
.............................. CYCLE    1 ..............................
........................................................................

 iter      E             dE          RMSdq      gap      omega  full diag
   1    -11.2462318 -0.112462E+02  0.208E-05   11.56       0.0  T
   2    -11.2462318 -0.182432E-11  0.887E-06   11.56    3985.5  T
   3    -11.2462318 -0.568434E-13  0.521E-06   11.56    6787.6  T
     SCC iter.                  ...        0 min,  0.001 sec
     gradient                   ...        0 min,  0.001 sec
 * total energy  :   -11.1543123 Eh     change       -0.1346638E-09 Eh
   gradient norm :     0.0370634 Eh/α   predicted     0.0000000E+00 (-100.00%)
   displ. norm   :     0.1153067 α      lambda       -0.3170752E-02
   maximum displ.:     0.0759803 α      in ANC's #11, #12, #7, ...

........................................................................
.............................. CYCLE    2 ..............................
........................................................................

 iter      E             dE          RMSdq      gap      omega  full diag
   1    -11.2541960 -0.112542E+02  0.298E-01   11.51       0.0  T
   2    -11.2542377 -0.416453E-04  0.173E-01   11.49       1.0  T
   3    -11.2542389 -0.117872E-05  0.513E-02   11.51       1.0  T
   4    -11.2542417 -0.279207E-05  0.872E-03   11.51       4.1  T
   5    -11.2542417 -0.444150E-07  0.301E-03   11.51      11.7  T
   6    -11.2542417 -0.450964E-08  0.915E-04   11.51      38.6  T
   7    -11.2542417 -0.450379E-09  0.166E-04   11.51     212.9  T
     SCC iter.                  ...        0 min,  0.001 sec
     gradient                   ...        0 min,  0.000 sec
 * total energy  :   -11.1560255 Eh     change       -0.1713169E-02 Eh
   gradient norm :     0.0128851 Eh/α   predicted    -0.1606455E-02 (  -6.23%)
   displ. norm   :     0.0405425 α      lambda       -0.2407443E-03
   maximum displ.:     0.0294302 α      in ANC's #4, #3, #12, ...

........................................................................
.............................. CYCLE    3 ..............................
........................................................................

 iter      E             dE          RMSdq      gap      omega  full diag
   1    -11.2565255 -0.112565E+02  0.850E-02   11.54       0.0  T
   2    -11.2565310 -0.547474E-05  0.452E-02   11.55       1.0  T
   3    -11.2565312 -0.199580E-06  0.175E-02   11.56       2.0  T
   4    -11.2565313 -0.148359E-06  0.278E-03   11.56      12.7  T
   5    -11.2565313 -0.456745E-08  0.110E-03   11.56      32.0  T
   6    -11.2565313 -0.669084E-09  0.322E-04   11.56     109.8  T
   7    -11.2565313 -0.409983E-10  0.422E-05   11.56     837.9  T
     SCC iter.                  ...        0 min,  0.001 sec
     gradient                   ...        0 min,  0.000 sec
 * total energy  :   -11.1561607 Eh     change       -0.1351719E-03 Eh
   gradient norm :     0.0062016 Eh/α   predicted    -0.1205689E-03 ( -10.80%)
   displ. norm   :     0.0160425 α      lambda       -0.5977307E-04
   maximum displ.:     0.0094124 α      in ANC's #6, #18, #4, ...

........................................................................
.............................. CYCLE    4 ..............................
........................................................................

 iter      E             dE          RMSdq      gap      omega  full diag
   1    -11.2568564 -0.112569E+02  0.415E-02   11.50       0.0  T
   2    -11.2568582 -0.179914E-05  0.210E-02   11.51       1.7  T
   3    -11.2568583 -0.138750E-06  0.900E-03   11.51       3.9  T
   4    -11.2568584 -0.416419E-07  0.228E-03   11.52      15.5  T
   5    -11.2568584 -0.340112E-08  0.901E-04   11.51      39.2  T
   6    -11.2568584 -0.471216E-09  0.382E-04   11.51      92.6  T
     SCC iter.                  ...        0 min,  0.001 sec
     gradient                   ...        0 min,  0.000 sec
 * total energy  :   -11.1561995 Eh     change       -0.3879437E-04 Eh
   gradient norm :     0.0031826 Eh/α   predicted    -0.2989339E-04 ( -22.94%)
   displ. norm   :     0.0101838 α      lambda       -0.2376894E-04
   maximum displ.:     0.0057677 α      in ANC's #12, #18, #3, ...

........................................................................
.............................. CYCLE    5 ..............................
........................................................................

 iter      E             dE          RMSdq      gap      omega  full diag
   1    -11.2563450 -0.112563E+02  0.293E-02   11.44       0.0  T
   2    -11.2563461 -0.110359E-05  0.141E-02   11.44       2.5  T
   3    -11.2563462 -0.114575E-06  0.607E-03   11.45       5.8  T
   4    -11.2563462 -0.207521E-07  0.187E-03   11.45      18.9  T
   5    -11.2563462 -0.127617E-08  0.323E-04   11.45     109.5  T
   6    -11.2563462 -0.386251E-10  0.142E-04   11.45     248.6  T
     SCC iter.                  ...        0 min,  0.001 sec
     gradient                   ...        0 min,  0.000 sec
 * total energy  :   -11.1562128 Eh     change       -0.1329659E-04 Eh
   gradient norm :     0.0011854 Eh/α   predicted    -0.1188465E-04 ( -10.62%)
   displ. norm   :     0.0059659 α      lambda       -0.2489316E-05
   maximum displ.:     0.0046761 α      in ANC's #4, #12, #6, ...

........................................................................
.............................. CYCLE    6 ..............................
........................................................................

 iter      E             dE          RMSdq      gap      omega  full diag
   1    -11.2559873 -0.112560E+02  0.128E-02   11.43       0.0  T
   2    -11.2559873 -0.867288E-07  0.679E-03   11.43       5.2  T
   3    -11.2559874 -0.109889E-07  0.197E-03   11.43      17.9  T
   4    -11.2559874 -0.274469E-08  0.635E-04   11.43      55.7  T
   5    -11.2559874 -0.236938E-09  0.839E-05   11.43     421.5  T
     SCC iter.                  ...        0 min,  0.001 sec
     gradient                   ...        0 min,  0.000 sec
 * total energy  :   -11.1562139 Eh     change       -0.1112445E-05 Eh
   gradient norm :     0.0004428 Eh/α   predicted    -0.1242770E-05 (  11.72%)
   displ. norm   :     0.0030845 α      lambda       -0.6819430E-06
   maximum displ.:     0.0023410 α      in ANC's #4, #9, #6, ...

   *** GEOMETRY OPTIMIZATION CONVERGED AFTER 6 ITERATIONS ***

------------------------------------------------------------------------
 total energy gain   :        -0.0019015 Eh       -1.1932 kcal/mol
 total RMSD          :         0.0416094 a0        0.0220 Å
 total power (kW/mol):        -0.8320839 (step) -360.1540 (real)
------------------------------------------------------------------------

 ANCopt (total)                0 d,  0 h,  0 min,  0.014 sec
 optimizer setup                ...        0 min,  0.002 sec ( 14.925%)
 model hessian                  ...        0 min,  0.001 sec (  8.360%)
 ANC generation                 ...        0 min,  0.000 sec (  1.009%)
 coordinate transformation      ...        0 min,  0.000 sec (  0.330%)
 single point calculation       ...        0 min,  0.010 sec ( 68.984%)
 optimization log               ...        0 min,  0.000 sec (  1.983%)
 hessian update                 ...        0 min,  0.000 sec (  0.383%)
 rational function              ...        0 min,  0.000 sec (  1.880%)

================
 final structure:
================
8
 xtb: 6.7.1 (edcfbbe)
O           -1.19819034640774        4.40835746819584       -1.36707640119366
C           -1.60470553405758        3.41966166215544       -0.58014825547506
C           -3.08563019662112        2.98766133680304       -0.74963384314632
H           -0.97588026595734        2.47411025032950       -0.71984200853171
H           -1.46733507809739        3.66919431035863        0.52796662940632
H           -3.24337486323930        2.66673163141011       -1.77637158067831
H           -3.32174664451294        2.17624252501234       -0.06522539517521
H           -3.72665807110660        3.84259081573511       -0.54896614520606
 
 Bond Distances (Angstroems)
 ---------------------------
O1-C2=1.3274         C2-O1=1.3274         C2-C3=1.5519         C2-H4=1.1441         C2-H5=1.1441         C3-C2=1.5519         
C3-H6=1.0872         C3-H7=1.0875         C3-H8=1.0872         H4-C2=1.1441         H5-C2=1.1441         H6-C3=1.0872         
H7-C3=1.0875         H8-C3=1.0872         
 C  H  Rav=1.1100 sigma=0.0278  Rmin=1.0872  Rmax=1.1441     5
 C  C  Rav=1.5519 sigma=0.0000  Rmin=1.5519  Rmax=1.5519     1
 O  C  Rav=1.3274 sigma=0.0000  Rmin=1.3274  Rmax=1.3274     1
 
 selected bond angles (degree)
 --------------------
C3-C2-O1=115.77                H4-C2-O1=112.02                H4-C2-C3=106.32                H5-C2-O1=112.02                
H5-C2-C3=106.32                H5-C2-H4=103.44                H6-C3-C2=108.89                H7-C3-C2=110.25                
H7-C3-H6=110.03                H8-C3-C2=108.88                H8-C3-H6=108.72                H8-C3-H7=110.03                
 
 selected dihedral angles (degree)
 ---------------------------------
H6-C3-C2-O1= 59.20            H6-C3-C2-H4=294.08            H6-C3-C2-H5=184.31            H7-C3-C2-O1=180.01            
H7-C3-C2-H4= 54.89            H7-C3-C2-H5=305.13            H8-C3-C2-O1=300.81            H8-C3-C2-H4=175.70            
H8-C3-C2-H5= 65.93            
           -------------------------------------------------
          |                Final Singlepoint                |
           -------------------------------------------------

          ...................................................
          :                      SETUP                      :
          :.................................................:
          :  # basis functions                  17          :
          :  # atomic orbitals                  17          :
          :  # shells                           11          :
          :  # electrons                        20          :
          :  max. iterations                   250          :
          :  Hamiltonian                  GFN2-xTB          :
          :  restarted?                      false          :
          :  GBSA solvation                   true          :
          :  PC potential                    false          :
          :  electronic temp.          300.0000000     K    :
          :  accuracy                    1.0000000          :
          :  -> integral cutoff          0.2500000E+02      :
          :  -> integral neglect         0.1000000E-07      :
          :  -> SCF convergence          0.1000000E-05 Eh   :
          :  -> wf. convergence          0.1000000E-03 e    :
          :  Broyden damping             0.4000000          :
          :  net charge                         -1          :
          :  unpaired electrons                  0          :
          ...................................................

 iter      E             dE          RMSdq      gap      omega  full diag
   1    -11.2559874 -0.112560E+02  0.457E-05   11.43       0.0  T
   2    -11.2559874 -0.566658E-12  0.310E-05   11.43    1141.2  T
   3    -11.2559874 -0.492051E-12  0.400E-06   11.43    8843.9  T

   *** convergence criteria satisfied after 3 iterations ***

         #    Occupation            Energy/Eh            Energy/eV
      -------------------------------------------------------------
         1        2.0000           -0.5992909             -16.3075
       ...           ...                  ...                  ...
         4        2.0000           -0.4923050             -13.3963
         5        2.0000           -0.4774264             -12.9914
         6        2.0000           -0.4508323             -12.2678
         7        2.0000           -0.4387234             -11.9383
         8        2.0000           -0.4210781             -11.4581
         9        2.0000           -0.3052498              -8.3063
        10        2.0000           -0.3045274              -8.2866 (HOMO)
        11                          0.1156042               3.1458 (LUMO)
        12                          0.1297873               3.5317
        13                          0.1368297               3.7233
        14                          0.1781832               4.8486
        15                          0.2210775               6.0158
       ...                                ...                  ...
        17                          0.3544190               9.6442
      -------------------------------------------------------------
                  HL-Gap            0.4201316 Eh           11.4324 eV
             Fermi-level           -0.0944616 Eh           -2.5704 eV

 SCC (total)                   0 d,  0 h,  0 min,  0.001 sec
 SCC setup                      ...        0 min,  0.000 sec (  9.998%)
 Dispersion                     ...        0 min,  0.000 sec (  1.972%)
 classical contributions        ...        0 min,  0.000 sec (  0.664%)
 integral evaluation            ...        0 min,  0.000 sec ( 15.876%)
 iterations                     ...        0 min,  0.000 sec ( 28.100%)
 molecular gradient             ...        0 min,  0.000 sec ( 36.458%)
 printout                       ...        0 min,  0.000 sec (  4.745%)

         :::::::::::::::::::::::::::::::::::::::::::::::::::::
         ::                     SUMMARY                     ::
         :::::::::::::::::::::::::::::::::::::::::::::::::::::
         :: total energy             -11.156213862558 Eh    ::
         :: total w/o Gsasa/hb       -11.155052564910 Eh    ::
         :: gradient norm              0.000442329583 Eh/a0 ::
         :: HOMO-LUMO gap             11.432363992703 eV    ::
         ::.................................................::
         :: SCC energy               -11.255987080241 Eh    ::
         :: -> isotropic ES            0.231327556612 Eh    ::
         :: -> anisotropic ES          0.004994164094 Eh    ::
         :: -> anisotropic XC         -0.000823034854 Eh    ::
         :: -> dispersion             -0.003443762047 Eh    ::
         :: -> Gsolv                  -0.122530156211 Eh    ::
         ::    -> Gelec               -0.121368858564 Eh    ::
         ::    -> Gsasa                0.002035097129 Eh    ::
         ::    -> Ghb                 -0.004277154474 Eh    ::
         ::    -> Gshift               0.001080759698 Eh    ::
         :: repulsion energy           0.099773217684 Eh    ::
         :: add. restraining           0.000000000000 Eh    ::
         :: total charge              -1.000000000000 e     ::
         :::::::::::::::::::::::::::::::::::::::::::::::::::::

           ------------------------------------------------- 
          |                Numerical Hessian                |
           ------------------------------------------------- 
step length          :   0.00500
SCC accuracy         :   0.30000
Hessian scale factor :   1.00000
frozen atoms in %    :   0.00000    0
RMS gradient         :   0.00044
estimated CPU  time      0.00 min
estimated wall time      0.00 min

writing file <hessian>.

 projected vibrational frequencies (cm⁻¹)
eigval :       -0.00    -0.00    -0.00     0.00     0.00     0.00
eigval :      223.76   433.74   803.29   890.88  1027.92  1132.36
eigval :     1145.69  1306.07  1346.57  1384.51  1477.84  1503.57
eigval :     1506.58  2119.81  2358.88  2998.75  3017.67  3025.89
           -------------------------------------------------
          |                Property Printout                |
           -------------------------------------------------

    * Orbital Energies and Occupations

         #    Occupation            Energy/Eh            Energy/eV
      -------------------------------------------------------------
         1        2.0000           -0.5992909             -16.3075
         2        2.0000           -0.5824428             -15.8491
         3        2.0000           -0.5426584             -14.7665
         4        2.0000           -0.4923050             -13.3963
         5        2.0000           -0.4774264             -12.9914
         6        2.0000           -0.4508323             -12.2678
         7        2.0000           -0.4387234             -11.9383
         8        2.0000           -0.4210781             -11.4581
         9        2.0000           -0.3052498              -8.3063
        10        2.0000           -0.3045274              -8.2866 (HOMO)
        11                          0.1156042               3.1458 (LUMO)
        12                          0.1297873               3.5317
        13                          0.1368298               3.7233
        14                          0.1781832               4.8486
        15                          0.2210775               6.0158
        16                          0.2522190               6.8632
        17                          0.3544190               9.6442
      -------------------------------------------------------------
                  HL-Gap            0.4201316 Eh           11.4324 eV
             Fermi-level           -0.0944616 Eh           -2.5704 eV

     #   Z          covCN         q      C6AA      α(0)
     1   8 O        0.855    -0.878    34.047     7.823
     2   6 C        3.654     0.194    17.799     6.058
     3   6 C        3.747    -0.107    22.622     6.784
     4   1 H        0.914    -0.132     6.820     4.085
     5   1 H        0.914    -0.132     6.820     4.085
     6   1 H        0.925     0.020     2.736     2.586
     7   1 H        0.925     0.015     2.808     2.620
     8   1 H        0.925     0.020     2.736     2.586

 Mol. C6AA /au·bohr⁶  :        622.084439
 Mol. C8AA /au·bohr⁸  :      12027.237660
 Mol. α(0) /au        :         36.627390


Wiberg/Mayer (AO) data.
largest (>0.10) Wiberg bond orders for each atom

 ---------------------------------------------------------------------------
     #   Z sym  total        # sym  WBO       # sym  WBO       # sym  WBO
 ---------------------------------------------------------------------------
     1   8 O    1.316 --     2 C    1.159
     2   6 C    3.976 --     1 O    1.159     3 C    0.968     4 H    0.925
                             5 H    0.925
     3   6 C    3.997 --     7 H    0.991     8 H    0.991     6 H    0.991
                             2 C    0.968
     4   1 H    0.983 --     2 C    0.925
     5   1 H    0.983 --     2 C    0.925
     6   1 H    1.000 --     3 C    0.991
     7   1 H    1.000 --     3 C    0.991
     8   1 H    1.000 --     3 C    0.991
 ---------------------------------------------------------------------------

Topologies differ in total number of bonds
Writing topology from bond orders to xtbtopo.mol

molecular dipole:
                 x           y           z       tot (Debye)
 q only:        2.278      -7.889       2.166
   full:        2.212      -8.122       2.363      22.224
molecular quadrupole (traceless):
                xx          xy          yy          xz          yz          zz
 q only:       29.308      26.918     -57.916      -7.168      26.716      28.608
  q+dip:       31.539      26.451     -61.281      -7.530      30.154      29.741
   full:       31.552      26.687     -61.208      -7.623      29.867      29.656

           -------------------------------------------------
          |                Geometry Summary                 |
           -------------------------------------------------

      molecular mass/u    :       45.0605805
   center of mass at/Å    :       -1.9604749       3.6048091      -0.8976137
  moments of inertia/u·Å² :        0.1280292E+02   0.5260247E+02   0.5900546E+02
rotational constants/cm⁻¹ :        0.1316702E+01   0.3204723E+00   0.2856961E+00

 * 5 selected distances

     #   Z          #   Z                                           value/Å
     2   6 C        4   1 H                                       1.1441168
     2   6 C        5   1 H                                       1.1441399 (max)
     3   6 C        6   1 H                                       1.0872304 (min)
     3   6 C        7   1 H                                       1.0874588
     3   6 C        8   1 H                                       1.0872391

 * 1 distinct bonds (by element types)

   Z      Z             #   av. dist./Å        max./Å        min./Å
   1 H    6 C           5     1.1100370     1.1441399     1.0872304

           -------------------------------------------------
          |               Frequency Printout                |
           -------------------------------------------------
 projected vibrational frequencies (cm⁻¹)
eigval :       -0.00    -0.00    -0.00     0.00     0.00     0.00
eigval :      223.76   433.74   803.29   890.88  1027.92  1132.36
eigval :     1145.69  1306.07  1346.57  1384.51  1477.84  1503.57
eigval :     1506.58  2119.81  2358.88  2998.75  3017.67  3025.89
 reduced masses (amu)
   1:  7.21   2:  8.89   3: 13.28   4: 14.10   5: 11.64   6:  9.68   7:  2.63   8: 10.21
   9:  2.12  10:  8.79  11:  8.12  12: 11.44  13:  6.14  14:  1.78  15:  3.25  16:  2.77
  17:  1.60  18:  1.68  19:  1.71  20:  1.68  21:  1.36  22:  1.69  23:  1.95  24:  1.47
 IR intensities (km·mol⁻¹)
   1:  3.64   2:  1.79   3: 35.74   4: 39.14   5: 20.14   6:  8.61   7:  2.28   8: 17.53
   9:  4.62  10: 53.24  11: 90.71  12:469.86  13: 76.67  14:  0.07  15: 31.74  16:143.07
  17:  1.66  18: 25.24  19:114.86  20:******  21:629.86  22:108.00  23:107.05  24: 63.52
 Raman intensities (Ä⁴*amu⁻¹)
   1:  0.00   2:  0.00   3:  0.00   4:  0.00   5:  0.00   6:  0.00   7:  0.00   8:  0.00
   9:  0.00  10:  0.00  11:  0.00  12:  0.00  13:  0.00  14:  0.00  15:  0.00  16:  0.00
  17:  0.00  18:  0.00  19:  0.00  20:  0.00  21:  0.00  22:  0.00  23:  0.00  24:  0.00
 output can be read by thermo (or use thermo option).
 writing <g98.out> molden fake output.
 recommended (thermochemical) frequency scaling factor: 1.0
           -------------------------------------------------
          |             Thermodynamic Functions             |
           -------------------------------------------------

Refinement of some symmetry elements was terminated before convergence was reached.
Some symmetry elements may remain unidentified.
Molecule has the following symmetry elements: (sigma) 
It seems to be the Cs point group
cs  symmetry found (for desy threshold:  0.10E+00) used in thermo

          ...................................................
          :                      SETUP                      :
          :.................................................:
          :  # frequencies                          18      :
          :  # imaginary freq.                       0      :
          :  linear?                             false      :
          :  only rotor calc.                    false      :
          :  symmetry                               cs      :
          :  rotational number                       1      :
          :  scaling factor                  1.0000000      :
          :  rotor cutoff                   50.0000000 cm⁻¹ :
          :  imag. cutoff                  -20.0000000 cm⁻¹ :
          :.................................................:

    mode    ω/cm⁻¹     T·S(HO)/kcal·mol⁻¹    T·S(FR)/kcal·mol⁻¹   T·S(vib)
   ------------------------------------------------------------------------
       1    223.76    -0.57497 ( 99.75%)    -0.61208 (  0.25%)    -0.57506
   ------------------------------------------------------------------------

   temp. (K)  partition function   enthalpy   heat capacity  entropy
                                   cal/mol     cal/K/mol   cal/K/mol   J/K/mol
 298.15  VIB   1.83                  662.130      5.824      3.420
         ROT  0.152E+05              888.752      2.981     22.120
         INT  0.278E+05             1550.882      8.805     25.540
         TR   0.293E+27             1481.254      4.968     37.325
         TOT                        3032.1362    13.7734    62.8651   263.0274

       T/K    H(0)-H(T)+PV         H(T)/Eh          T*S/Eh         G(T)/Eh
   ------------------------------------------------------------------------
    298.15    0.483202E-02    0.679458E-01    0.298692E-01    0.380766E-01
   ------------------------------------------------------------------------

         :::::::::::::::::::::::::::::::::::::::::::::::::::::
         ::                  THERMODYNAMIC                  ::
         :::::::::::::::::::::::::::::::::::::::::::::::::::::
         :: total free energy         -11.118137233130 Eh   ::
         ::.................................................::
         :: total energy              -11.156213862460 Eh   ::
         :: zero point energy           0.063113832099 Eh   ::
         :: G(RRHO) w/o ZPVE           -0.025037202769 Eh   ::
         :: G(RRHO) contrib.            0.038076629330 Eh   ::
         :::::::::::::::::::::::::::::::::::::::::::::::::::::

optimized geometry written to: xtbopt.xyz


           -------------------------------------------------
          | TOTAL ENERGY              -11.156213862460 Eh   |
          | TOTAL ENTHALPY            -11.088268013770 Eh   |
          | TOTAL FREE ENERGY         -11.118137233130 Eh   |
          | GRADIENT NORM               0.000442328469 Eh/α |
          | HOMO-LUMO GAP              11.432363695973 eV   |
           -------------------------------------------------

------------------------------------------------------------------------
 * finished run on 2025/10/17 at 22:47:53.437     
------------------------------------------------------------------------
 total:
 * wall-time:     0 d,  0 h,  0 min,  0.625 sec
 *  cpu-time:     0 d,  0 h,  0 min,  0.566 sec
 * ratio c/w:     0.906 speedup
 SCF:
 * wall-time:     0 d,  0 h,  0 min,  0.028 sec
 *  cpu-time:     0 d,  0 h,  0 min,  0.035 sec
 * ratio c/w:     1.260 speedup
 ANC optimizer:
 * wall-time:     0 d,  0 h,  0 min,  0.113 sec
 *  cpu-time:     0 d,  0 h,  0 min,  0.128 sec
 * ratio c/w:     1.128 speedup
 analytical hessian:
 * wall-time:     0 d,  0 h,  0 min,  0.141 sec
 *  cpu-time:     0 d,  0 h,  0 min,  0.184 sec
 * ratio c/w:     1.304 speedup

