8
 energy: -11.156213862558 gnorm: 0.000442329583 xtb: 6.7.1 (edcfbbe)
O           -1.19817203631450        4.40836135586523       -1.36707991274517
C           -1.60468965384479        3.41966905178276       -0.58014862242715
C           -3.08561716994264        2.98767618473529       -0.74962828671205
H           -0.97586982427132        2.47411410364078       -0.71984292019847
H           -1.46731402327818        3.66920291471720        0.52796534741581
H           -3.24336710093995        2.66674551331975       -1.77636491347546
H           -3.32173547736139        2.17625980376535       -0.06521759835127
H           -3.72663986755612        3.84260937029598       -0.54895984329735
