8
 energy: -11.154312318670 gnorm: 0.037063359877 xtb: 6.7.1 (edcfbbe)
O           -1.20284800000000        4.43637500000000       -1.39673000000000
C           -1.58743500000000        3.42241900000000       -0.57615700000000
C           -3.06407100000000        2.99146100000000       -0.74462800000000
H           -0.98234100000000        2.46831300000000       -0.70200600000000
H           -1.46888600000000        3.65075200000000        0.53107000000000
H           -3.24469400000000        2.66279400000000       -1.78226900000000
H           -3.34160200000000        2.16567100000000       -0.06396800000000
H           -3.73164400000000        3.84676500000000       -0.54460900000000
8
 energy: -11.156025487233 gnorm: 0.012885178732 xtb: 6.7.1 (edcfbbe)
O           -1.20142141673606        4.40867225881269       -1.36942920094047
C           -1.60443493077448        3.41044325375655       -0.57113895777022
C           -3.08156241135878        2.98889603021604       -0.74922197192890
H           -0.96866772509089        2.47982003971669       -0.71884709698596
H           -1.45888456721616        3.67253310714165        0.52531573778174
H           -3.24614141413515        2.66732667647716       -1.77953351948136
H           -3.33234704981259        2.17264272601495       -0.06683968667943
H           -3.73006148487590        3.84421590786427       -0.54960230399540
8
 energy: -11.156160659156 gnorm: 0.006201702780 xtb: 6.7.1 (edcfbbe)
O           -1.19891196975927        4.40798377482612       -1.36756037958351
C           -1.60676898261211        3.41413962915471       -0.57574183125864
C           -3.08301444010515        2.98676562133972       -0.74768373695832
H           -0.97778837400958        2.47719140106522       -0.72345170521428
H           -1.46950565714535        3.67283768391393        0.52403236295019
H           -3.23921615727029        2.66824173765441       -1.77533988868104
H           -3.32594911479053        2.17430577656727       -0.06562518960834
H           -3.72236630430773        3.84308437547861       -0.54792663164605
8
 energy: -11.156199453524 gnorm: 0.003182662785 xtb: 6.7.1 (edcfbbe)
O           -1.19945490236376        4.40794473719764       -1.36754466726917
C           -1.60636748044788        3.41677457769560       -0.57803741558771
C           -3.08516608054720        2.98727337215381       -0.74906177855568
H           -0.97724332502111        2.47622893062478       -0.72004166584643
H           -1.46790450477782        3.66955166197855        0.52538228568890
H           -3.24107669155636        2.66795599628452       -1.77534388955156
H           -3.32233174629262        2.17637046635169       -0.06596518713466
H           -3.72397626899323        3.84245025771340       -0.54868468174368
8
 energy: -11.156212750109 gnorm: 0.001185393151 xtb: 6.7.1 (edcfbbe)
O           -1.19938632821325        4.40811162673858       -1.36744204561576
C           -1.60474356875962        3.41878988312059       -0.57938131450219
C           -3.08565050396258        2.98768863522567       -0.74963996564111
H           -0.97682243211606        2.47392516215732       -0.72017209840572
H           -1.46847878001588        3.66925581811777        0.52768057835749
H           -3.24235533906836        2.66730519226256       -1.77601981726393
H           -3.32057053698412        2.17681679574842       -0.06542995260396
H           -3.72551351088013        3.84265688662910       -0.54889238432482
8
 energy: -11.156213862554 gnorm: 0.000442836341 xtb: 6.7.1 (edcfbbe)
O           -1.19819034640774        4.40835746819584       -1.36707640119366
C           -1.60470553405758        3.41966166215544       -0.58014825547506
C           -3.08563019662112        2.98766133680304       -0.74963384314632
H           -0.97588026595734        2.47411025032950       -0.71984200853171
H           -1.46733507809739        3.66919431035863        0.52796662940632
H           -3.24337486323930        2.66673163141011       -1.77637158067831
H           -3.32174664451294        2.17624252501234       -0.06522539517521
H           -3.72665807110660        3.84259081573511       -0.54896614520606
