 Entering Gaussian System
 *********************************************
 Gaussian 98:
 frequency output generated by the xtb code
 *********************************************
                         Standard orientation:
 --------------------------------------------------------------------
  Center     Atomic     Atomic              Coordinates (Angstroms)
  Number     Number      Type              X           Y           Z
 --------------------------------------------------------------------
    1          6             0       -3.231549   -2.279309    0.628584
    2          6             0       -2.725399   -3.142602   -0.314642
    3          6             0       -3.406783   -4.305296   -0.654290
    4          6             0       -4.613153   -4.582025   -0.022155
    5          6             0       -5.126744   -3.724406    0.922224
    6          1             0       -1.781076   -2.914158   -0.801278
    7          6             0       -4.451701   -2.541895    1.279920
    8          1             0       -3.004828   -4.983635   -1.398335
    9          1             0       -2.695280   -1.374917    0.888502
   10          1             0       -6.067472   -3.946232    1.410987
   11         16             0       -5.083631   -1.475450    2.449664
   12          1             0       -5.156181   -5.487693   -0.278342
 --------------------------------------------------------------------
     1 basis functions        1 primitive gaussians
     1 alpha electrons        1 beta electrons
 
 Harmonic frequencies (cm**-1), IR intensities (km*mol⁻¹),
 Raman scattering activities (A**4/amu), Raman depolarization ratios,
 reduced masses (AMU), force constants (mDyne/A) and normal coordinates:
                      1                      2                      3
                        a                      a                      a 
 Frequencies --   161.3559               275.2621               370.3420
 Red. masses --    13.8431                16.7533                 9.2235
 Frc consts  --     0.0000                 0.0000                 0.0000
 IR Inten    --     5.0132                 3.1064                 0.0040
 Raman Activ --     0.0000                 0.0000                 0.0000
 Depolar     --     0.0000                 0.0000                 0.0000
 Atom AN      X      Y      Z        X      Y      Z        X      Y      Z
   1   6    -0.21   0.21  -0.31     0.33   0.08  -0.17    -0.21   0.22  -0.31
   2   6     0.02  -0.02   0.03     0.06  -0.15  -0.15     0.21  -0.21   0.31
   3   6     0.21  -0.22   0.31    -0.12  -0.09   0.02     0.00   0.00   0.00
   4   6     0.02  -0.02   0.03    -0.10   0.12   0.15    -0.21   0.21  -0.31
   5   6    -0.21   0.21  -0.31     0.19   0.31   0.09     0.21  -0.22   0.31
   6   1     0.02  -0.03   0.04     0.01  -0.10  -0.08     0.13  -0.13   0.19
   7   6    -0.17   0.17  -0.25     0.34   0.26  -0.05    -0.00  -0.00   0.00
   8   1     0.14  -0.14   0.20    -0.08  -0.06   0.01     0.00   0.00   0.00
   9   1    -0.09   0.09  -0.13     0.15   0.00  -0.10    -0.12   0.12  -0.17
  10   1    -0.09   0.09  -0.13     0.06   0.16   0.07     0.12  -0.12   0.17
  11  16     0.20  -0.21   0.30    -0.43  -0.33   0.07     0.00  -0.00  -0.00
  12   1     0.02  -0.02   0.04    -0.08   0.05   0.09    -0.13   0.13  -0.19
                      4                      5                      6
                        a                      a                      a 
 Frequencies --   415.2679               430.6851               584.5090
 Red. masses --    21.2203                 9.5776                11.2719
 Frc consts  --     0.0000                 0.0000                 0.0000
 IR Inten    --     2.8960                 0.0127                 0.0626
 Raman Activ --     0.0000                 0.0000                 0.0000
 Depolar     --     0.0000                 0.0000                 0.0000
 Atom AN      X      Y      Z        X      Y      Z        X      Y      Z
   1   6    -0.08  -0.21  -0.09     0.02  -0.02   0.02     0.10   0.38   0.19
   2   6    -0.03  -0.22  -0.14     0.14  -0.14   0.20    -0.40   0.02   0.28
   3   6     0.16  -0.27  -0.30    -0.20   0.21  -0.30    -0.14  -0.11   0.02
   4   6     0.19  -0.06  -0.17     0.14  -0.14   0.20    -0.14  -0.43  -0.20
   5   6     0.20   0.00  -0.14     0.02  -0.02   0.02     0.35  -0.04  -0.26
   6   1    -0.00  -0.02  -0.01     0.13  -0.13   0.19    -0.11  -0.05   0.05
   7   6    -0.07   0.12   0.13    -0.31   0.32  -0.46     0.13   0.10  -0.02
   8   1     0.05  -0.08  -0.08    -0.07   0.07  -0.11     0.09   0.07  -0.01
   9   1     0.04  -0.08  -0.08     0.10  -0.10   0.15     0.07   0.09   0.01
  10   1     0.05  -0.07  -0.08     0.10  -0.10   0.15     0.10   0.04  -0.04
  11  16    -0.26   0.43   0.48     0.06  -0.06   0.09     0.05   0.04  -0.01
  12   1     0.01  -0.00  -0.01     0.13  -0.13   0.19    -0.08  -0.10  -0.02
                      7                      8                      9
                        a                      a                      a 
 Frequencies --   634.2450               716.2176               725.1570
 Red. masses --    10.9236                14.6006                 3.3142
 Frc consts  --     0.0000                 0.0000                 0.0000
 IR Inten    --     1.5405                10.7904                19.0219
 Raman Activ --     0.0000                 0.0000                 0.0000
 Depolar     --     0.0000                 0.0000                 0.0000
 Atom AN      X      Y      Z        X      Y      Z        X      Y      Z
   1   6    -0.16   0.17  -0.24    -0.28  -0.08   0.14     0.07  -0.07   0.10
   2   6     0.18  -0.19   0.27    -0.36  -0.10   0.17     0.08  -0.08   0.12
   3   6    -0.19   0.19  -0.27     0.13  -0.22  -0.24     0.08  -0.09   0.12
   4   6     0.18  -0.19   0.27     0.22   0.34   0.08     0.08  -0.08   0.11
   5   6    -0.16   0.17  -0.24     0.17   0.27   0.07     0.07  -0.07   0.10
   6   1     0.02  -0.02   0.03    -0.09   0.09   0.12    -0.16   0.17  -0.24
   7   6     0.24  -0.24   0.35    -0.11   0.18   0.20    -0.14   0.14  -0.21
   8   1    -0.07   0.07  -0.10     0.04  -0.06  -0.06    -0.30   0.30  -0.44
   9   1    -0.10   0.10  -0.14    -0.02  -0.04  -0.01    -0.15   0.16  -0.23
  10   1    -0.10   0.10  -0.14     0.04   0.01  -0.02    -0.15   0.16  -0.23
  11  16    -0.02   0.02  -0.03     0.15  -0.26  -0.28     0.02  -0.02   0.03
  12   1     0.02  -0.02   0.03    -0.04   0.13   0.11    -0.16   0.17  -0.24
                     10                     11                     12
                        a                      a                      a 
 Frequencies --   827.7394               852.8932               908.9183
 Red. masses --     4.1642                 3.3174                 2.2859
 Frc consts  --     0.0000                 0.0000                 0.0000
 IR Inten    --     1.6462                 0.0072                 0.1481
 Raman Activ --     0.0000                 0.0000                 0.0000
 Depolar     --     0.0000                 0.0000                 0.0000
 Atom AN      X      Y      Z        X      Y      Z        X      Y      Z
   1   6     0.12  -0.12   0.18     0.12  -0.12   0.17    -0.05   0.05  -0.08
   2   6     0.02  -0.02   0.03     0.11  -0.11   0.16     0.10  -0.10   0.14
   3   6    -0.18   0.18  -0.27    -0.00  -0.00  -0.00    -0.04   0.04  -0.06
   4   6     0.02  -0.02   0.03    -0.11   0.11  -0.16     0.10  -0.10   0.14
   5   6     0.12  -0.12   0.18    -0.12   0.12  -0.17    -0.05   0.05  -0.08
   6   1    -0.04   0.04  -0.05    -0.20   0.20  -0.29    -0.26   0.26  -0.38
   7   6    -0.07   0.08  -0.11    -0.00   0.00   0.00    -0.04   0.04  -0.05
   8   1     0.30  -0.30   0.44     0.00  -0.00   0.00     0.15  -0.15   0.21
   9   1    -0.20   0.20  -0.29    -0.23   0.24  -0.34     0.17  -0.17   0.24
  10   1    -0.20   0.20  -0.29     0.23  -0.24   0.34     0.17  -0.17   0.24
  11  16     0.01  -0.01   0.01    -0.00   0.00   0.00    -0.00   0.00  -0.00
  12   1    -0.04   0.04  -0.05     0.20  -0.20   0.29    -0.26   0.26  -0.38
                     13                     14                     15
                        a                      a                      a 
 Frequencies --   909.9895               964.3327              1075.0490
 Red. masses --     3.8041                11.2438                 7.1092
 Frc consts  --     0.0000                 0.0000                 0.0000
 IR Inten    --     0.0100                 0.0163                 2.2816
 Raman Activ --     0.0000                 0.0000                 0.0000
 Depolar     --     0.0000                 0.0000                 0.0000
 Atom AN      X      Y      Z        X      Y      Z        X      Y      Z
   1   6    -0.12   0.12  -0.17     0.34   0.42   0.06    -0.05   0.11   0.11
   2   6     0.13  -0.13   0.19    -0.21  -0.08   0.09     0.31   0.19  -0.08
   3   6    -0.00  -0.00   0.00     0.15  -0.26  -0.29     0.17  -0.29  -0.32
   4   6    -0.13   0.13  -0.19     0.14   0.19   0.03    -0.28  -0.25   0.01
   5   6     0.12  -0.12   0.17    -0.47  -0.20   0.18    -0.07   0.10   0.11
   6   1    -0.22   0.23  -0.33    -0.05  -0.07  -0.01     0.11   0.29   0.12
   7   6    -0.00   0.00   0.00     0.07  -0.12  -0.13    -0.00   0.00   0.01
   8   1    -0.00  -0.00   0.00     0.04  -0.07  -0.08     0.05  -0.09  -0.10
   9   1     0.20  -0.20   0.29     0.13   0.10  -0.02    -0.21   0.10   0.22
  10   1    -0.20   0.20  -0.29    -0.13  -0.09   0.02    -0.00   0.26   0.18
  11  16    -0.00  -0.00  -0.00    -0.03   0.05   0.06     0.00  -0.01  -0.01
  12   1     0.22  -0.23   0.33     0.08   0.03  -0.03    -0.28  -0.01   0.18
                     16                     17                     18
                        a                      a                      a 
 Frequencies --  1109.5654              1126.8505              1179.8312
 Red. masses --     4.5917                10.3940                 1.4431
 Frc consts  --     0.0000                 0.0000                 0.0000
 IR Inten    --     0.0956               156.5876                 0.4863
 Raman Activ --     0.0000                 0.0000                 0.0000
 Depolar     --     0.0000                 0.0000                 0.0000
 Atom AN      X      Y      Z        X      Y      Z        X      Y      Z
   1   6    -0.07  -0.23  -0.11    -0.11  -0.13  -0.02    -0.05   0.05   0.06
   2   6    -0.17  -0.04   0.09    -0.21  -0.04   0.12     0.01   0.04   0.02
   3   6     0.19   0.15  -0.03    -0.02   0.03   0.03    -0.07  -0.06   0.01
   4   6    -0.09  -0.16  -0.05     0.11   0.21   0.07     0.04  -0.01  -0.03
   5   6    -0.22   0.01   0.15     0.15   0.06  -0.06     0.02  -0.07  -0.06
   6   1    -0.03   0.21   0.17    -0.06   0.03   0.06     0.03   0.38   0.24
   7   6     0.17   0.13  -0.03     0.27  -0.46  -0.51     0.08   0.06  -0.01
   8   1     0.35   0.27  -0.05    -0.01   0.01   0.01    -0.57  -0.43   0.09
   9   1     0.25  -0.16  -0.28    -0.26   0.03   0.19     0.11  -0.03  -0.09
  10   1    -0.03   0.32   0.25     0.08   0.28   0.14     0.02   0.13   0.07
  11  16    -0.01  -0.01   0.00    -0.08   0.13   0.14     0.00   0.00  -0.00
  12   1     0.16  -0.11  -0.19    -0.00   0.07   0.05     0.32  -0.11  -0.29
                     19                     20                     21
                        a                      a                      a 
 Frequencies --  1204.2465              1275.1417              1337.3311
 Red. masses --     2.4867                 4.4836                10.0326
 Frc consts  --     0.0000                 0.0000                 0.0000
 IR Inten    --     4.8042                 0.1861                 4.8547
 Raman Activ --     0.0000                 0.0000                 0.0000
 Depolar     --     0.0000                 0.0000                 0.0000
 Atom AN      X      Y      Z        X      Y      Z        X      Y      Z
   1   6     0.07  -0.06  -0.10    -0.01  -0.09  -0.06    -0.32   0.04   0.25
   2   6    -0.02   0.11   0.09    -0.06  -0.14  -0.05    -0.04  -0.18  -0.10
   3   6    -0.02   0.03   0.04    -0.04  -0.03   0.01     0.37   0.28  -0.06
   4   6    -0.08   0.06   0.10    -0.13  -0.01   0.08    -0.16   0.03   0.13
   5   6     0.02  -0.10  -0.09    -0.08   0.02   0.07    -0.09  -0.35  -0.18
   6   1     0.02   0.43   0.28     0.00   0.23   0.16    -0.03  -0.21  -0.13
   7   6     0.08  -0.13  -0.15     0.39   0.29  -0.06     0.34   0.26  -0.05
   8   1    -0.01   0.01   0.01     0.13   0.10  -0.02    -0.18  -0.14   0.03
   9   1     0.29  -0.11  -0.27    -0.37   0.10   0.32     0.02  -0.03  -0.03
  10   1    -0.02  -0.35  -0.23    -0.06  -0.43  -0.25    -0.01   0.03   0.03
  11  16    -0.02   0.04   0.04    -0.01  -0.01   0.00     0.00   0.00  -0.00
  12   1    -0.36   0.14   0.34     0.19  -0.08  -0.19    -0.18   0.05   0.16
                     22                     23                     24
                        a                      a                      a 
 Frequencies --  1440.3533              1449.8050              1534.2901
 Red. masses --     9.5080                 7.9056                11.0695
 Frc consts  --     0.0000                 0.0000                 0.0000
 IR Inten    --    16.8799                21.8107                 2.0527
 Raman Activ --     0.0000                 0.0000                 0.0000
 Depolar     --     0.0000                 0.0000                 0.0000
 Atom AN      X      Y      Z        X      Y      Z        X      Y      Z
   1   6    -0.03   0.27   0.21     0.29  -0.01  -0.21    -0.27  -0.01   0.17
   2   6     0.11  -0.35  -0.31    -0.14  -0.27  -0.09     0.24   0.23  -0.00
   3   6    -0.05  -0.04   0.01    -0.09   0.15   0.17    -0.48  -0.37   0.08
   4   6    -0.24   0.25   0.33     0.27   0.04  -0.15     0.27   0.16  -0.07
   5   6     0.21  -0.14  -0.24    -0.10  -0.31  -0.14    -0.11  -0.28  -0.11
   6   1     0.06   0.20   0.10    -0.01   0.24   0.17     0.05  -0.02  -0.05
   7   6    -0.21  -0.16   0.03    -0.12   0.21   0.23     0.27   0.21  -0.04
   8   1     0.25   0.19  -0.04    -0.03   0.05   0.05     0.17   0.13  -0.03
   9   1     0.10   0.04  -0.04    -0.21   0.10   0.21     0.07  -0.04  -0.08
  10   1     0.07   0.09   0.01     0.00   0.26   0.18    -0.01   0.09   0.07
  11  16     0.02   0.01  -0.00     0.01  -0.02  -0.02    -0.00  -0.00   0.00
  12   1     0.19  -0.01  -0.14    -0.19   0.10   0.20     0.00   0.06   0.04
                     25                     26                     27
                        a                      a                      a 
 Frequencies --  1595.3508              2985.3923              2985.5604
 Red. masses --    11.3852                 1.7969                 1.7316
 Frc consts  --     0.0000                 0.0000                 0.0000
 IR Inten    --   215.8146               186.9702                35.7996
 Raman Activ --     0.0000                 0.0000                 0.0000
 Depolar     --     0.0000                 0.0000                 0.0000
 Atom AN      X      Y      Z        X      Y      Z        X      Y      Z
   1   6    -0.22   0.23   0.31     0.01   0.02   0.01     0.00   0.01   0.01
   2   6     0.06  -0.38  -0.30    -0.18  -0.04   0.09    -0.13  -0.04   0.06
   3   6    -0.08   0.14   0.15    -0.00  -0.01  -0.01     0.03  -0.06  -0.06
   4   6     0.29  -0.21  -0.34    -0.08  -0.14  -0.04     0.10   0.15   0.04
   5   6    -0.10   0.32   0.29     0.02   0.00  -0.01    -0.02   0.00   0.01
   6   1     0.03   0.11   0.06     0.63   0.15  -0.33     0.48   0.12  -0.25
   7   6     0.07  -0.11  -0.12     0.00   0.00  -0.00    -0.00   0.00   0.00
   8   1    -0.02   0.03   0.04    -0.01   0.02   0.02    -0.14   0.24   0.26
   9   1     0.08   0.01  -0.05    -0.05  -0.09  -0.03    -0.04  -0.06  -0.02
  10   1    -0.04  -0.08  -0.03    -0.07  -0.02   0.04     0.08   0.02  -0.04
  11  16     0.00  -0.00  -0.00    -0.00  -0.00   0.00    -0.00   0.00   0.00
  12   1    -0.10   0.01   0.08     0.31   0.51   0.14    -0.34  -0.57  -0.16
                     28                     29                     30
                        a                      a                      a 
 Frequencies --  3020.2729              3043.7706              3049.5876
 Red. masses --     1.8551                 1.8327                 1.8440
 Frc consts  --     0.0000                 0.0000                 0.0000
 IR Inten    --   273.9515               134.7454                 3.5799
 Raman Activ --     0.0000                 0.0000                 0.0000
 Depolar     --     0.0000                 0.0000                 0.0000
 Atom AN      X      Y      Z        X      Y      Z        X      Y      Z
   1   6    -0.02  -0.04  -0.01    -0.09  -0.16  -0.05     0.09   0.15   0.04
   2   6     0.07   0.01  -0.03    -0.03  -0.01   0.01     0.04   0.01  -0.02
   3   6     0.09  -0.16  -0.17     0.00   0.00  -0.00     0.02  -0.03  -0.04
   4   6    -0.04  -0.06  -0.02    -0.02  -0.03  -0.01    -0.03  -0.04  -0.01
   5   6     0.04   0.01  -0.02    -0.16  -0.04   0.09    -0.16  -0.04   0.08
   6   1    -0.21  -0.05   0.11     0.08   0.02  -0.04    -0.12  -0.03   0.06
   7   6     0.00  -0.00  -0.00    -0.00  -0.00   0.00    -0.01   0.01   0.01
   8   1    -0.32   0.54   0.59    -0.00  -0.00  -0.00    -0.07   0.11   0.12
   9   1     0.09   0.14   0.04     0.33   0.57   0.16    -0.32  -0.54  -0.16
  10   1    -0.15  -0.04   0.08     0.58   0.14  -0.30     0.57   0.14  -0.30
  11  16     0.00  -0.00  -0.00     0.00   0.00  -0.00     0.00  -0.00  -0.00
  12   1     0.12   0.20   0.06     0.05   0.07   0.02     0.07   0.12   0.03
