12
 energy: -18.845965529475 gnorm: 0.052158473882 xtb: 6.7.1 (edcfbbe)
C           -3.23132600000000       -2.26494600000000        0.63837900000000
C           -2.71382000000000       -3.14004600000000       -0.32077200000000
C           -3.40733800000000       -4.30433300000000       -0.65323500000000
C           -4.61959100000000       -4.59322200000000       -0.02550200000000
C           -5.13854700000000       -3.71922700000000        0.93387400000000
H           -1.77077100000000       -2.90633800000000       -0.80289400000000
C           -4.44265600000000       -2.55716800000000        1.26317500000000
H           -3.00519500000000       -4.98297500000000       -1.39761400000000
H           -2.68649700000000       -1.35994300000000        0.89287100000000
H           -6.08300600000000       -3.94982900000000        1.41911000000000
S           -5.07842200000000       -1.48427300000000        2.44000200000000
H           -5.16642500000000       -5.49556900000000       -0.27678900000000
12
 energy: -18.847392785186 gnorm: 0.021852188085 xtb: 6.7.1 (edcfbbe)
C           -3.23106170946943       -2.27407825436944        0.63187617505569
C           -2.72188520879923       -3.14145485179746       -0.31624062697935
C           -3.40879974289816       -4.30186632798778       -0.65052912245132
C           -4.61539570495281       -4.58528242197776       -0.02286963349181
C           -5.13119167959774       -3.72295321181193        0.92627305572021
H           -1.77898907837744       -2.91183571162161       -0.80108883682471
C           -4.44711833283530       -2.54963771501222        1.27143507024841
H           -3.00660967818782       -4.98058783753580       -1.39499687572568
H           -2.68918552391952       -1.37231992074311        0.88614011320991
H           -6.07188826394425       -3.95167704881802        1.41023895360972
S           -5.08263512930754       -1.47716301546384        2.44779945949728
H           -5.15883394771076       -5.48901268286103       -0.27743273186835
12
 energy: -18.847653924961 gnorm: 0.005106085085 xtb: 6.7.1 (edcfbbe)
C           -3.23134224611657       -2.27914338373345        0.62856167573609
C           -2.72559526108585       -3.14243923249873       -0.31438872885652
C           -3.40772341117281       -4.30368286714271       -0.65252179020444
C           -4.61319157704168       -4.58175690245531       -0.02193415555905
C           -5.12695116180280       -3.72457078208387        0.92225768754951
H           -1.78178618168558       -2.91439102404264       -0.80094802119964
C           -4.45076888403299       -2.54347742244811        1.27819185100010
H           -3.00548530096443       -4.98248522644024       -1.39707852084812
H           -2.69354336391042       -1.37642893160054        0.88627160603963
H           -6.06688880606566       -3.94865070597779        1.40892069629596
S           -5.08462617505273       -1.47380284366761        2.45148460211508
H           -5.15569163106848       -5.48703967790901       -0.27821190206860
12
 energy: -18.847673423249 gnorm: 0.002090216874 xtb: 6.7.1 (edcfbbe)
C           -3.23149165544671       -2.27941831189440        0.62847335679281
C           -2.72557327667118       -3.14262101787499       -0.31452971130853
C           -3.40701670922549       -4.30487548673998       -0.65382994768940
C           -4.61305143199350       -4.58184879612684       -0.02209326387035
C           -5.12667024567683       -3.72451775298926        0.92210284143206
H           -1.78138661861917       -2.91442269875362       -0.80124272321617
C           -4.45148095941032       -2.54227571781588        1.27951016612076
H           -3.00492155458319       -4.98343657887106       -1.39812221122748
H           -2.69485965417196       -1.37558107491594        0.88775743507664
H           -6.06708396871416       -3.94694779353191        1.41023278398490
S           -5.08424128032062       -1.47445243261528        2.45077175910489
H           -5.15581664516689       -5.48747133787084       -0.27842548520014
12
 energy: -18.847677352941 gnorm: 0.000367354180 xtb: 6.7.1 (edcfbbe)
C           -3.23153865800993       -2.27932683611915        0.62856883599907
C           -2.72538110123164       -3.14261523857026       -0.31465680183046
C           -3.40675788988529       -4.30531226221535       -0.65430903706009
C           -4.61312878582842       -4.58204838489847       -0.02217874218134
C           -5.12672722774202       -3.72443377314418        0.92219976540310
H           -1.78105810073727       -2.91416576462388       -0.80128918025288
C           -4.45169187315747       -2.54191982049925        1.27990039095505
H           -3.00479650757616       -4.98364759362371       -1.39835363551153
H           -2.69527586701504       -1.37493298967925        0.88849022287152
H           -6.06745578064711       -3.94626594107316        1.41095883338753
S           -5.08363182016630       -1.47548094373159        2.44964369044340
H           -5.15615038800334       -5.48771945182175       -0.27836934222337
