 Entering Gaussian System
 *********************************************
 Gaussian 98:
 frequency output generated by the xtb code
 *********************************************
                         Standard orientation:
 --------------------------------------------------------------------
  Center     Atomic     Atomic              Coordinates (Angstroms)
  Number     Number      Type              X           Y           Z
 --------------------------------------------------------------------
    1          7             0       -8.632436   -3.348815   -1.809231
    2          6             0       -7.700200   -2.622737   -1.804641
    3          6             0       -6.644523   -1.803945   -1.798235
    4          1             0       -5.732682   -2.071887   -1.281775
    5          1             0       -6.672430   -0.850728   -2.308607
 --------------------------------------------------------------------
     1 basis functions        1 primitive gaussians
     1 alpha electrons        1 beta electrons
 
 Harmonic frequencies (cm**-1), IR intensities (km*mol⁻¹),
 Raman scattering activities (A**4/amu), Raman depolarization ratios,
 reduced masses (AMU), force constants (mDyne/A) and normal coordinates:
                      1                      2                      3
                        a                      a                      a 
 Frequencies --  -228.3484               376.0974               486.1000
 Red. masses --     5.7983                 9.4897                 9.6591
 Frc consts  --     0.0000                 0.0000                 0.0000
 IR Inten    --    87.5075                21.0786                14.9782
 Raman Activ --     0.0000                 0.0000                 0.0000
 Depolar     --     0.0000                 0.0000                 0.0000
 Atom AN      X      Y      Z        X      Y      Z        X      Y      Z
   1   7    -0.04   0.05   0.09    -0.22   0.29  -0.25    -0.14   0.18   0.34
   2   6     0.12  -0.15  -0.29     0.37  -0.47   0.41     0.26  -0.34  -0.62
   3   6    -0.19   0.24   0.45    -0.06   0.08  -0.07    -0.04   0.05   0.09
   4   1     0.18  -0.23  -0.44     0.12   0.32  -0.12    -0.12   0.16   0.29
   5   1     0.18  -0.23  -0.44    -0.34  -0.04  -0.13    -0.13   0.15   0.29
                      4                      5                      6
                        a                      a                      a 
 Frequencies --   953.1027              1193.3913              1437.1979
 Red. masses --     5.2708                 9.2357                 4.6420
 Frc consts  --     0.0000                 0.0000                 0.0000
 IR Inten    --     0.4010                26.1783                16.5972
 Raman Activ --     0.0000                 0.0000                 0.0000
 Depolar     --     0.0000                 0.0000                 0.0000
 Atom AN      X      Y      Z        X      Y      Z        X      Y      Z
   1   7     0.04  -0.05   0.04    -0.44  -0.34  -0.00    -0.17  -0.13  -0.00
   2   6    -0.21   0.27  -0.23    -0.16  -0.12  -0.00    -0.01  -0.01  -0.00
   3   6     0.23  -0.30   0.25     0.46   0.36   0.00     0.41   0.32   0.00
   4   1     0.29   0.46  -0.12     0.24   0.30  -0.06    -0.20  -0.51   0.19
   5   1    -0.51  -0.17  -0.12     0.35   0.16   0.06    -0.55  -0.07  -0.19
                      7                      8                      9
                        a                      a                      a 
 Frequencies --  2260.3995              2960.8189              2993.7020
 Red. masses --    12.5326                 2.0671                 1.4788
 Frc consts  --     0.0000                 0.0000                 0.0000
 IR Inten    --  1197.5928               417.1683               245.3626
 Raman Activ --     0.0000                 0.0000                 0.0000
 Depolar     --     0.0000                 0.0000                 0.0000
 Atom AN      X      Y      Z        X      Y      Z        X      Y      Z
   1   7    -0.43  -0.33  -0.00     0.00  -0.00   0.00     0.01   0.01   0.00
   2   6     0.64   0.50   0.00    -0.01   0.01  -0.01    -0.02  -0.02  -0.00
   3   6    -0.17  -0.13  -0.00    -0.16   0.20  -0.17     0.16   0.13  -0.00
   4   1    -0.05   0.01  -0.02     0.58  -0.14   0.32    -0.56   0.20  -0.34
   5   1    -0.00  -0.05   0.02    -0.01  -0.59   0.30     0.05  -0.61   0.34
