      -----------------------------------------------------------      
     |                   =====================                   |     
     |                           x T B                           |     
     |                   =====================                   |     
     |                         S. Grimme                         |     
     |          Mulliken Center for Theoretical Chemistry        |     
     |                    University of Bonn                     |     
      -----------------------------------------------------------      

   * xtb version 6.7.1 (edcfbbe) compiled by 'albert@albert-system' on 2024-07-22

   xtb is free software: you can redistribute it and/or modify it under
   the terms of the GNU Lesser General Public License as published by
   the Free Software Foundation, either version 3 of the License, or
   (at your option) any later version.
   
   xtb is distributed in the hope that it will be useful,
   but WITHOUT ANY WARRANTY; without even the implied warranty of
   MERCHANTABILITY or FITNESS FOR A PARTICULAR PURPOSE.  See the
   GNU Lesser General Public License for more details.
   
   Cite this work as:
   * C. Bannwarth, E. Caldeweyher, S. Ehlert, A. Hansen, P. Pracht,
     J. Seibert, S. Spicher, S. Grimme, WIREs Comput. Mol. Sci., 2020, 11,
     e01493. DOI: 10.1002/wcms.1493
   
   for GFN2-xTB:
   * C. Bannwarth, S. Ehlert and S. Grimme., J. Chem. Theory Comput., 2019,
     15, 1652-1671. DOI: 10.1021/acs.jctc.8b01176
   for GFN1-xTB:
   * S. Grimme, C. Bannwarth, P. Shushkov, J. Chem. Theory Comput., 2017,
     13, 1989-2009. DOI: 10.1021/acs.jctc.7b00118
   for GFN0-xTB:
   * P. Pracht, E. Caldeweyher, S. Ehlert, S. Grimme, ChemRxiv, 2019, preprint.
     DOI: 10.26434/chemrxiv.8326202.v1
   for GFN-FF:
   * S. Spicher and S. Grimme, Angew. Chem. Int. Ed., 2020, 59, 15665-15673.
     DOI: 10.1002/anie.202004239
   
   for ALPB and GBSA implicit solvation:
   * S. Ehlert, M. Stahn, S. Spicher, S. Grimme, J. Chem. Theory Comput.,
     2021, 17, 4250-4261. DOI: 10.1021/acs.jctc.1c00471
   
   for ddCOSMO and CPCM-X implicit solvation:
   * M. Stahn, S. Ehlert, S. Grimme, J. Phys. Chem. A,
     2023, XX, XXXX-XXXX. DOI: 10.1021/acs.jpca.3c04382
   
   for DFT-D4:
   * E. Caldeweyher, C. Bannwarth and S. Grimme, J. Chem. Phys., 2017,
     147, 034112. DOI: 10.1063/1.4993215
   * E. Caldeweyher, S. Ehlert, A. Hansen, H. Neugebauer, S. Spicher,
     C. Bannwarth and S. Grimme, J. Chem. Phys., 2019, 150, 154122.
     DOI: 10.1063/1.5090222
   * E. Caldeweyher, J.-M. Mewes, S. Ehlert and S. Grimme, Phys. Chem. Chem. Phys.
     2020, 22, 8499-8512. DOI: 10.1039/D0CP00502A
   
   for sTDA-xTB:
   * S. Grimme and C. Bannwarth, J. Chem. Phys., 2016, 145, 054103.
     DOI: 10.1063/1.4959605
   
   in the mass-spec context:
   * V. Asgeirsson, C. Bauer and S. Grimme, Chem. Sci., 2017, 8, 4879.
     DOI: 10.1039/c7sc00601b
   * J. Koopman and S. Grimme, ACS Omega 2019, 4, 12, 15120-15133.
     DOI: 10.1021/acsomega.9b02011
   
   for metadynamics refer to:
   * S. Grimme, J. Chem. Theory Comput., 2019, 155, 2847-2862
     DOI: 10.1021/acs.jctc.9b00143
   
   for SPH calculations refer to:
   * S. Spicher and S. Grimme, J. Chem. Theory Comput., 2021, 17, 1701-1714
     DOI: 10.1021/acs.jctc.0c01306
   
   for ONIOM refer to:
   * C. Plett, A. Katbashev, S. Ehlert, S. Grimme, M. Bursch,
     Phys. Chem. Chem. Phys., 2023, 25, 17860-17868. DOI: 10.1039/D3CP02178E
   
   for DIPRO refer to:
   * J. Kohn, N. Gildemeister, S. Grimme, D. Fazzi, A. Hansen,
     J. Chem. Phys., 2023, just accepted.
   
   for PTB refer to:
   * S. Grimme, M. Mueller, A. Hansen, J. Chem. Phys., 2023, 158, 124111.
     DOI: 10.1063/5.0137838
   
   with help from (in alphabetical order)
   P. Atkinson, C. Bannwarth, F. Bohle, G. Brandenburg, E. Caldeweyher
   M. Checinski, S. Dohm, S. Ehlert, S. Ehrlich, I. Gerasimov, C. Hölzer
   A. Katbashev, J. Kohn, J. Koopman, C. Lavigne, S. Lehtola, F. März, M. Müller,
   F. Musil, H. Neugebauer, J. Pisarek, C. Plett, P. Pracht, F. Pultar,
   J. Seibert, P. Shushkov, S. Spicher, M. Stahn, M. Steiner, T. Strunk,
   J. Stückrath, T. Rose, and J. Unsleber
   
 * started run on 2025/10/17 at 21:45:30.870     
   ID    Z sym.   atoms
    1    7 N      1
    2    6 C      2, 3
    3    1 H      4, 5

           -------------------------------------------------
          |                Calculation Setup                |
           -------------------------------------------------

          program call               : xtb tb_lite_results_shiftn0p2_gp36_b0_rot90_solute.xyz --alpb water --charge -1 --ohess
          hostname                   : m003
          coordinate file            : tb_lite_results_shiftn0p2_gp36_b0_rot90_solute.xyz
          omp threads                :                     2


           -------------------------------------------------
          |                 G F N 2 - x T B                 |
           -------------------------------------------------

        Reference                      10.1021/acs.jctc.8b01176
      * Hamiltonian:
        H0-scaling (s, p, d)           1.850000    2.230000    2.230000
        zeta-weighting                 0.500000
      * Dispersion:
        s8                             2.700000
        a1                             0.520000
        a2                             5.000000
        s9                             5.000000
      * Repulsion:
        kExp                           1.500000    1.000000
        rExp                           1.000000
      * Coulomb:
        alpha                          2.000000
        third order                    shell-resolved
        anisotropic                    true
        a3                             3.000000
        a5                             4.000000
        cn-shift                       1.200000
        cn-exp                         4.000000
        max-rad                        5.000000

      * Solvation model:               ALPB
        Solvent                        water
        Parameter file                 internal GFN2-xTB/ALPB
        Dielectric constant                8.0200E+01
        Reference state                gsolv [1 M gas/solution]
        Free energy shift                  1.0808E-03 Eh       6.7819E-01 kcal/mol
        Temperature                        2.9815E+02 K
        Density                            1.0000E+00 kg/L
        Solvent mass                       1.8000E+01 g/mol
        Interaction kernel             P16
        Born radius scaling (c1)           1.4744E+00
        Born radii integrator          GBOBC
        Born offset                        0.0000E+00 a0       0.0000E+00 AA
        H-bond correction              true
        Ion screening                  false
        Surface tension                    1.0000E-05 Eh       1.5569E+01 dyn/cm
        Grid points                               230 per atom

          ...................................................
          :                      SETUP                      :
          :.................................................:
          :  # basis functions                  14          :
          :  # atomic orbitals                  14          :
          :  # shells                            8          :
          :  # electrons                        16          :
          :  max. iterations                   250          :
          :  Hamiltonian                  GFN2-xTB          :
          :  restarted?                      false          :
          :  GBSA solvation                   true          :
          :  PC potential                    false          :
          :  electronic temp.          300.0000000     K    :
          :  accuracy                    1.0000000          :
          :  -> integral cutoff          0.2500000E+02      :
          :  -> integral neglect         0.1000000E-07      :
          :  -> SCF convergence          0.1000000E-05 Eh   :
          :  -> wf. convergence          0.1000000E-03 e    :
          :  Broyden damping             0.4000000          :
          :  net charge                         -1          :
          :  unpaired electrons                  0          :
          ...................................................

 iter      E             dE          RMSdq      gap      omega  full diag
   1     -8.5608789 -0.856088E+01  0.570E+00    3.96       0.0  T
   2     -8.5669225 -0.604367E-02  0.313E+00    3.47       1.0  T
   3     -8.5617115  0.521102E-02  0.205E+00    3.60       1.0  T
   4     -8.5709467 -0.923520E-02  0.240E-01    3.41       1.0  T
   5     -8.5709677 -0.210100E-04  0.153E-01    3.38       1.0  T
   6     -8.5709806 -0.128679E-04  0.323E-02    3.40       1.4  T
   7     -8.5709795  0.108140E-05  0.295E-02    3.38       1.5  T
   8     -8.5709826 -0.307306E-05  0.225E-03    3.39      19.8  T
   9     -8.5709826  0.310174E-08  0.151E-03    3.39      29.5  T
  10     -8.5709826 -0.813723E-08  0.820E-05    3.39     545.5  T
  11     -8.5709826  0.115108E-11  0.518E-05    3.39     863.2  T

   *** convergence criteria satisfied after 11 iterations ***

         #    Occupation            Energy/Eh            Energy/eV
      -------------------------------------------------------------
         1        2.0000           -0.5473399             -14.8939
         2        2.0000           -0.5186954             -14.1144
         3        2.0000           -0.4472221             -12.1695
         4        2.0000           -0.4374448             -11.9035
         5        2.0000           -0.3828561             -10.4180
         6        2.0000           -0.3676115             -10.0032
         7        2.0000           -0.3461592              -9.4195
         8        2.0000           -0.2583185              -7.0292 (HOMO)
         9                         -0.1336680              -3.6373 (LUMO)
        10                         -0.0701136              -1.9079
        11                          0.1547431               4.2108
        12                          0.3473349               9.4515
        13                          0.3499536               9.5227
        14                          1.0940449              29.7705
      -------------------------------------------------------------
                  HL-Gap            0.1246505 Eh            3.3919 eV
             Fermi-level           -0.1959933 Eh           -5.3332 eV

 SCC (total)                   0 d,  0 h,  0 min,  0.024 sec
 SCC setup                      ...        0 min,  0.000 sec (  0.982%)
 Dispersion                     ...        0 min,  0.000 sec (  0.243%)
 classical contributions        ...        0 min,  0.000 sec (  0.134%)
 integral evaluation            ...        0 min,  0.000 sec (  1.099%)
 iterations                     ...        0 min,  0.023 sec ( 95.344%)
 molecular gradient             ...        0 min,  0.000 sec (  1.718%)
 printout                       ...        0 min,  0.000 sec (  0.347%)

         :::::::::::::::::::::::::::::::::::::::::::::::::::::
         ::                     SUMMARY                     ::
         :::::::::::::::::::::::::::::::::::::::::::::::::::::
         :: total energy              -8.427815101356 Eh    ::
         :: total w/o Gsasa/hb        -8.421176389861 Eh    ::
         :: gradient norm              0.045223043190 Eh/a0 ::
         :: HOMO-LUMO gap              3.391913859671 eV    ::
         ::.................................................::
         :: SCC energy                -8.570982575736 Eh    ::
         :: -> isotropic ES            0.164394826477 Eh    ::
         :: -> anisotropic ES          0.015278538053 Eh    ::
         :: -> anisotropic XC          0.013082192476 Eh    ::
         :: -> dispersion             -0.002169670473 Eh    ::
         :: -> Gsolv                  -0.107850128545 Eh    ::
         ::    -> Gelec               -0.101211417049 Eh    ::
         ::    -> Gsasa               -0.005776275975 Eh    ::
         ::    -> Ghb                 -0.001943195219 Eh    ::
         ::    -> Gshift               0.001080759698 Eh    ::
         :: repulsion energy           0.143167474380 Eh    ::
         :: add. restraining           0.000000000000 Eh    ::
         :: total charge              -1.000000000000 e     ::
         :::::::::::::::::::::::::::::::::::::::::::::::::::::

      ----------------------------------------------------------- 
     |                   =====================                   |
     |                        A N C O P T                        |
     |                   =====================                   |
     |               Approximate Normal Coordinate               |
     |                Rational Function Optimizer                |
      ----------------------------------------------------------- 
      ----------------------------------------------------------- 
     |                   =====================                   |
     |                        A N C O P T                        |
     |                   =====================                   |
     |               Approximate Normal Coordinate               |
     |                Rational Function Optimizer                |
      ----------------------------------------------------------- 

          ...................................................
          :                      SETUP                      :
          :.................................................:
          :   optimization level            normal          :
          :   max. optcycles                   200          :
          :   ANC micro-cycles                  20          :
          :   degrees of freedom                 9          :
          :.................................................:
          :   RF solver                   davidson          :
          :   write xtbopt.log                true          :
          :   linear?                        false          :
          :   energy convergence         0.5000000E-05 Eh   :
          :   grad. convergence          0.1000000E-02 Eh/α :
          :   maxmium RF displ.          1.0000000          :
          :   Hlow (freq-cutoff)         0.1000000E-01      :
          :   Hmax (freq-cutoff)         5.0000000          :
          :   S6 in model hess.         20.0000000          :
          ...................................................

generating ANC from exact Hessian ...
Using Lindh-Hessian (1995)
 Shifting diagonal of input Hessian by   9.541042152261548E-003
 Lowest  eigenvalues of input Hessian
    0.000000    0.000000    0.000000    0.000000    0.000000    0.000000
    0.010000    0.010623    0.098754    0.156744    0.379652    0.486422
    1.128858    1.300060    2.472339
 Highest eigenvalues
    0.156744    0.379652    0.486422    1.128858    1.300060    2.472339
 

........................................................................
.............................. CYCLE    1 ..............................
........................................................................

 iter      E             dE          RMSdq      gap      omega  full diag
   1     -8.5709826 -0.857098E+01  0.183E-06    3.39       0.0  T
   2     -8.5709826  0.532907E-14  0.112E-06    3.39   40057.1  T
   3     -8.5709826 -0.355271E-14  0.581E-07    3.39   76988.3  T
     SCC iter.                  ...        0 min,  0.000 sec
     gradient                   ...        0 min,  0.000 sec
 * total energy  :    -8.4278151 Eh     change       -0.1059952E-10 Eh
   gradient norm :     0.0452230 Eh/α   predicted     0.0000000E+00 (-100.00%)
   displ. norm   :     0.0847632 α      lambda       -0.3193595E-02
   maximum displ.:     0.0684637 α      in ANC's #5, #4, #7, ...

........................................................................
.............................. CYCLE    2 ..............................
........................................................................

 iter      E             dE          RMSdq      gap      omega  full diag
   1     -8.5913288 -0.859133E+01  0.276E-01    3.61       0.0  T
   2     -8.5913853 -0.564956E-04  0.207E-01    3.59       1.0  T
   3     -8.5914482 -0.628555E-04  0.104E-01    3.60       1.0  T
   4     -8.5914509 -0.269145E-05  0.101E-02    3.60       4.4  T
   5     -8.5914509 -0.553512E-07  0.217E-03    3.60      20.6  T
   6     -8.5914509 -0.834829E-08  0.674E-04    3.60      66.4  T
   7     -8.5914509 -0.194143E-09  0.283E-04    3.60     158.1  T
     SCC iter.                  ...        0 min,  0.001 sec
     gradient                   ...        0 min,  0.000 sec
 * total energy  :    -8.4295228 Eh     change       -0.1707701E-02 Eh
   gradient norm :     0.0112735 Eh/α   predicted    -0.1608272E-02 (  -5.82%)
   displ. norm   :     0.0140747 α      lambda       -0.7594730E-04
   maximum displ.:     0.0090750 α      in ANC's #2, #5, #4, ...

........................................................................
.............................. CYCLE    3 ..............................
........................................................................

 iter      E             dE          RMSdq      gap      omega  full diag
   1     -8.5919546 -0.859195E+01  0.651E-02    3.58       0.0  T
   2     -8.5919641 -0.953330E-05  0.392E-02    3.60       1.1  T
   3     -8.5919674 -0.330117E-05  0.150E-02    3.60       3.0  T
   4     -8.5919674  0.470543E-07  0.832E-03    3.60       5.4  T
   5     -8.5919675 -0.148614E-06  0.140E-03    3.60      32.0  T
   6     -8.5919675 -0.874984E-09  0.130E-04    3.60     343.9  T
   7     -8.5919675 -0.646594E-11  0.587E-05    3.60     762.4  T
     SCC iter.                  ...        0 min,  0.001 sec
     gradient                   ...        0 min,  0.000 sec
 * total energy  :    -8.4295624 Eh     change       -0.3959132E-04 Eh
   gradient norm :     0.0013683 Eh/α   predicted    -0.3798191E-04 (  -4.07%)
   displ. norm   :     0.0685772 α      lambda       -0.2982299E-04
   maximum displ.:     0.0675221 α      in ANC's #2, #4, #5, ...

........................................................................
.............................. CYCLE    4 ..............................
........................................................................

 iter      E             dE          RMSdq      gap      omega  full diag
   1     -8.5915210 -0.859152E+01  0.132E-01    3.57       0.0  T
   2     -8.5915259 -0.483353E-05  0.746E-02    3.59       1.0  T
   3     -8.5915252  0.687242E-06  0.340E-02    3.58       1.3  T
   4     -8.5915270 -0.186087E-05  0.675E-03    3.58       6.6  T
   5     -8.5915272 -0.156771E-06  0.181E-03    3.58      24.7  T
   6     -8.5915272 -0.484992E-09  0.169E-04    3.58     265.1  T
   7     -8.5915272 -0.665956E-11  0.702E-05    3.58     637.2  T
     SCC iter.                  ...        0 min,  0.001 sec
     gradient                   ...        0 min,  0.000 sec
 * total energy  :    -8.4294466 Eh     change        0.1158362E-03 Eh
   gradient norm :     0.0076804 Eh/α   predicted    -0.1494348E-04 (-112.90%)
   displ. norm   :     0.0398132 α      lambda       -0.1640710E-03
   maximum displ.:     0.0396712 α      in ANC's #2, #5, #9, ...

........................................................................
.............................. CYCLE    5 ..............................
........................................................................

 iter      E             dE          RMSdq      gap      omega  full diag
   1     -8.5917757 -0.859178E+01  0.760E-02    3.59       0.0  T
   2     -8.5917775 -0.180575E-05  0.431E-02    3.59       1.0  T
   3     -8.5917773  0.186265E-06  0.203E-02    3.59       2.2  T
   4     -8.5917779 -0.629678E-06  0.413E-03    3.59      10.8  T
   5     -8.5917780 -0.608725E-07  0.944E-04    3.59      47.4  T
   6     -8.5917780 -0.128528E-09  0.737E-05    3.59     607.0  T
     SCC iter.                  ...        0 min,  0.001 sec
     gradient                   ...        0 min,  0.000 sec
 * total energy  :    -8.4295553 Eh     change       -0.1087571E-03 Eh
   gradient norm :     0.0026174 Eh/α   predicted    -0.8216541E-04 ( -24.45%)
   displ. norm   :     0.0192158 α      lambda       -0.2666156E-04
   maximum displ.:     0.0190586 α      in ANC's #2, #5, #3, ...

........................................................................
.............................. CYCLE    6 ..............................
........................................................................

 iter      E             dE          RMSdq      gap      omega  full diag
   1     -8.5917017 -0.859170E+01  0.369E-02    3.59       0.0  T
   2     -8.5917021 -0.416130E-06  0.212E-02    3.59       2.1  T
   3     -8.5917020  0.582595E-07  0.106E-02    3.59       4.2  T
   4     -8.5917022 -0.187010E-06  0.207E-03    3.59      21.6  T
   5     -8.5917022 -0.151635E-07  0.479E-04    3.59      93.3  T
   6     -8.5917022 -0.395879E-10  0.364E-05    3.59    1227.7  T
     SCC iter.                  ...        0 min,  0.001 sec
     gradient                   ...        0 min,  0.000 sec
 * total energy  :    -8.4295689 Eh     change       -0.1358822E-04 Eh
   gradient norm :     0.0003321 Eh/α   predicted    -0.1333438E-04 (  -1.87%)
   displ. norm   :     0.0012959 α      lambda       -0.1663591E-06
   maximum displ.:     0.0010069 α      in ANC's #3, #6, #2, ...

........................................................................
.............................. CYCLE    7 ..............................
........................................................................

 iter      E             dE          RMSdq      gap      omega  full diag
   1     -8.5918143 -0.859181E+01  0.452E-03    3.59       0.0  T
   2     -8.5918143 -0.419536E-08  0.254E-03    3.59      17.6  T
   3     -8.5918143  0.155469E-08  0.107E-03    3.59      42.0  T
   4     -8.5918143 -0.281953E-08  0.217E-04    3.59     205.8  T
   5     -8.5918143 -0.137589E-09  0.690E-05    3.59     648.1  T
     SCC iter.                  ...        0 min,  0.000 sec
     gradient                   ...        0 min,  0.000 sec
 * total energy  :    -8.4295691 Eh     change       -0.1609532E-06 Eh
   gradient norm :     0.0002019 Eh/α   predicted    -0.8435424E-07 ( -47.59%)
   displ. norm   :     0.0020558 α      lambda       -0.1432930E-06
   maximum displ.:     0.0017475 α      in ANC's #3, #6, #1, ...

   *** GEOMETRY OPTIMIZATION CONVERGED AFTER 7 ITERATIONS ***

------------------------------------------------------------------------
 total energy gain   :        -0.0017540 Eh       -1.1006 kcal/mol
 total RMSD          :         0.0391195 a0        0.0207 Å
 total power (kW/mol):        -0.6578611 (step) -456.3039 (real)
------------------------------------------------------------------------

 ANCopt (total)                0 d,  0 h,  0 min,  0.010 sec
 optimizer setup                ...        0 min,  0.000 sec (  2.762%)
 model hessian                  ...        0 min,  0.000 sec (  1.130%)
 ANC generation                 ...        0 min,  0.000 sec (  0.753%)
 coordinate transformation      ...        0 min,  0.000 sec (  0.462%)
 single point calculation       ...        0 min,  0.009 sec ( 85.622%)
 optimization log               ...        0 min,  0.000 sec (  2.484%)
 hessian update                 ...        0 min,  0.000 sec (  0.661%)
 rational function              ...        0 min,  0.000 sec (  2.949%)

================
 final structure:
================
5
 xtb: 6.7.1 (edcfbbe)
N           -8.63241149416560       -3.34885702181985       -1.80926658510647
C           -7.70017911833248       -2.62277426077041       -1.80467191837112
C           -6.64450666537946       -1.80397674218808       -1.79826093376574
H           -5.73266565336236       -2.07191479398543       -1.28179832598276
H           -6.67241724335501       -0.85075923396125       -2.30863128171850
 
 Bond Distances (Angstroems)
 ---------------------------
N1-C2=1.1816         C2-N1=1.1816         C2-C3=1.3360         C3-C2=1.3360         C3-H4=1.0817         C3-H5=1.0816         
H4-C3=1.0817         H5-C3=1.0816         
 C  H  Rav=1.0816 sigma=0.0000  Rmin=1.0816  Rmax=1.0817     2
 C  C  Rav=1.3360 sigma=0.0000  Rmin=1.3360  Rmax=1.3360     1
 N  C  Rav=1.1816 sigma=0.0000  Rmin=1.1816  Rmax=1.1816     1
 
 selected bond angles (degree)
 --------------------
C3-C2-N1=179.87                H4-C3-C2=121.10                H5-C3-C2=121.16                H5-C3-H4=117.73                
 
 selected dihedral angles (degree)
 ---------------------------------
H4-C3-C2-N1=350.52            H5-C3-C2-N1=170.54            
           -------------------------------------------------
          |                Final Singlepoint                |
           -------------------------------------------------

          ...................................................
          :                      SETUP                      :
          :.................................................:
          :  # basis functions                  14          :
          :  # atomic orbitals                  14          :
          :  # shells                            8          :
          :  # electrons                        16          :
          :  max. iterations                   250          :
          :  Hamiltonian                  GFN2-xTB          :
          :  restarted?                      false          :
          :  GBSA solvation                   true          :
          :  PC potential                    false          :
          :  electronic temp.          300.0000000     K    :
          :  accuracy                    1.0000000          :
          :  -> integral cutoff          0.2500000E+02      :
          :  -> integral neglect         0.1000000E-07      :
          :  -> SCF convergence          0.1000000E-05 Eh   :
          :  -> wf. convergence          0.1000000E-03 e    :
          :  Broyden damping             0.4000000          :
          :  net charge                         -1          :
          :  unpaired electrons                  0          :
          ...................................................

 iter      E             dE          RMSdq      gap      omega  full diag
   1     -8.5918143 -0.859181E+01  0.961E-06    3.59       0.0  T
   2     -8.5918143 -0.248690E-13  0.600E-06    3.59    7459.3  T
   3     -8.5918143  0.355271E-14  0.304E-06    3.59   14702.5  T

   *** convergence criteria satisfied after 3 iterations ***

         #    Occupation            Energy/Eh            Energy/eV
      -------------------------------------------------------------
         1        2.0000           -0.5493149             -14.9476
         2        2.0000           -0.5210788             -14.1793
         3        2.0000           -0.4482376             -12.1972
         4        2.0000           -0.4385488             -11.9335
         5        2.0000           -0.3850640             -10.4781
         6        2.0000           -0.3667394              -9.9795
         7        2.0000           -0.3429445              -9.3320
         8        2.0000           -0.2576684              -7.0115 (HOMO)
         9                         -0.1257004              -3.4205 (LUMO)
        10                         -0.0553126              -1.5051
        11                          0.1778633               4.8399
        12                          0.3643729               9.9151
        13                          0.4079794              11.1017
        14                          1.2042524              32.7694
      -------------------------------------------------------------
                  HL-Gap            0.1319680 Eh            3.5910 eV
             Fermi-level           -0.1916844 Eh           -5.2160 eV

 SCC (total)                   0 d,  0 h,  0 min,  0.001 sec
 SCC setup                      ...        0 min,  0.000 sec ( 10.375%)
 Dispersion                     ...        0 min,  0.000 sec (  2.158%)
 classical contributions        ...        0 min,  0.000 sec (  0.711%)
 integral evaluation            ...        0 min,  0.000 sec ( 18.003%)
 iterations                     ...        0 min,  0.000 sec ( 29.213%)
 molecular gradient             ...        0 min,  0.000 sec ( 31.371%)
 printout                       ...        0 min,  0.000 sec (  5.445%)

         :::::::::::::::::::::::::::::::::::::::::::::::::::::
         ::                     SUMMARY                     ::
         :::::::::::::::::::::::::::::::::::::::::::::::::::::
         :: total energy              -8.429569063891 Eh    ::
         :: total w/o Gsasa/hb        -8.422966220507 Eh    ::
         :: gradient norm              0.000203903489 Eh/a0 ::
         :: HOMO-LUMO gap              3.591031852278 eV    ::
         ::.................................................::
         :: SCC energy                -8.591814330513 Eh    ::
         :: -> isotropic ES            0.166307458494 Eh    ::
         :: -> anisotropic ES          0.014547119111 Eh    ::
         :: -> anisotropic XC          0.012453346276 Eh    ::
         :: -> dispersion             -0.002175080487 Eh    ::
         :: -> Gsolv                  -0.108232308054 Eh    ::
         ::    -> Gelec               -0.101629464670 Eh    ::
         ::    -> Gsasa               -0.005744252515 Eh    ::
         ::    -> Ghb                 -0.001939350568 Eh    ::
         ::    -> Gshift               0.001080759698 Eh    ::
         :: repulsion energy           0.162245266623 Eh    ::
         :: add. restraining           0.000000000000 Eh    ::
         :: total charge              -1.000000000000 e     ::
         :::::::::::::::::::::::::::::::::::::::::::::::::::::

           ------------------------------------------------- 
          |                Numerical Hessian                |
           ------------------------------------------------- 
step length          :   0.00500
SCC accuracy         :   0.30000
Hessian scale factor :   1.00000
frozen atoms in %    :   0.00000    0
RMS gradient         :   0.00020
estimated CPU  time      0.00 min
estimated wall time      0.00 min

writing file <hessian>.

 projected vibrational frequencies (cm⁻¹)
eigval :       -0.00    -0.00     0.00     0.00     0.00     0.00
eigval :     -228.35   376.10   486.10   953.10  1193.39  1437.20
eigval :     2260.40  2960.82  2993.70
           -------------------------------------------------
          |                Property Printout                |
           -------------------------------------------------

    * Orbital Energies and Occupations

         #    Occupation            Energy/Eh            Energy/eV
      -------------------------------------------------------------
         1        2.0000           -0.5493149             -14.9476
         2        2.0000           -0.5210788             -14.1793
         3        2.0000           -0.4482376             -12.1972
         4        2.0000           -0.4385488             -11.9335
         5        2.0000           -0.3850640             -10.4781
         6        2.0000           -0.3667394              -9.9795
         7        2.0000           -0.3429445              -9.3320
         8        2.0000           -0.2576684              -7.0115 (HOMO)
         9                         -0.1257004              -3.4205 (LUMO)
        10                         -0.0553126              -1.5051
        11                          0.1778633               4.8399
        12                          0.3643729               9.9151
        13                          0.4079794              11.1017
        14                          1.2042524              32.7694
      -------------------------------------------------------------
                  HL-Gap            0.1319680 Eh            3.5910 eV
             Fermi-level           -0.1916844 Eh           -5.2160 eV

     #   Z          covCN         q      C6AA      α(0)
     1   7 N        0.911    -0.615    37.095     8.809
     2   6 C        1.891     0.046    29.942     8.838
     3   6 C        2.832    -0.245    34.629     9.643
     4   1 H        0.925    -0.093     5.308     3.603
     5   1 H        0.925    -0.093     5.310     3.603

 Mol. C6AA /au·bohr⁶  :        485.157588
 Mol. C8AA /au·bohr⁸  :      11144.942513
 Mol. α(0) /au        :         34.495619


Wiberg/Mayer (AO) data.
largest (>0.10) Wiberg bond orders for each atom

 ---------------------------------------------------------------------------
     #   Z sym  total        # sym  WBO       # sym  WBO       # sym  WBO
 ---------------------------------------------------------------------------
     1   7 N    2.771 --     2 C    2.427     3 C    0.285
     2   6 C    3.945 --     1 N    2.427     3 C    1.503
     3   6 C    3.697 --     2 C    1.503     5 H    0.954     4 H    0.954
                             1 N    0.285
     4   1 H    0.991 --     3 C    0.954
     5   1 H    0.991 --     3 C    0.954
 ---------------------------------------------------------------------------

Topologies differ in total number of bonds
Writing topology from bond orders to xtbtopo.mol

molecular dipole:
                 x           y           z       tot (Debye)
 q only:       14.622       5.015       3.409
   full:       15.037       5.337       3.412      41.474
molecular quadrupole (traceless):
                xx          xy          yy          xz          yz          zz
 q only:     -198.398    -114.786      87.027     -75.053     -25.362     111.371
  q+dip:     -208.406    -124.427      90.093     -76.845     -27.515     118.313
   full:     -208.991    -125.545      90.079     -76.665     -27.761     118.912

           -------------------------------------------------
          |                Geometry Summary                 |
           -------------------------------------------------

      molecular mass/u    :       40.0440565
   center of mass at/Å    :       -7.6342482      -2.5726515      -1.8038491
  moments of inertia/u·Å² :        0.1727999E+01   0.4796162E+02   0.4968961E+02
rotational constants/cm⁻¹ :        0.9755581E+01   0.3514817E+00   0.3392587E+00

 * 4 selected distances

     #   Z          #   Z                                           value/Å
     1   7 N        2   6 C                                       1.1816407
     2   6 C        3   6 C                                       1.3360072 (max)
     3   6 C        4   1 H                                       1.0816555
     3   6 C        5   1 H                                       1.0816102 (min)

 * 3 distinct bonds (by element types)

   Z      Z             #   av. dist./Å        max./Å        min./Å
   1 H    6 C           2     1.0816329     1.0816555     1.0816102
   6 C    6 C           1     1.3360072     1.3360072     1.3360072
   6 C    7 N           1     1.1816407     1.1816407     1.1816407

           -------------------------------------------------
          |               Frequency Printout                |
           -------------------------------------------------
 projected vibrational frequencies (cm⁻¹)
eigval :       -0.00    -0.00     0.00     0.00     0.00     0.00
eigval :     -228.35   376.10   486.10   953.10  1193.39  1437.20
eigval :     2260.40  2960.82  2993.70
 reduced masses (amu)
   1:  7.03   2: 13.16   3: 13.42   4:  9.73   5: 11.79   6:  4.82   7:  5.80   8:  9.49
   9:  9.66  10:  5.27  11:  9.24  12:  4.64  13: 12.53  14:  2.07  15:  1.48
 IR intensities (km·mol⁻¹)
   1:  0.61   2: 24.34   3: 26.80   4:  3.24   5: 23.30   6:  1.45   7: 87.51   8: 21.08
   9: 14.98  10:  0.40  11: 26.18  12: 16.60  13:******  14:417.17  15:245.36
 Raman intensities (Ä⁴*amu⁻¹)
   1:  0.00   2:  0.00   3:  0.00   4:  0.00   5:  0.00   6:  0.00   7:  0.00   8:  0.00
   9:  0.00  10:  0.00  11:  0.00  12:  0.00  13:  0.00  14:  0.00  15:  0.00
 output can be read by thermo (or use thermo option).
 writing <g98.out> molden fake output.
 recommended (thermochemical) frequency scaling factor: 1.0
           -------------------------------------------------
          |             Thermodynamic Functions             |
           -------------------------------------------------

Refinement of some symmetry elements was terminated before convergence was reached.
Some symmetry elements may remain unidentified.
Molecule has the following symmetry elements: (C2) (sigma) 
WARNING: These symmetry elements match no point group I know of. Sorry.
Trying fallback mode to highest recognized Axis...
c2  symmetry found (for desy threshold:  0.10E+00) used in thermo

          ...................................................
          :                      SETUP                      :
          :.................................................:
          :  # frequencies                           8      :
          :  # imaginary freq.                       1      :
          :  linear?                             false      :
          :  only rotor calc.                    false      :
          :  symmetry                               c2      :
          :  rotational number                       2      :
          :  scaling factor                  1.0000000      :
          :  rotor cutoff                   50.0000000 cm⁻¹ :
          :  imag. cutoff                  -20.0000000 cm⁻¹ :
          :.................................................:

    mode    ω/cm⁻¹     T·S(HO)/kcal·mol⁻¹    T·S(FR)/kcal·mol⁻¹   T·S(vib)
   ------------------------------------------------------------------------
   ------------------------------------------------------------------------

   temp. (K)  partition function   enthalpy   heat capacity  entropy
                                   cal/mol     cal/K/mol   cal/K/mol   J/K/mol
 298.15  VIB   1.34                  399.013      3.540      1.920
         ROT  0.245E+04              888.752      2.981     18.490
         INT  0.328E+04             1287.765      6.521     20.410
         TR   0.245E+27             1481.254      4.968     36.973
         TOT                        2769.0194    11.4895    57.3835   240.0924

       T/K    H(0)-H(T)+PV         H(T)/Eh          T*S/Eh         G(T)/Eh
   ------------------------------------------------------------------------
    298.15    0.441271E-02    0.332562E-01    0.272647E-01    0.599143E-02
   ------------------------------------------------------------------------

         :::::::::::::::::::::::::::::::::::::::::::::::::::::
         ::                  THERMODYNAMIC                  ::
         :::::::::::::::::::::::::::::::::::::::::::::::::::::
         :: total free energy          -8.423577637011 Eh   ::
         ::.................................................::
         :: total energy               -8.429569063873 Eh   ::
         :: zero point energy           0.028843446661 Eh   ::
         :: G(RRHO) w/o ZPVE           -0.022852019799 Eh   ::
         :: G(RRHO) contrib.            0.005991426862 Eh   ::
         :::::::::::::::::::::::::::::::::::::::::::::::::::::
imag cut-off (cm-1) :    5.00
 found            1  significant imaginary frequency
 writing imag mode distorted coords to xtbhess.xyz
 for further optimization.

optimized geometry written to: xtbopt.xyz


           -------------------------------------------------
          | TOTAL ENERGY               -8.429569063873 Eh   |
          | TOTAL ENTHALPY             -8.396312903945 Eh   |
          | TOTAL FREE ENERGY          -8.423577637011 Eh   |
          | GRADIENT NORM               0.000203907816 Eh/α |
          | HOMO-LUMO GAP               3.591032065879 eV   |
           -------------------------------------------------

------------------------------------------------------------------------
 * finished run on 2025/10/17 at 21:45:31.171     
------------------------------------------------------------------------
 total:
 * wall-time:     0 d,  0 h,  0 min,  0.300 sec
 *  cpu-time:     0 d,  0 h,  0 min,  0.345 sec
 * ratio c/w:     1.148 speedup
 SCF:
 * wall-time:     0 d,  0 h,  0 min,  0.024 sec
 *  cpu-time:     0 d,  0 h,  0 min,  0.030 sec
 * ratio c/w:     1.248 speedup
 ANC optimizer:
 * wall-time:     0 d,  0 h,  0 min,  0.105 sec
 *  cpu-time:     0 d,  0 h,  0 min,  0.117 sec
 * ratio c/w:     1.115 speedup
 analytical hessian:
 * wall-time:     0 d,  0 h,  0 min,  0.044 sec
 *  cpu-time:     0 d,  0 h,  0 min,  0.064 sec
 * ratio c/w:     1.448 speedup

