5
 energy: -8.429569063891 gnorm: 0.000203903489 xtb: 6.7.1 (edcfbbe)
N           -8.63243534409696       -3.34881498030078       -1.80923060743398
C           -7.70019915048782       -2.62273709240059       -1.80464046205701
C           -6.64452238796830       -1.80394509012960       -1.79823459151497
H           -5.73268097608866       -2.07188701492339       -1.28177469902138
H           -6.67242975644716       -0.85072832653282       -2.30860650571595
