5
 energy: -8.427815101367 gnorm: 0.045223130766 xtb: 6.7.1 (edcfbbe)
N           -8.65426403456430       -3.36885642858181       -1.80834126785780
C           -7.71320406355432       -2.63037677014919       -1.80568376953849
C           -6.62948094707820       -1.79160935756193       -1.79906600951632
H           -5.71759420084580       -2.07410365663549       -1.27435444358598
H           -6.66763692855228       -0.83333583979660       -2.31518355444600
5
 energy: -8.429522802482 gnorm: 0.011273703583 xtb: 6.7.1 (edcfbbe)
N           -8.62992536198130       -3.34928766948639       -1.80856528329229
C           -7.70178476632757       -2.62165770212659       -1.80461955341779
C           -6.64143706718156       -1.80110040794458       -1.79897736395587
H           -5.73326514942184       -2.07779036720398       -1.27939986193037
H           -6.67576782968264       -0.84844590596349       -2.31106698234827
5
 energy: -8.429562393798 gnorm: 0.001397043248 xtb: 6.7.1 (edcfbbe)
N           -8.63042290399913       -3.34902208786411       -1.80815941107883
C           -7.69900475498560       -2.62209791477885       -1.80836253263410
C           -6.64363079204283       -1.80268311535599       -1.79851540576796
H           -5.73495482641932       -2.07485188903133       -1.27968651816372
H           -6.67416689714802       -0.84962704569475       -2.30790517729998
5
 energy: -8.429446557634 gnorm: 0.007957198428 xtb: 6.7.1 (edcfbbe)
N           -8.63213559680480       -3.34947101777820       -1.81298388540917
C           -7.70591261569878       -2.61356226171784       -1.77992736962538
C           -6.64466975256569       -1.80561756995265       -1.80028123721144
H           -5.72872201542931       -2.07292562043479       -1.29227739169064
H           -6.67074019409633       -0.85670558284153       -2.31715916100796
5
 energy: -8.429555314721 gnorm: 0.002698949610 xtb: 6.7.1 (edcfbbe)
N           -8.63218155452314       -3.34944124553059       -1.81033552578120
C           -7.70229585000762       -2.61946866142173       -1.79658574484577
C           -6.64461907227002       -1.80445373390307       -1.79907213065053
H           -5.73158302788565       -2.07233924829069       -1.28537733973685
H           -6.67150066990847       -0.85257916357894       -2.31125830393025
5
 energy: -8.429568902937 gnorm: 0.000333327330 xtb: 6.7.1 (edcfbbe)
N           -8.63236032300061       -3.34923186966018       -1.80916205725891
C           -7.70043566282364       -2.62250282201402       -1.80456240743010
C           -6.64448959652869       -1.80388526827679       -1.79839459270513
H           -5.73274497112588       -2.07206188105190       -1.28190972511178
H           -6.67214962111608       -0.85060021172212       -2.30860026243866
5
 energy: -8.429569063890 gnorm: 0.000203975476 xtb: 6.7.1 (edcfbbe)
N           -8.63241149416560       -3.34885702181985       -1.80926658510647
C           -7.70017911833248       -2.62277426077041       -1.80467191837112
C           -6.64450666537946       -1.80397674218808       -1.79826093376574
H           -5.73266565336236       -2.07191479398543       -1.28179832598276
H           -6.67241724335501       -0.85075923396125       -2.30863128171850
