 Entering Gaussian System
 *********************************************
 Gaussian 98:
 frequency output generated by the xtb code
 *********************************************
                         Standard orientation:
 --------------------------------------------------------------------
  Center     Atomic     Atomic              Coordinates (Angstroms)
  Number     Number      Type              X           Y           Z
 --------------------------------------------------------------------
    1          6             0       -0.266433   -0.928532    0.906357
    2          6             0       -0.384410   -0.787940   -0.663574
    3         17             0       -1.864273   -1.231288    1.575562
    4          1             0        0.385512   -1.757494    1.183784
    5         17             0        0.396705    0.553214    1.580412
    6          8             0       -1.071579    0.147626   -1.079150
    7          8             0        0.237168   -1.654475   -1.287600
 --------------------------------------------------------------------
     1 basis functions        1 primitive gaussians
     1 alpha electrons        1 beta electrons
 
 Harmonic frequencies (cm**-1), IR intensities (km*mol⁻¹),
 Raman scattering activities (A**4/amu), Raman depolarization ratios,
 reduced masses (AMU), force constants (mDyne/A) and normal coordinates:
                      1                      2                      3
                        a                      a                      a 
 Frequencies --   -19.2013               141.9681               183.7888
 Red. masses --    19.8078                27.1455                21.9622
 Frc consts  --     0.0000                 0.0000                 0.0000
 IR Inten    --     0.9195                12.2425                 1.6266
 Raman Activ --     0.0000                 0.0000                 0.0000
 Depolar     --     0.0000                 0.0000                 0.0000
 Atom AN      X      Y      Z        X      Y      Z        X      Y      Z
   1   6    -0.09  -0.07  -0.00    -0.20  -0.16  -0.00     0.11  -0.14   0.21
   2   6    -0.01  -0.01  -0.00     0.07   0.05  -0.00     0.06  -0.07   0.28
   3  17    -0.18   0.25   0.07    -0.17  -0.12   0.51    -0.14  -0.05  -0.39
   4   1    -0.05  -0.04  -0.00    -0.05  -0.04  -0.00     0.02  -0.03   0.13
   5  17     0.20  -0.24  -0.07    -0.17  -0.13  -0.50     0.08   0.13  -0.40
   6   8    -0.46  -0.34   0.01     0.40   0.30   0.00    -0.02   0.03   0.67
   7   8     0.54   0.40  -0.01     0.22   0.17  -0.02    -0.04   0.05   0.03
                      4                      5                      6
                        a                      a                      a 
 Frequencies --   246.6488               402.8970               621.0391
 Red. masses --    27.5658                24.3741                16.9827
 Frc consts  --     0.0000                 0.0000                 0.0000
 IR Inten    --     1.2110                 7.3862                 5.0146
 Raman Activ --     0.0000                 0.0000                 0.0000
 Depolar     --     0.0000                 0.0000                 0.0000
 Atom AN      X      Y      Z        X      Y      Z        X      Y      Z
   1   6     0.18  -0.23  -0.06    -0.01   0.02  -0.09     0.54   0.37   0.03
   2   6     0.11  -0.15  -0.07    -0.14   0.19   0.17     0.44   0.33   0.01
   3  17     0.30   0.47   0.08     0.40   0.14  -0.19    -0.29  -0.05   0.14
   4   1     0.05  -0.06   0.02     0.01  -0.02  -0.13     0.09   0.06   0.01
   5  17    -0.52  -0.17   0.09    -0.24  -0.38  -0.21    -0.11  -0.26  -0.14
   6   8     0.05  -0.08   0.26    -0.12   0.16  -0.06    -0.12  -0.10  -0.04
   7   8     0.01  -0.03  -0.40     0.00   0.01   0.62    -0.14  -0.06  -0.01
                      7                      8                      9
                        a                      a                      a 
 Frequencies --   649.5352               753.5342               762.0539
 Red. masses --    14.1894                14.2051                12.7847
 Frc consts  --     0.0000                 0.0000                 0.0000
 IR Inten    --    85.0919                16.2440                17.6715
 Raman Activ --     0.0000                 0.0000                 0.0000
 Depolar     --     0.0000                 0.0000                 0.0000
 Atom AN      X      Y      Z        X      Y      Z        X      Y      Z
   1   6    -0.12   0.23  -0.48     0.46  -0.64  -0.06    -0.46  -0.33   0.00
   2   6     0.07  -0.04  -0.37    -0.09   0.13  -0.22     0.59   0.43  -0.01
   3  17    -0.08  -0.03   0.07    -0.21   0.02   0.05     0.13   0.01  -0.01
   4   1    -0.04   0.06  -0.14     0.14  -0.19  -0.08    -0.13  -0.09   0.01
   5  17     0.03   0.03   0.05     0.03   0.22   0.06     0.04   0.11   0.01
   6   8    -0.15   0.20   0.47    -0.15   0.20  -0.12    -0.17  -0.12   0.00
   7   8     0.27  -0.38   0.12     0.05  -0.07   0.22    -0.17  -0.12   0.00
                     10                     11                     12
                        a                      a                      a 
 Frequencies --   822.0786              1117.4731              1160.9066
 Red. masses --    11.9256                 3.6044                 1.9847
 Frc consts  --     0.0000                 0.0000                 0.0000
 IR Inten    --   124.1393                 1.4456                50.7667
 Raman Activ --     0.0000                 0.0000                 0.0000
 Depolar     --     0.0000                 0.0000                 0.0000
 Atom AN      X      Y      Z        X      Y      Z        X      Y      Z
   1   6    -0.05   0.08   0.64    -0.07   0.09   0.43     0.19   0.15   0.00
   2   6    -0.05   0.05  -0.52     0.02  -0.01  -0.04    -0.04  -0.03   0.00
   3  17     0.12   0.00  -0.06    -0.02   0.02  -0.02     0.06  -0.04   0.00
   4   1    -0.04   0.06   0.36     0.15  -0.18  -0.85    -0.76  -0.60  -0.00
   5  17    -0.03  -0.12  -0.06    -0.02   0.03  -0.02    -0.03   0.06  -0.00
   6   8    -0.17   0.23  -0.02     0.01  -0.01   0.05     0.00   0.00   0.00
   7   8     0.13  -0.18  -0.01     0.06  -0.08  -0.09     0.01   0.01  -0.00
                     13                     14                     15
                        a                      a                      a 
 Frequencies --  1295.4199              1750.9848              2977.1099
 Red. masses --    14.6632                13.1909                 1.7881
 Frc consts  --     0.0000                 0.0000                 0.0000
 IR Inten    --   353.1202               703.7848                 1.4091
 Raman Activ --     0.0000                 0.0000                 0.0000
 Depolar     --     0.0000                 0.0000                 0.0000
 Atom AN      X      Y      Z        X      Y      Z        X      Y      Z
   1   6    -0.00   0.01  -0.02    -0.01   0.02  -0.00     0.16  -0.20   0.07
   2   6    -0.03   0.04  -0.57     0.49  -0.67  -0.07     0.01  -0.01  -0.00
   3  17    -0.00   0.00  -0.00    -0.00  -0.00   0.00     0.00  -0.00  -0.00
   4   1     0.01  -0.01  -0.05     0.01  -0.01  -0.05    -0.58   0.73  -0.25
   5  17    -0.00   0.00  -0.00     0.00   0.00   0.00    -0.00  -0.00  -0.00
   6   8     0.32  -0.43   0.22    -0.22   0.30  -0.13    -0.00   0.00   0.00
   7   8    -0.28   0.40   0.31    -0.19   0.27   0.20    -0.00   0.00   0.00
