      -----------------------------------------------------------      
     |                   =====================                   |     
     |                           x T B                           |     
     |                   =====================                   |     
     |                         S. Grimme                         |     
     |          Mulliken Center for Theoretical Chemistry        |     
     |                    University of Bonn                     |     
      -----------------------------------------------------------      

   * xtb version 6.7.1 (edcfbbe) compiled by 'albert@albert-system' on 2024-07-22

   xtb is free software: you can redistribute it and/or modify it under
   the terms of the GNU Lesser General Public License as published by
   the Free Software Foundation, either version 3 of the License, or
   (at your option) any later version.
   
   xtb is distributed in the hope that it will be useful,
   but WITHOUT ANY WARRANTY; without even the implied warranty of
   MERCHANTABILITY or FITNESS FOR A PARTICULAR PURPOSE.  See the
   GNU Lesser General Public License for more details.
   
   Cite this work as:
   * C. Bannwarth, E. Caldeweyher, S. Ehlert, A. Hansen, P. Pracht,
     J. Seibert, S. Spicher, S. Grimme, WIREs Comput. Mol. Sci., 2020, 11,
     e01493. DOI: 10.1002/wcms.1493
   
   for GFN2-xTB:
   * C. Bannwarth, S. Ehlert and S. Grimme., J. Chem. Theory Comput., 2019,
     15, 1652-1671. DOI: 10.1021/acs.jctc.8b01176
   for GFN1-xTB:
   * S. Grimme, C. Bannwarth, P. Shushkov, J. Chem. Theory Comput., 2017,
     13, 1989-2009. DOI: 10.1021/acs.jctc.7b00118
   for GFN0-xTB:
   * P. Pracht, E. Caldeweyher, S. Ehlert, S. Grimme, ChemRxiv, 2019, preprint.
     DOI: 10.26434/chemrxiv.8326202.v1
   for GFN-FF:
   * S. Spicher and S. Grimme, Angew. Chem. Int. Ed., 2020, 59, 15665-15673.
     DOI: 10.1002/anie.202004239
   
   for ALPB and GBSA implicit solvation:
   * S. Ehlert, M. Stahn, S. Spicher, S. Grimme, J. Chem. Theory Comput.,
     2021, 17, 4250-4261. DOI: 10.1021/acs.jctc.1c00471
   
   for ddCOSMO and CPCM-X implicit solvation:
   * M. Stahn, S. Ehlert, S. Grimme, J. Phys. Chem. A,
     2023, XX, XXXX-XXXX. DOI: 10.1021/acs.jpca.3c04382
   
   for DFT-D4:
   * E. Caldeweyher, C. Bannwarth and S. Grimme, J. Chem. Phys., 2017,
     147, 034112. DOI: 10.1063/1.4993215
   * E. Caldeweyher, S. Ehlert, A. Hansen, H. Neugebauer, S. Spicher,
     C. Bannwarth and S. Grimme, J. Chem. Phys., 2019, 150, 154122.
     DOI: 10.1063/1.5090222
   * E. Caldeweyher, J.-M. Mewes, S. Ehlert and S. Grimme, Phys. Chem. Chem. Phys.
     2020, 22, 8499-8512. DOI: 10.1039/D0CP00502A
   
   for sTDA-xTB:
   * S. Grimme and C. Bannwarth, J. Chem. Phys., 2016, 145, 054103.
     DOI: 10.1063/1.4959605
   
   in the mass-spec context:
   * V. Asgeirsson, C. Bauer and S. Grimme, Chem. Sci., 2017, 8, 4879.
     DOI: 10.1039/c7sc00601b
   * J. Koopman and S. Grimme, ACS Omega 2019, 4, 12, 15120-15133.
     DOI: 10.1021/acsomega.9b02011
   
   for metadynamics refer to:
   * S. Grimme, J. Chem. Theory Comput., 2019, 155, 2847-2862
     DOI: 10.1021/acs.jctc.9b00143
   
   for SPH calculations refer to:
   * S. Spicher and S. Grimme, J. Chem. Theory Comput., 2021, 17, 1701-1714
     DOI: 10.1021/acs.jctc.0c01306
   
   for ONIOM refer to:
   * C. Plett, A. Katbashev, S. Ehlert, S. Grimme, M. Bursch,
     Phys. Chem. Chem. Phys., 2023, 25, 17860-17868. DOI: 10.1039/D3CP02178E
   
   for DIPRO refer to:
   * J. Kohn, N. Gildemeister, S. Grimme, D. Fazzi, A. Hansen,
     J. Chem. Phys., 2023, just accepted.
   
   for PTB refer to:
   * S. Grimme, M. Mueller, A. Hansen, J. Chem. Phys., 2023, 158, 124111.
     DOI: 10.1063/5.0137838
   
   with help from (in alphabetical order)
   P. Atkinson, C. Bannwarth, F. Bohle, G. Brandenburg, E. Caldeweyher
   M. Checinski, S. Dohm, S. Ehlert, S. Ehrlich, I. Gerasimov, C. Hölzer
   A. Katbashev, J. Kohn, J. Koopman, C. Lavigne, S. Lehtola, F. März, M. Müller,
   F. Musil, H. Neugebauer, J. Pisarek, C. Plett, P. Pracht, F. Pultar,
   J. Seibert, P. Shushkov, S. Spicher, M. Stahn, M. Steiner, T. Strunk,
   J. Stückrath, T. Rose, and J. Unsleber
   
 * started run on 2025/10/18 at 21:14:43.974     
   ID    Z sym.   atoms
    1    6 C      1, 2
    2   17 Cl     3, 5
    3    1 H      4
    4    8 O      6, 7

           -------------------------------------------------
          |                Calculation Setup                |
           -------------------------------------------------

          program call               : xtb xyz.xyz --alpb water --charge -1 --ohess
          hostname                   : m003
          coordinate file            : xyz.xyz
          omp threads                :                     2


molecular fragmentation (1/2 indicates fragments):
1211122
# atoms in fragment 1/2:     4     3
 fragment masses (1/2) :       83.92       44.01
CMA distance (Bohr)    :   6.321
constraining FC (au)   :  0.0500

           -------------------------------------------------
          |                 G F N 2 - x T B                 |
           -------------------------------------------------

        Reference                      10.1021/acs.jctc.8b01176
      * Hamiltonian:
        H0-scaling (s, p, d)           1.850000    2.230000    2.230000
        zeta-weighting                 0.500000
      * Dispersion:
        s8                             2.700000
        a1                             0.520000
        a2                             5.000000
        s9                             5.000000
      * Repulsion:
        kExp                           1.500000    1.000000
        rExp                           1.000000
      * Coulomb:
        alpha                          2.000000
        third order                    shell-resolved
        anisotropic                    true
        a3                             3.000000
        a5                             4.000000
        cn-shift                       1.200000
        cn-exp                         4.000000
        max-rad                        5.000000

      * Solvation model:               ALPB
        Solvent                        water
        Parameter file                 internal GFN2-xTB/ALPB
        Dielectric constant                8.0200E+01
        Reference state                gsolv [1 M gas/solution]
        Free energy shift                  1.0808E-03 Eh       6.7819E-01 kcal/mol
        Temperature                        2.9815E+02 K
        Density                            1.0000E+00 kg/L
        Solvent mass                       1.8000E+01 g/mol
        Interaction kernel             P16
        Born radius scaling (c1)           1.4744E+00
        Born radii integrator          GBOBC
        Born offset                        0.0000E+00 a0       0.0000E+00 AA
        H-bond correction              true
        Ion screening                  false
        Surface tension                    1.0000E-05 Eh       1.5569E+01 dyn/cm
        Grid points                               230 per atom

          ...................................................
          :                      SETUP                      :
          :.................................................:
          :  # basis functions                  37          :
          :  # atomic orbitals                  35          :
          :  # shells                           15          :
          :  # electrons                        36          :
          :  max. iterations                   250          :
          :  Hamiltonian                  GFN2-xTB          :
          :  restarted?                      false          :
          :  GBSA solvation                   true          :
          :  PC potential                    false          :
          :  electronic temp.          300.0000000     K    :
          :  accuracy                    1.0000000          :
          :  -> integral cutoff          0.2500000E+02      :
          :  -> integral neglect         0.1000000E-07      :
          :  -> SCF convergence          0.1000000E-05 Eh   :
          :  -> wf. convergence          0.1000000E-03 e    :
          :  Broyden damping             0.4000000          :
          :  net charge                         -1          :
          :  unpaired electrons                  0          :
          ...................................................

 iter      E             dE          RMSdq      gap      omega  full diag
   1    -22.3692668 -0.223693E+02  0.722E+00    3.74       0.0  T
   2    -22.4342193 -0.649525E-01  0.385E+00    1.83       1.0  T
   3    -22.4374947 -0.327543E-02  0.204E+00    1.69       1.0  T
   4    -22.4396616 -0.216693E-02  0.559E-01    1.15       1.0  T
   5    -22.4399870 -0.325352E-03  0.414E-01    1.45       1.0  T
   6    -22.4403101 -0.323087E-03  0.274E-01    1.33       1.0  T
   7    -22.4404489 -0.138822E-03  0.158E-01    1.50       1.0  T
   8    -22.4405163 -0.674481E-04  0.373E-02    1.39       1.0  T
   9    -22.4405216 -0.531980E-05  0.146E-02    1.41       2.6  T
  10    -22.4405219 -0.248424E-06  0.663E-03    1.42       5.7  T
  11    -22.4405220 -0.614712E-07  0.217E-03    1.41      17.4  T
  12    -22.4405220 -0.761903E-08  0.359E-04    1.41     105.4  T
  13    -22.4405220 -0.861711E-10  0.208E-04    1.41     181.3  T

   *** convergence criteria satisfied after 13 iterations ***

         #    Occupation            Energy/Eh            Energy/eV
      -------------------------------------------------------------
         1        2.0000           -1.0481927             -28.5228
       ...           ...                  ...                  ...
        12        2.0000           -0.4793630             -13.0441
        13        2.0000           -0.4707155             -12.8088
        14        2.0000           -0.4379987             -11.9186
        15        2.0000           -0.4125710             -11.2266
        16        2.0000           -0.4047050             -11.0126
        17        2.0000           -0.4034632             -10.9788
        18        2.0000           -0.2607234              -7.0946 (HOMO)
        19                         -0.2087648              -5.6808 (LUMO)
        20                         -0.2051725              -5.5830
        21                         -0.1263586              -3.4384
        22                         -0.0588990              -1.6027
        23                          0.0404693               1.1012
       ...                                ...                  ...
        35                          1.3778968              37.4945
      -------------------------------------------------------------
                  HL-Gap            0.0519586 Eh            1.4139 eV
             Fermi-level           -0.2347541 Eh           -6.3880 eV

 SCC (total)                   0 d,  0 h,  0 min,  0.035 sec
 SCC setup                      ...        0 min,  0.000 sec (  0.625%)
 Dispersion                     ...        0 min,  0.000 sec (  0.127%)
 classical contributions        ...        0 min,  0.000 sec (  0.057%)
 integral evaluation            ...        0 min,  0.029 sec ( 83.305%)
 iterations                     ...        0 min,  0.004 sec ( 12.157%)
 molecular gradient             ...        0 min,  0.001 sec (  3.414%)
 printout                       ...        0 min,  0.000 sec (  0.241%)

         :::::::::::::::::::::::::::::::::::::::::::::::::::::
         ::                     SUMMARY                     ::
         :::::::::::::::::::::::::::::::::::::::::::::::::::::
         :: total energy             -22.285263142882 Eh    ::
         :: total w/o Gsasa/hb       -22.288520645756 Eh    ::
         :: gradient norm              0.089028240156 Eh/a0 ::
         :: HOMO-LUMO gap              1.413865094836 eV    ::
         ::.................................................::
         :: SCC energy               -22.440516469503 Eh    ::
         :: -> isotropic ES            0.158241824664 Eh    ::
         :: -> anisotropic ES         -0.011202333185 Eh    ::
         :: -> anisotropic XC         -0.009043570996 Eh    ::
         :: -> dispersion             -0.006032962584 Eh    ::
         :: -> Gsolv                  -0.085695931637 Eh    ::
         ::    -> Gelec               -0.088953434511 Eh    ::
         ::    -> Gsasa                0.003646273340 Eh    ::
         ::    -> Ghb                 -0.001469530165 Eh    ::
         ::    -> Gshift               0.001080759698 Eh    ::
         :: repulsion energy           0.155253326621 Eh    ::
         :: add. restraining           0.000000000000 Eh    ::
         :: total charge              -1.000000000000 e     ::
         :::::::::::::::::::::::::::::::::::::::::::::::::::::

      ----------------------------------------------------------- 
     |                   =====================                   |
     |                        A N C O P T                        |
     |                   =====================                   |
     |               Approximate Normal Coordinate               |
     |                Rational Function Optimizer                |
      ----------------------------------------------------------- 
      ----------------------------------------------------------- 
     |                   =====================                   |
     |                        A N C O P T                        |
     |                   =====================                   |
     |               Approximate Normal Coordinate               |
     |                Rational Function Optimizer                |
      ----------------------------------------------------------- 

          ...................................................
          :                      SETUP                      :
          :.................................................:
          :   optimization level            normal          :
          :   max. optcycles                   200          :
          :   ANC micro-cycles                  20          :
          :   degrees of freedom                15          :
          :.................................................:
          :   RF solver                   davidson          :
          :   write xtbopt.log                true          :
          :   linear?                        false          :
          :   energy convergence         0.5000000E-05 Eh   :
          :   grad. convergence          0.1000000E-02 Eh/α :
          :   maxmium RF displ.          1.0000000          :
          :   Hlow (freq-cutoff)         0.1000000E-01      :
          :   Hmax (freq-cutoff)         5.0000000          :
          :   S6 in model hess.         20.0000000          :
          ...................................................

generating ANC from exact Hessian ...
Using Lindh-Hessian (1995)
 Shifting diagonal of input Hessian by   9.606519110660473E-003
 Lowest  eigenvalues of input Hessian
    0.000000    0.000000    0.000000    0.000000    0.000000    0.000000
    0.010000    0.010270    0.010597    0.010994    0.011126    0.011442
    0.043382    0.114211    0.173050    0.568612    1.137710    1.251750
 Highest eigenvalues
    0.568612    1.137710    1.251750    1.283646    1.544273    3.264226
 

........................................................................
.............................. CYCLE    1 ..............................
........................................................................

 iter      E             dE          RMSdq      gap      omega  full diag
   1    -22.4405220 -0.224405E+02  0.442E-05    1.41       0.0  T
   2    -22.4405220 -0.194689E-11  0.379E-05    1.41     997.6  T
   3    -22.4405220 -0.544986E-11  0.178E-05    1.41    2129.0  T
     SCC iter.                  ...        0 min,  0.001 sec
     gradient                   ...        0 min,  0.001 sec
 * total energy  :   -22.2852631 Eh     change       -0.1668319E-09 Eh
   gradient norm :     0.0890274 Eh/α   predicted     0.0000000E+00 (-100.00%)
   displ. norm   :     0.6736905 α      lambda       -0.4514695E-01
   maximum displ.:     0.6664160 α      in ANC's #7, #10, #6, ...

........................................................................
.............................. CYCLE    2 ..............................
........................................................................

 iter      E             dE          RMSdq      gap      omega  full diag
   1    -22.4518089 -0.224518E+02  0.244E+00    2.79       0.0  T
   2    -22.4540315 -0.222258E-02  0.131E+00    3.14       1.0  T
   3    -22.4542622 -0.230671E-03  0.448E-01    3.19       1.0  T
   4    -22.4543341 -0.719640E-04  0.126E-01    3.25       1.0  T
   5    -22.4542760  0.581541E-04  0.128E-01    3.15       1.0  T
   6    -22.4543576 -0.815993E-04  0.333E-02    3.19       1.1  T
   7    -22.4543486  0.894929E-05  0.506E-02    3.18       1.0  T
   8    -22.4543588 -0.101711E-04  0.187E-02    3.19       2.0  T
   9    -22.4543603 -0.148938E-05  0.549E-03    3.19       6.9  T
  10    -22.4543604 -0.114950E-06  0.230E-03    3.19      16.5  T
  11    -22.4543604 -0.206157E-07  0.638E-04    3.19      59.3  T
  12    -22.4543604 -0.880089E-09  0.233E-04    3.19     162.6  T
     SCC iter.                  ...        0 min,  0.003 sec
     gradient                   ...        0 min,  0.001 sec
 * total energy  :   -22.3182562 Eh     change       -0.3299302E-01 Eh
   gradient norm :     0.0470471 Eh/α   predicted    -0.3281858E-01 (  -0.53%)
   displ. norm   :     0.5393830 α      lambda       -0.6811867E-02
   maximum displ.:     0.5250056 α      in ANC's #3, #7, #4, ...

........................................................................
.............................. CYCLE    3 ..............................
........................................................................

 iter      E             dE          RMSdq      gap      omega  full diag
   1    -22.4582973 -0.224583E+02  0.113E+00    3.57       0.0  T
   2    -22.4584289 -0.131564E-03  0.685E-01    3.60       1.0  T
   3    -22.4585067 -0.777755E-04  0.180E-01    3.52       1.0  T
   4    -22.4585576 -0.509035E-04  0.123E-01    3.55       1.0  T
   5    -22.4585926 -0.350278E-04  0.451E-02    3.53       1.0  T
   6    -22.4585977 -0.505924E-05  0.219E-02    3.53       1.7  T
   7    -22.4585984 -0.717094E-06  0.590E-03    3.53       6.4  T
   8    -22.4585984 -0.285378E-07  0.408E-03    3.53       9.3  T
   9    -22.4585984 -0.267694E-07  0.148E-03    3.53      25.5  T
  10    -22.4585984 -0.339789E-08  0.720E-04    3.53      52.5  T
  11    -22.4585984 -0.828859E-09  0.173E-04    3.53     218.0  T
     SCC iter.                  ...        0 min,  0.003 sec
     gradient                   ...        0 min,  0.001 sec
 * total energy  :   -22.3208379 Eh     change       -0.2581769E-02 Eh
   gradient norm :     0.0201325 Eh/α   predicted    -0.4396829E-02 (  70.30%)
   displ. norm   :     0.1603274 α      lambda       -0.1285985E-02
   maximum displ.:     0.1065049 α      in ANC's #3, #6, #7, ...

........................................................................
.............................. CYCLE    4 ..............................
........................................................................

 iter      E             dE          RMSdq      gap      omega  full diag
   1    -22.4606271 -0.224606E+02  0.340E-01    3.37       0.0  T
   2    -22.4606632 -0.361595E-04  0.198E-01    3.34       1.0  T
   3    -22.4606686 -0.537119E-05  0.871E-02    3.38       1.0  T
   4    -22.4606783 -0.968474E-05  0.289E-02    3.37       1.3  T
   5    -22.4606796 -0.126344E-05  0.107E-02    3.37       3.5  T
   6    -22.4606798 -0.209871E-06  0.554E-03    3.37       6.8  T
   7    -22.4606799 -0.787822E-07  0.223E-03    3.37      16.9  T
   8    -22.4606799 -0.547617E-08  0.137E-03    3.37      27.6  T
   9    -22.4606799 -0.281289E-08  0.458E-04    3.37      82.4  T
  10    -22.4606799 -0.410971E-09  0.133E-04    3.37     283.4  T
     SCC iter.                  ...        0 min,  0.002 sec
     gradient                   ...        0 min,  0.001 sec
 * total energy  :   -22.3214741 Eh     change       -0.6361810E-03 Eh
   gradient norm :     0.0171429 Eh/α   predicted    -0.6595207E-03 (   3.67%)
   displ. norm   :     0.1376764 α      lambda       -0.5983372E-03
   maximum displ.:     0.1235171 α      in ANC's #6, #3, #4, ...

........................................................................
.............................. CYCLE    5 ..............................
........................................................................

 iter      E             dE          RMSdq      gap      omega  full diag
   1    -22.4595252 -0.224595E+02  0.148E-01    3.40       0.0  T
   2    -22.4595428 -0.176323E-04  0.856E-02    3.44       1.0  T
   3    -22.4595446 -0.175352E-05  0.408E-02    3.44       1.0  T
   4    -22.4595463 -0.173590E-05  0.112E-02    3.45       3.4  T
   5    -22.4595464 -0.941543E-07  0.439E-03    3.45       8.6  T
   6    -22.4595464 -0.205690E-07  0.210E-03    3.45      18.0  T
   7    -22.4595464 -0.599211E-08  0.601E-04    3.45      62.9  T
   8    -22.4595464 -0.460403E-09  0.145E-04    3.45     260.6  T
     SCC iter.                  ...        0 min,  0.002 sec
     gradient                   ...        0 min,  0.001 sec
 * total energy  :   -22.3219585 Eh     change       -0.4843893E-03 Eh
   gradient norm :     0.0167578 Eh/α   predicted    -0.3048380E-03 ( -37.07%)
   displ. norm   :     0.4082634 α      lambda       -0.1594039E-02
   maximum displ.:     0.3909029 α      in ANC's #6, #12, #8, ...

........................................................................
.............................. CYCLE    6 ..............................
........................................................................

 iter      E             dE          RMSdq      gap      omega  full diag
   1    -22.4554396 -0.224554E+02  0.537E-01    3.46       0.0  T
   2    -22.4557890 -0.349434E-03  0.300E-01    3.67       1.0  T
   3    -22.4558512 -0.621797E-04  0.150E-01    3.64       1.0  T
   4    -22.4558764 -0.252356E-04  0.351E-02    3.69       1.1  T
   5    -22.4558776 -0.123180E-05  0.222E-02    3.69       1.7  T
   6    -22.4558785 -0.887373E-06  0.961E-03    3.69       3.9  T
   7    -22.4558787 -0.133003E-06  0.355E-03    3.69      10.7  T
   8    -22.4558787 -0.270636E-07  0.168E-03    3.69      22.5  T
   9    -22.4558787 -0.452131E-08  0.569E-04    3.69      66.4  T
  10    -22.4558787 -0.466947E-09  0.383E-04    3.69      98.7  T
     SCC iter.                  ...        0 min,  0.002 sec
     gradient                   ...        0 min,  0.001 sec
 * total energy  :   -22.3235810 Eh     change       -0.1622538E-02 Eh
   gradient norm :     0.0261018 Eh/α   predicted    -0.9298605E-03 ( -42.69%)
   displ. norm   :     0.4355035 α      lambda       -0.2255164E-02
   maximum displ.:     0.4161536 α      in ANC's #6, #4, #12, ...

........................................................................
.............................. CYCLE    7 ..............................
........................................................................

 iter      E             dE          RMSdq      gap      omega  full diag
   1    -22.4513839 -0.224514E+02  0.881E-01    3.63       0.0  T
   2    -22.4525023 -0.111846E-02  0.493E-01    3.99       1.0  T
   3    -22.4528553 -0.352978E-03  0.247E-01    3.90       1.0  T
   4    -22.4529289 -0.736395E-04  0.570E-02    3.98       1.0  T
   5    -22.4529329 -0.396746E-05  0.293E-02    3.98       1.3  T
   6    -22.4529344 -0.145203E-05  0.141E-02    3.98       2.7  T
   7    -22.4529347 -0.310020E-06  0.214E-03    3.98      17.7  T
   8    -22.4529347 -0.735626E-08  0.146E-03    3.98      25.9  T
   9    -22.4529347 -0.336530E-08  0.654E-04    3.98      57.8  T
  10    -22.4529347 -0.635065E-09  0.454E-04    3.98      83.2  T
     SCC iter.                  ...        0 min,  0.003 sec
     gradient                   ...        0 min,  0.001 sec
 * total energy  :   -22.3266168 Eh     change       -0.3035771E-02 Eh
   gradient norm :     0.0456471 Eh/α   predicted    -0.1341443E-02 ( -55.81%)
   displ. norm   :     0.5122276 α      lambda       -0.5624554E-02
   maximum displ.:     0.4908512 α      in ANC's #6, #12, #3, ...

........................................................................
.............................. CYCLE    8 ..............................
........................................................................

 iter      E             dE          RMSdq      gap      omega  full diag
   1    -22.4421711 -0.224422E+02  0.154E+00    3.83       0.0  T
   2    -22.4463952 -0.422408E-02  0.924E-01    4.42       1.0  T
   3    -22.4485368 -0.214160E-02  0.419E-01    4.25       1.0  T
   4    -22.4487325 -0.195731E-03  0.109E-01    4.37       1.0  T
   5    -22.4487447 -0.122452E-04  0.607E-02    4.37       1.0  T
   6    -22.4487509 -0.619557E-05  0.278E-02    4.36       1.4  T
   7    -22.4487522 -0.123862E-05  0.548E-03    4.36       6.9  T
   8    -22.4487523 -0.758438E-07  0.225E-03    4.36      16.8  T
   9    -22.4487523 -0.381284E-08  0.119E-03    4.36      31.7  T
  10    -22.4487523 -0.224362E-08  0.534E-04    4.36      70.8  T
  11    -22.4487523 -0.546706E-09  0.126E-04    4.36     298.8  T
     SCC iter.                  ...        0 min,  0.003 sec
     gradient                   ...        0 min,  0.001 sec
 * total energy  :   -22.3341193 Eh     change       -0.7502450E-02 Eh
   gradient norm :     0.0779132 Eh/α   predicted    -0.3550147E-02 ( -52.68%)
   displ. norm   :     0.5237912 α      lambda       -0.1249492E-01
   maximum displ.:     0.4582487 α      in ANC's #6, #4, #12, ...

........................................................................
.............................. CYCLE    9 ..............................
........................................................................

 iter      E             dE          RMSdq      gap      omega  full diag
   1    -22.4351156 -0.224351E+02  0.176E+00    4.11       0.0  T
   2    -22.4427793 -0.766368E-02  0.122E+00    4.61       1.0  T
   3    -22.4465403 -0.376106E-02  0.523E-01    4.50       1.0  T
   4    -22.4467173 -0.176937E-03  0.164E-01    4.51       1.0  T
   5    -22.4467482 -0.309444E-04  0.805E-02    4.52       1.0  T
   6    -22.4467585 -0.103065E-04  0.444E-02    4.52       1.0  T
   7    -22.4467616 -0.306549E-05  0.932E-03    4.52       4.1  T
   8    -22.4467619 -0.297188E-06  0.281E-03    4.52      13.5  T
   9    -22.4467619 -0.596202E-08  0.138E-03    4.52      27.3  T
  10    -22.4467619 -0.352764E-08  0.675E-04    4.52      56.0  T
  11    -22.4467619 -0.124874E-08  0.255E-04    4.52     148.4  T
     SCC iter.                  ...        0 min,  0.003 sec
     gradient                   ...        0 min,  0.001 sec
 * total energy  :   -22.3470852 Eh     change       -0.1296591E-01 Eh
   gradient norm :     0.0887835 Eh/α   predicted    -0.7961482E-02 ( -38.60%)
   displ. norm   :     0.7322341 α      lambda       -0.4440514E-01
   maximum displ.:     0.5510535 α      in ANC's #12, #4, #6, ...

........................................................................
.............................. CYCLE   10 ..............................
........................................................................

 iter      E             dE          RMSdq      gap      omega  full diag
   1    -22.3771100 -0.223771E+02  0.200E+00    3.38       0.0  T
   2    -22.3935781 -0.164681E-01  0.153E+00    3.72       1.0  T
   3    -22.3968193 -0.324118E-02  0.804E-01    3.64       1.0  T
   4    -22.3971885 -0.369239E-03  0.322E-01    3.62       1.0  T
   5    -22.3972832 -0.947430E-04  0.205E-01    3.59       1.0  T
   6    -22.3973360 -0.527827E-04  0.104E-01    3.62       1.0  T
   7    -22.3973510 -0.149886E-04  0.690E-02    3.61       1.0  T
   8    -22.3973606 -0.954425E-05  0.912E-03    3.61       4.1  T
   9    -22.3973607 -0.153516E-06  0.462E-03    3.61       8.2  T
  10    -22.3973608 -0.474541E-07  0.161E-03    3.61      23.5  T
  11    -22.3973608 -0.729811E-08  0.661E-04    3.61      57.2  T
  12    -22.3973608 -0.911420E-09  0.432E-04    3.61      87.5  T
     SCC iter.                  ...        0 min,  0.003 sec
     gradient                   ...        0 min,  0.001 sec
 * total energy  :   -22.3238828 Eh     change        0.2320241E-01 Eh
   gradient norm :     0.2012601 Eh/α   predicted    -0.3410685E-01 (-247.00%)
   displ. norm   :     0.3928475 α      lambda       -0.6633545E-01
   maximum displ.:     0.3251545 α      in ANC's #12, #4, #6, ...

........................................................................
.............................. CYCLE   11 ..............................
........................................................................

 iter      E             dE          RMSdq      gap      omega  full diag
   1    -22.4396455 -0.224396E+02  0.108E+00    4.36       0.0  T
   2    -22.4448608 -0.521533E-02  0.803E-01    4.42       1.0  T
   3    -22.4461399 -0.127909E-02  0.393E-01    4.48       1.0  T
   4    -22.4462221 -0.821726E-04  0.160E-01    4.46       1.0  T
   5    -22.4462450 -0.229385E-04  0.896E-02    4.46       1.0  T
   6    -22.4462544 -0.939519E-05  0.490E-02    4.47       1.0  T
   7    -22.4462584 -0.395364E-05  0.299E-02    4.46       1.3  T
   8    -22.4462599 -0.152392E-05  0.337E-03    4.47      11.2  T
   9    -22.4462599 -0.448163E-08  0.127E-03    4.47      29.8  T
  10    -22.4462599 -0.290734E-08  0.612E-04    4.47      61.8  T
  11    -22.4462599 -0.904343E-09  0.274E-04    4.47     137.7  T
     SCC iter.                  ...        0 min,  0.003 sec
     gradient                   ...        0 min,  0.001 sec
 * total energy  :   -22.3592193 Eh     change       -0.3533650E-01 Eh
   gradient norm :     0.0902758 Eh/α   predicted    -0.3828649E-01 (   8.35%)
   displ. norm   :     0.5850038 α      lambda       -0.1107537E-01
   maximum displ.:     0.5388888 α      in ANC's #6, #3, #7, ...

........................................................................
.............................. CYCLE   12 ..............................
........................................................................

 iter      E             dE          RMSdq      gap      omega  full diag
   1    -22.4546371 -0.224546E+02  0.111E+00    4.28       0.0  T
   2    -22.4574977 -0.286059E-02  0.770E-01    4.21       1.0  T
   3    -22.4579504 -0.452668E-03  0.421E-01    4.23       1.0  T
   4    -22.4579823 -0.318846E-04  0.789E-02    4.22       1.0  T
   5    -22.4579904 -0.806895E-05  0.494E-02    4.22       1.0  T
   6    -22.4579934 -0.302429E-05  0.339E-02    4.22       1.1  T
   7    -22.4579962 -0.280359E-05  0.104E-02    4.22       3.6  T
   8    -22.4579964 -0.168778E-06  0.257E-03    4.22      14.7  T
   9    -22.4579964 -0.704240E-08  0.147E-03    4.22      25.7  T
  10    -22.4579964 -0.347682E-08  0.722E-04    4.22      52.3  T
  11    -22.4579964 -0.997403E-09  0.230E-04    4.22     164.5  T
     SCC iter.                  ...        0 min,  0.003 sec
     gradient                   ...        0 min,  0.001 sec
 * total energy  :   -22.3382372 Eh     change        0.2098208E-01 Eh
   gradient norm :     0.1553163 Eh/α   predicted    -0.7432828E-02 (-135.42%)
   displ. norm   :     0.4394822 α      lambda       -0.5089582E-01
   maximum displ.:     0.3733425 α      in ANC's #6, #4, #8, ...

........................................................................
.............................. CYCLE   13 ..............................
........................................................................

 iter      E             dE          RMSdq      gap      omega  full diag
   1    -22.4564158 -0.224564E+02  0.913E-01    4.53       0.0  T
   2    -22.4581192 -0.170338E-02  0.620E-01    4.54       1.0  T
   3    -22.4584457 -0.326513E-03  0.342E-01    4.54       1.0  T
   4    -22.4584600 -0.142418E-04  0.453E-02    4.53       1.0  T
   5    -22.4584644 -0.444968E-05  0.299E-02    4.54       1.3  T
   6    -22.4584659 -0.146414E-05  0.135E-02    4.54       2.8  T
   7    -22.4584663 -0.385622E-06  0.702E-03    4.54       5.4  T
   8    -22.4584663 -0.870502E-07  0.131E-03    4.54      28.9  T
   9    -22.4584663 -0.229926E-08  0.715E-04    4.54      52.9  T
  10    -22.4584663 -0.105905E-08  0.217E-04    4.54     174.5  T
     SCC iter.                  ...        0 min,  0.002 sec
     gradient                   ...        0 min,  0.001 sec
 * total energy  :   -22.3645602 Eh     change       -0.2632301E-01 Eh
   gradient norm :     0.0413639 Eh/α   predicted    -0.3036306E-01 (  15.35%)
   displ. norm   :     0.2871273 α      lambda       -0.4799560E-02
   maximum displ.:     0.1979268 α      in ANC's #6, #3, #8, ...

........................................................................
.............................. CYCLE   14 ..............................
........................................................................

 iter      E             dE          RMSdq      gap      omega  full diag
   1    -22.4603869 -0.224604E+02  0.339E-01    4.51       0.0  T
   2    -22.4605308 -0.143916E-03  0.182E-01    4.52       1.0  T
   3    -22.4605344 -0.358536E-05  0.876E-02    4.51       1.0  T
   4    -22.4605372 -0.285793E-05  0.284E-02    4.52       1.3  T
   5    -22.4605385 -0.128430E-05  0.211E-02    4.52       1.8  T
   6    -22.4605397 -0.120026E-05  0.352E-03    4.52      10.7  T
   7    -22.4605397 -0.101008E-07  0.185E-03    4.52      20.5  T
   8    -22.4605397 -0.752703E-08  0.904E-04    4.52      41.8  T
   9    -22.4605397 -0.150001E-08  0.681E-04    4.52      55.5  T
     SCC iter.                  ...        0 min,  0.002 sec
     gradient                   ...        0 min,  0.001 sec
 * total energy  :   -22.3672745 Eh     change       -0.2714335E-02 Eh
   gradient norm :     0.0460365 Eh/α   predicted    -0.2597628E-02 (  -4.30%)
   displ. norm   :     0.1156680 α      lambda       -0.1810148E-02
   maximum displ.:     0.0616143 α      in ANC's #4, #8, #3, ...

........................................................................
.............................. CYCLE   15 ..............................
........................................................................

 iter      E             dE          RMSdq      gap      omega  full diag
   1    -22.4598491 -0.224598E+02  0.212E-01    4.58       0.0  T
   2    -22.4599022 -0.530958E-04  0.129E-01    4.60       1.0  T
   3    -22.4599049 -0.272249E-05  0.599E-02    4.59       1.0  T
   4    -22.4599080 -0.311776E-05  0.266E-02    4.60       1.4  T
   5    -22.4599090 -0.102635E-05  0.168E-02    4.60       2.3  T
   6    -22.4599096 -0.585791E-06  0.794E-03    4.60       4.8  T
   7    -22.4599098 -0.168147E-06  0.277E-03    4.60      13.7  T
   8    -22.4599098 -0.228116E-07  0.171E-03    4.60      22.1  T
   9    -22.4599098 -0.941968E-08  0.105E-03    4.60      35.9  T
  10    -22.4599098 -0.421852E-08  0.739E-04    4.60      51.2  T
  11    -22.4599098 -0.313518E-08  0.183E-04    4.60     206.6  T
     SCC iter.                  ...        0 min,  0.003 sec
     gradient                   ...        0 min,  0.001 sec
 * total energy  :   -22.3682616 Eh     change       -0.9870738E-03 Eh
   gradient norm :     0.0266045 Eh/α   predicted    -0.9171850E-03 (  -7.08%)
   displ. norm   :     0.0932926 α      lambda       -0.9021156E-03
   maximum displ.:     0.0485435 α      in ANC's #5, #4, #7, ...

........................................................................
.............................. CYCLE   16 ..............................
........................................................................

 iter      E             dE          RMSdq      gap      omega  full diag
   1    -22.4632602 -0.224633E+02  0.157E-01    4.68       0.0  T
   2    -22.4632661 -0.597285E-05  0.937E-02    4.67       1.0  T
   3    -22.4632663 -0.136396E-06  0.249E-02    4.68       1.5  T
   4    -22.4632677 -0.147944E-05  0.120E-02    4.67       3.1  T
   5    -22.4632680 -0.210370E-06  0.909E-03    4.67       4.2  T
   6    -22.4632682 -0.249710E-06  0.599E-03    4.67       6.3  T
   7    -22.4632683 -0.125243E-06  0.423E-03    4.67       8.9  T
   8    -22.4632684 -0.959240E-07  0.193E-03    4.67      19.6  T
   9    -22.4632684 -0.136236E-07  0.803E-04    4.67      47.1  T
  10    -22.4632684 -0.176517E-08  0.207E-04    4.67     183.0  T
     SCC iter.                  ...        0 min,  0.002 sec
     gradient                   ...        0 min,  0.001 sec
 * total energy  :   -22.3687672 Eh     change       -0.5055791E-03 Eh
   gradient norm :     0.0241849 Eh/α   predicted    -0.4549837E-03 ( -10.01%)
   displ. norm   :     0.1031059 α      lambda       -0.5962530E-03
   maximum displ.:     0.0871823 α      in ANC's #5, #3, #8, ...

........................................................................
.............................. CYCLE   17 ..............................
........................................................................

 iter      E             dE          RMSdq      gap      omega  full diag
   1    -22.4659988 -0.224660E+02  0.175E-01    4.72       0.0  T
   2    -22.4660261 -0.272135E-04  0.104E-01    4.71       1.0  T
   3    -22.4660280 -0.195921E-05  0.461E-02    4.72       1.0  T
   4    -22.4660303 -0.227105E-05  0.232E-02    4.71       1.6  T
   5    -22.4660311 -0.855600E-06  0.189E-02    4.72       2.0  T
   6    -22.4660325 -0.135196E-05  0.104E-02    4.72       3.6  T
   7    -22.4660330 -0.497849E-06  0.629E-03    4.72       6.0  T
   8    -22.4660332 -0.173331E-06  0.350E-03    4.72      10.8  T
   9    -22.4660332 -0.503888E-07  0.117E-03    4.72      32.4  T
  10    -22.4660332 -0.315078E-08  0.609E-04    4.72      62.1  T
  11    -22.4660332 -0.720028E-09  0.208E-04    4.72     181.9  T
     SCC iter.                  ...        0 min,  0.003 sec
     gradient                   ...        0 min,  0.001 sec
 * total energy  :   -22.3689252 Eh     change       -0.1580473E-03 Eh
   gradient norm :     0.0145537 Eh/α   predicted    -0.3012942E-03 (  90.64%)
   displ. norm   :     0.0821198 α      lambda       -0.2946477E-03
   maximum displ.:     0.0792713 α      in ANC's #5, #3, #8, ...

........................................................................
.............................. CYCLE   18 ..............................
........................................................................

 iter      E             dE          RMSdq      gap      omega  full diag
   1    -22.4650465 -0.224650E+02  0.121E-01    4.68       0.0  T
   2    -22.4650569 -0.103459E-04  0.735E-02    4.69       1.0  T
   3    -22.4650577 -0.856742E-06  0.357E-02    4.68       1.1  T
   4    -22.4650599 -0.215757E-05  0.175E-02    4.69       2.2  T
   5    -22.4650604 -0.508605E-06  0.145E-02    4.69       2.6  T
   6    -22.4650614 -0.106726E-05  0.729E-03    4.69       5.2  T
   7    -22.4650617 -0.278542E-06  0.327E-03    4.69      11.6  T
   8    -22.4650618 -0.458150E-07  0.165E-03    4.69      22.8  T
   9    -22.4650618 -0.837644E-08  0.643E-04    4.69      58.8  T
  10    -22.4650618 -0.935920E-09  0.300E-04    4.69     125.9  T
     SCC iter.                  ...        0 min,  0.002 sec
     gradient                   ...        0 min,  0.001 sec
 * total energy  :   -22.3690552 Eh     change       -0.1300198E-03 Eh
   gradient norm :     0.0071125 Eh/α   predicted    -0.1483186E-03 (  14.07%)
   displ. norm   :     0.0451014 α      lambda       -0.1342587E-03
   maximum displ.:     0.0338044 α      in ANC's #4, #5, #1, ...

........................................................................
.............................. CYCLE   19 ..............................
........................................................................

 iter      E             dE          RMSdq      gap      omega  full diag
   1    -22.4640857 -0.224641E+02  0.611E-02    4.66       0.0  T
   2    -22.4640941 -0.841606E-05  0.399E-02    4.67       1.0  T
   3    -22.4640952 -0.112202E-05  0.222E-02    4.66       1.7  T
   4    -22.4640955 -0.290957E-06  0.847E-03    4.67       4.5  T
   5    -22.4640956 -0.952281E-07  0.588E-03    4.67       6.4  T
   6    -22.4640957 -0.887399E-07  0.354E-03    4.67      10.7  T
   7    -22.4640958 -0.414898E-07  0.234E-03    4.67      16.2  T
   8    -22.4640958 -0.249339E-07  0.115E-03    4.67      32.9  T
   9    -22.4640958 -0.611763E-08  0.500E-04    4.67      75.6  T
  10    -22.4640958 -0.878945E-09  0.179E-04    4.67     211.3  T
     SCC iter.                  ...        0 min,  0.002 sec
     gradient                   ...        0 min,  0.001 sec
 * total energy  :   -22.3690989 Eh     change       -0.4363923E-04 Eh
   gradient norm :     0.0115623 Eh/α   predicted    -0.6726553E-04 (  54.14%)
   displ. norm   :     0.0213428 α      lambda       -0.7206011E-04
   maximum displ.:     0.0124896 α      in ANC's #3, #6, #8, ...

........................................................................
.............................. CYCLE   20 ..............................
........................................................................

 iter      E             dE          RMSdq      gap      omega  full diag
   1    -22.4647280 -0.224647E+02  0.295E-02    4.68       0.0  T
   2    -22.4647308 -0.280496E-05  0.162E-02    4.67       2.3  T
   3    -22.4647310 -0.187234E-06  0.908E-03    4.67       4.2  T
   4    -22.4647310 -0.477594E-07  0.522E-03    4.67       7.2  T
   5    -22.4647311 -0.375046E-07  0.304E-03    4.67      12.4  T
   6    -22.4647311 -0.147301E-07  0.138E-03    4.67      27.5  T
   7    -22.4647311 -0.342021E-08  0.739E-04    4.67      51.1  T
   8    -22.4647311 -0.921673E-09  0.148E-04    4.67     255.0  T
     SCC iter.                  ...        0 min,  0.002 sec
     gradient                   ...        0 min,  0.001 sec
 * total energy  :   -22.3691532 Eh     change       -0.5430502E-04 Eh
   gradient norm :     0.0074314 Eh/α   predicted    -0.3604544E-04 ( -33.62%)
   displ. norm   :     0.0396655 α      lambda       -0.7208411E-04
   maximum displ.:     0.0233818 α      in ANC's #3, #4, #6, ...
 * RMSD in coord.:     0.9531517 α      energy gain  -0.8389005E-01 Eh

generating ANC from exact Hessian ...
Using Lindh-Hessian (1995)
 Shifting diagonal of input Hessian by   0.000000000000000E+000
 Lowest  eigenvalues of input Hessian
    0.000000    0.000000    0.000000    0.000000    0.000000    0.000000
    0.017218    0.021878    0.030329    0.053970    0.067018    0.085241
    0.123809    0.142420    0.277861    0.590615    0.856165    1.109394
 Highest eigenvalues
    0.590615    0.856165    1.109394    1.170817    1.674080    2.425730
 

........................................................................
.............................. CYCLE   21 ..............................
........................................................................

 iter      E             dE          RMSdq      gap      omega  full diag
   1    -22.4649835 -0.224650E+02  0.534E-02    4.68       0.0  T
   2    -22.4649898 -0.635380E-05  0.263E-02    4.68       1.4  T
   3    -22.4649899 -0.137976E-06  0.146E-02    4.68       2.6  T
   4    -22.4649900 -0.864020E-07  0.538E-03    4.67       7.0  T
   5    -22.4649901 -0.360704E-07  0.416E-03    4.67       9.1  T
   6    -22.4649901 -0.365243E-07  0.127E-03    4.67      29.8  T
   7    -22.4649901 -0.270295E-08  0.313E-04    4.67     120.8  T
   8    -22.4649901 -0.203652E-09  0.236E-04    4.67     160.4  T
     SCC iter.                  ...        0 min,  0.002 sec
     gradient                   ...        0 min,  0.001 sec
 * total energy  :   -22.3691968 Eh     change       -0.4357774E-04 Eh
   gradient norm :     0.0022061 Eh/α   predicted     0.0000000E+00 (-100.00%)
   displ. norm   :     0.0121782 α      lambda       -0.1027529E-04
   maximum displ.:     0.0088573 α      in ANC's #3, #4, #2, ...

........................................................................
.............................. CYCLE   22 ..............................
........................................................................

 iter      E             dE          RMSdq      gap      omega  full diag
   1    -22.4646362 -0.224646E+02  0.138E-02    4.67       0.0  T
   2    -22.4646364 -0.271385E-06  0.820E-03    4.67       4.6  T
   3    -22.4646365 -0.205943E-07  0.423E-03    4.67       8.9  T
   4    -22.4646365 -0.113870E-07  0.134E-03    4.67      28.2  T
   5    -22.4646365 -0.163500E-08  0.960E-04    4.67      39.4  T
   6    -22.4646365 -0.162965E-08  0.266E-04    4.67     142.1  T
     SCC iter.                  ...        0 min,  0.001 sec
     gradient                   ...        0 min,  0.001 sec
 * total energy  :   -22.3692027 Eh     change       -0.5962477E-05 Eh
   gradient norm :     0.0008856 Eh/α   predicted    -0.5137145E-05 ( -13.84%)
   displ. norm   :     0.0151985 α      lambda       -0.3705229E-05
   maximum displ.:     0.0108497 α      in ANC's #3, #2, #6, ...

........................................................................
.............................. CYCLE   23 ..............................
........................................................................

 iter      E             dE          RMSdq      gap      omega  full diag
   1    -22.4643809 -0.224644E+02  0.220E-02    4.67       0.0  T
   2    -22.4643812 -0.283689E-06  0.128E-02    4.67       3.0  T
   3    -22.4643812 -0.114566E-07  0.475E-03    4.67       8.0  T
   4    -22.4643812 -0.234948E-07  0.189E-03    4.67      20.0  T
   5    -22.4643812 -0.453155E-08  0.148E-03    4.67      25.6  T
   6    -22.4643812 -0.637777E-08  0.596E-04    4.67      63.4  T
   7    -22.4643812 -0.866759E-09  0.411E-04    4.67      91.9  T
     SCC iter.                  ...        0 min,  0.002 sec
     gradient                   ...        0 min,  0.001 sec
 * total energy  :   -22.3691991 Eh     change        0.3655446E-05 Eh
   gradient norm :     0.0017091 Eh/α   predicted    -0.1851330E-05 (-150.65%)
   displ. norm   :     0.0087556 α      lambda       -0.6948569E-05
   maximum displ.:     0.0061824 α      in ANC's #2, #6, #4, ...

........................................................................
.............................. CYCLE   24 ..............................
........................................................................

 iter      E             dE          RMSdq      gap      omega  full diag
   1    -22.4645484 -0.224645E+02  0.156E-02    4.67       0.0  T
   2    -22.4645484 -0.389932E-07  0.940E-03    4.67       4.0  T
   3    -22.4645484 -0.914977E-09  0.229E-03    4.67      16.5  T
   4    -22.4645484 -0.139629E-07  0.124E-03    4.67      30.5  T
   5    -22.4645484 -0.441398E-08  0.673E-04    4.67      56.2  T
   6    -22.4645484 -0.150952E-08  0.379E-04    4.67      99.8  T
     SCC iter.                  ...        0 min,  0.001 sec
     gradient                   ...        0 min,  0.001 sec
 * total energy  :   -22.3692040 Eh     change       -0.4965953E-05 Eh
   gradient norm :     0.0003266 Eh/α   predicted    -0.3473028E-05 ( -30.06%)
   displ. norm   :     0.0037422 α      lambda       -0.2975160E-06
   maximum displ.:     0.0028074 α      in ANC's #3, #1, #8, ...

   *** GEOMETRY OPTIMIZATION CONVERGED AFTER 24 ITERATIONS ***

------------------------------------------------------------------------
 total energy gain   :        -0.0839409 Eh      -52.6737 kcal/mol
 total RMSD          :         0.9523995 a0        0.5040 Å
 total power (kW/mol):        -9.1827837 (step)-2045.9384 (real)
------------------------------------------------------------------------

 ANCopt (total)                0 d,  0 h,  0 min,  0.108 sec
 optimizer setup                ...        0 min,  0.000 sec (  0.409%)
 model hessian                  ...        0 min,  0.001 sec (  0.476%)
 ANC generation                 ...        0 min,  0.000 sec (  0.150%)
 coordinate transformation      ...        0 min,  0.000 sec (  0.136%)
 single point calculation       ...        0 min,  0.104 sec ( 96.373%)
 optimization log               ...        0 min,  0.001 sec (  0.811%)
 hessian update                 ...        0 min,  0.000 sec (  0.128%)
 rational function              ...        0 min,  0.001 sec (  0.733%)

================
 final structure:
================
7
 xtb: 6.7.1 (edcfbbe)
C           -0.26643088441349       -0.92853442700012        0.90635415377556
C           -0.38440305129461       -0.78794063278223       -0.66357651980574
Cl          -1.86427173091305       -1.23130072210780        1.57555294264883
H            0.38551748037030       -1.75749345073636        1.18378226746032
Cl           0.39669674144880        0.55321288994436        1.58041431546107
O           -1.07157577083261        0.14762233765632       -1.07915368815183
O            0.23718121563474       -1.65447099497405       -1.28760147138830
 
 Bond Distances (Angstroems)
 ---------------------------
C1-C2=1.5806         C1-Cl3=1.7586        C1-H4=1.0905         C1-Cl5=1.7577        C2-C1=1.5806         C2-O6=1.2330         
C2-O7=1.2356         Cl3-C1=1.7586        H4-C1=1.0905         Cl5-C1=1.7577        O6-C2=1.2330         O7-C2=1.2356         
 C  H  Rav=1.0905 sigma=0.0000  Rmin=1.0905  Rmax=1.0905     1
 C  C  Rav=1.5806 sigma=0.0000  Rmin=1.5806  Rmax=1.5806     1
 O  C  Rav=1.2343 sigma=0.0013  Rmin=1.2330  Rmax=1.2356     2
 Cl C  Rav=1.7582 sigma=0.0004  Rmin=1.7577  Rmax=1.7586     2
 
 selected bond angles (degree)
 --------------------
Cl3-C1-C2=108.99               H4-C1-C2=111.40                H4-C1-Cl3=108.39               Cl5-C1-C2=109.52               
Cl5-C1-Cl3=110.00              Cl5-C1-H4=108.52               O6-C2-C1=116.35                O7-C2-C1=113.68                
O7-C2-O6=129.96                
 
 selected dihedral angles (degree)
 ---------------------------------
O6-C2-C1-Cl3= 62.45           O6-C2-C1-H4=182.00            O6-C2-C1-Cl5=302.07           O7-C2-C1-Cl3=242.65           
O7-C2-C1-H4=  2.21            O7-C2-C1-Cl5=122.27           
 
 CMA Distance (Angstroems)
 ---------------------------
R(CMA):  2.5510
           -------------------------------------------------
          |                Final Singlepoint                |
           -------------------------------------------------

          ...................................................
          :                      SETUP                      :
          :.................................................:
          :  # basis functions                  37          :
          :  # atomic orbitals                  35          :
          :  # shells                           15          :
          :  # electrons                        36          :
          :  max. iterations                   250          :
          :  Hamiltonian                  GFN2-xTB          :
          :  restarted?                      false          :
          :  GBSA solvation                   true          :
          :  PC potential                    false          :
          :  electronic temp.          300.0000000     K    :
          :  accuracy                    1.0000000          :
          :  -> integral cutoff          0.2500000E+02      :
          :  -> integral neglect         0.1000000E-07      :
          :  -> SCF convergence          0.1000000E-05 Eh   :
          :  -> wf. convergence          0.1000000E-03 e    :
          :  Broyden damping             0.4000000          :
          :  net charge                         -1          :
          :  unpaired electrons                  0          :
          ...................................................

 iter      E             dE          RMSdq      gap      omega  full diag
   1    -22.4645484 -0.224645E+02  0.212E-04    4.67       0.0  T
   2    -22.4645484 -0.551914E-10  0.183E-04    4.67     206.9  T
   3    -22.4645484 -0.657572E-10  0.147E-04    4.67     257.9  T

   *** convergence criteria satisfied after 3 iterations ***

         #    Occupation            Energy/Eh            Energy/eV
      -------------------------------------------------------------
         1        2.0000           -1.0802673             -29.3956
       ...           ...                  ...                  ...
        12        2.0000           -0.4579115             -12.4604
        13        2.0000           -0.4464417             -12.1483
        14        2.0000           -0.4397293             -11.9656
        15        2.0000           -0.4388695             -11.9422
        16        2.0000           -0.4314904             -11.7415
        17        2.0000           -0.4170058             -11.3473
        18        2.0000           -0.3907105             -10.6318 (HOMO)
        19                         -0.2190654              -5.9611 (LUMO)
        20                         -0.2009122              -5.4671
        21                         -0.1370307              -3.7288
        22                         -0.0165092              -0.4492
        23                         -0.0062290              -0.1695
       ...                                ...                  ...
        35                          0.6600769              17.9616
      -------------------------------------------------------------
                  HL-Gap            0.1716452 Eh            4.6707 eV
             Fermi-level           -0.3048880 Eh           -8.2964 eV

 SCC (total)                   0 d,  0 h,  0 min,  0.004 sec
 SCC setup                      ...        0 min,  0.000 sec (  5.310%)
 Dispersion                     ...        0 min,  0.000 sec (  0.772%)
 classical contributions        ...        0 min,  0.000 sec (  0.312%)
 integral evaluation            ...        0 min,  0.001 sec ( 24.546%)
 iterations                     ...        0 min,  0.001 sec ( 23.747%)
 molecular gradient             ...        0 min,  0.001 sec ( 42.610%)
 printout                       ...        0 min,  0.000 sec (  2.018%)

         :::::::::::::::::::::::::::::::::::::::::::::::::::::
         ::                     SUMMARY                     ::
         :::::::::::::::::::::::::::::::::::::::::::::::::::::
         :: total energy             -22.369204045524 Eh    ::
         :: total w/o Gsasa/hb       -22.371616584824 Eh    ::
         :: gradient norm              0.000327297346 Eh/a0 ::
         :: HOMO-LUMO gap              4.670702487891 eV    ::
         ::.................................................::
         :: SCC energy               -22.464546442333 Eh    ::
         :: -> isotropic ES            0.200362613427 Eh    ::
         :: -> anisotropic ES         -0.009860688120 Eh    ::
         :: -> anisotropic XC         -0.012410446640 Eh    ::
         :: -> dispersion             -0.006270055227 Eh    ::
         :: -> Gsolv                  -0.095155312112 Eh    ::
         ::    -> Gelec               -0.097567851412 Eh    ::
         ::    -> Gsasa                0.004180653126 Eh    ::
         ::    -> Ghb                 -0.002848873524 Eh    ::
         ::    -> Gshift               0.001080759698 Eh    ::
         :: repulsion energy           0.095342396809 Eh    ::
         :: add. restraining           0.000000000000 Eh    ::
         :: total charge              -1.000000000000 e     ::
         :::::::::::::::::::::::::::::::::::::::::::::::::::::

           ------------------------------------------------- 
          |                Numerical Hessian                |
           ------------------------------------------------- 
step length          :   0.00500
SCC accuracy         :   0.30000
Hessian scale factor :   1.00000
frozen atoms in %    :   0.00000    0
RMS gradient         :   0.00033
estimated CPU  time      0.01 min
estimated wall time      0.00 min

writing file <hessian>.

 projected vibrational frequencies (cm⁻¹)
eigval :       -0.00    -0.00    -0.00     0.00     0.00     0.00
eigval :      -19.20   141.97   183.79   246.65   402.90   621.04
eigval :      649.54   753.53   762.05   822.08  1117.47  1160.91
eigval :     1295.42  1750.98  2977.11
           -------------------------------------------------
          |                Property Printout                |
           -------------------------------------------------

    * Orbital Energies and Occupations

         #    Occupation            Energy/Eh            Energy/eV
      -------------------------------------------------------------
         1        2.0000           -1.0802670             -29.3956
       ...           ...                  ...                  ...
         6        2.0000           -0.5919973             -16.1091
         7        2.0000           -0.5586191             -15.2008
         8        2.0000           -0.5578129             -15.1789
         9        2.0000           -0.5480145             -14.9122
        10        2.0000           -0.5189421             -14.1211
        11        2.0000           -0.5133846             -13.9699
        12        2.0000           -0.4579112             -12.4604
        13        2.0000           -0.4464413             -12.1483
        14        2.0000           -0.4397290             -11.9656
        15        2.0000           -0.4388691             -11.9422
        16        2.0000           -0.4314902             -11.7414
        17        2.0000           -0.4170056             -11.3473
        18        2.0000           -0.3907101             -10.6318 (HOMO)
        19                         -0.2190651              -5.9611 (LUMO)
        20                         -0.2009115              -5.4671
        21                         -0.1370302              -3.7288
        22                         -0.0165089              -0.4492
        23                         -0.0062287              -0.1695
        24                         -0.0011762              -0.0320
        25                         -0.0005190              -0.0141
        26                          0.0007763               0.0211
        27                          0.0019730               0.0537
        28                          0.0025737               0.0700
        29                          0.0039345               0.1071
       ...                                ...                  ...
        35                          0.6600771              17.9616
      -------------------------------------------------------------
                  HL-Gap            0.1716451 Eh            4.6707 eV
             Fermi-level           -0.3048876 Eh           -8.2964 eV

     #   Z          covCN         q      C6AA      α(0)
     1   6 C        3.673     0.102    19.126     6.268
     2   6 C        2.737     0.380    20.573     7.426
     3  17 Cl       1.083    -0.178   104.758    15.659
     4   1 H        0.925     0.079     1.994     2.209
     5  17 Cl       1.081    -0.178   104.756    15.659
     6   8 O        0.856    -0.598    26.074     6.846
     7   8 O        0.857    -0.606    26.270     6.872

 Mol. C6AA /au·bohr⁶  :       1674.515632
 Mol. C8AA /au·bohr⁸  :      53135.627760
 Mol. α(0) /au        :         60.938013


Wiberg/Mayer (AO) data.
largest (>0.10) Wiberg bond orders for each atom

 ---------------------------------------------------------------------------
     #   Z sym  total        # sym  WBO       # sym  WBO       # sym  WBO
 ---------------------------------------------------------------------------
     1   6 C    3.867 --     4 H    0.973     5 Cl   0.957     3 Cl   0.956
                             2 C    0.861
     2   6 C    3.944 --     6 O    1.538     7 O    1.519     1 C    0.861
     3  17 Cl   1.043 --     1 C    0.956
     4   1 H    0.994 --     1 C    0.973
     5  17 Cl   1.044 --     1 C    0.957
     6   8 O    1.855 --     2 C    1.538     7 O    0.234
     7   8 O    1.848 --     2 C    1.519     6 O    0.234
 ---------------------------------------------------------------------------

Topologies differ in total number of bonds
Writing topology from bond orders to xtbtopo.mol

molecular dipole:
                 x           y           z       tot (Debye)
 q only:        1.163       0.952       1.508
   full:        1.206       0.896       1.085       4.711
molecular quadrupole (traceless):
                xx          xy          yy          xz          yz          zz
 q only:        1.915      -0.149       1.174       0.066      -5.662      -3.089
  q+dip:        2.678      -1.595       2.822       1.703      -6.269      -5.500
   full:        3.349      -0.483       2.892       1.359      -5.845      -6.241

           -------------------------------------------------
          |                Geometry Summary                 |
           -------------------------------------------------

      molecular mass/u    :      127.9340976
   center of mass at/Å    :       -0.5691069      -0.5513460       0.6107140
  moments of inertia/u·Å² :        0.1900445E+03   0.2436400E+03   0.3478309E+03
rotational constants/cm⁻¹ :        0.8870361E-01   0.6919073E-01   0.4846502E-01

 * 5 selected distances

     #   Z          #   Z                                           value/Å
     1   6 C        3  17 Cl                                      1.7585762 (max)
     1   6 C        4   1 H                                       1.0904936 (min)
     1   6 C        5  17 Cl                                      1.7577460
     2   6 C        6   8 O                                       1.2329595
     2   6 C        7   8 O                                       1.2355765

 * 3 distinct bonds (by element types)

   Z      Z             #   av. dist./Å        max./Å        min./Å
   1 H    6 C           1     1.0904936     1.0904936     1.0904936
   6 C    8 O           2     1.2342680     1.2355765     1.2329595
   6 C   17 Cl          2     1.7581611     1.7585762     1.7577460

           -------------------------------------------------
          |               Frequency Printout                |
           -------------------------------------------------
 projected vibrational frequencies (cm⁻¹)
eigval :       -0.00    -0.00    -0.00     0.00     0.00     0.00
eigval :      -19.20   141.97   183.79   246.65   402.90   621.04
eigval :      649.54   753.53   762.05   822.08  1117.47  1160.91
eigval :     1295.42  1750.98  2977.11
 reduced masses (amu)
   1: 25.77   2: 31.08   3: 26.79   4: 31.91   5: 24.91   6: 17.15   7: 19.81   8: 27.15
   9: 21.96  10: 27.57  11: 24.37  12: 16.98  13: 14.19  14: 14.21  15: 12.78  16: 11.93
  17:  3.60  18:  1.98  19: 14.66  20: 13.19  21:  1.79
 IR intensities (km·mol⁻¹)
   1:  6.28   2:  0.97   3:  2.68   4:  2.67   5:  9.70   6: 11.09   7:  0.92   8: 12.24
   9:  1.63  10:  1.21  11:  7.39  12:  5.01  13: 85.09  14: 16.24  15: 17.67  16:124.14
  17:  1.45  18: 50.77  19:353.12  20:703.78  21:  1.41
 Raman intensities (Ä⁴*amu⁻¹)
   1:  0.00   2:  0.00   3:  0.00   4:  0.00   5:  0.00   6:  0.00   7:  0.00   8:  0.00
   9:  0.00  10:  0.00  11:  0.00  12:  0.00  13:  0.00  14:  0.00  15:  0.00  16:  0.00
  17:  0.00  18:  0.00  19:  0.00  20:  0.00  21:  0.00
 output can be read by thermo (or use thermo option).
 writing <g98.out> molden fake output.
 recommended (thermochemical) frequency scaling factor: 1.0
           -------------------------------------------------
          |             Thermodynamic Functions             |
           -------------------------------------------------

Molecule has no symmetry elements
It seems to be the C1 point group
c1  symmetry found (for desy threshold:  0.10E+00) used in thermo
 inverting freq            1   19.2012970679149     

          ...................................................
          :                      SETUP                      :
          :.................................................:
          :  # frequencies                          15      :
          :  # imaginary freq.                       0      :
          :  linear?                             false      :
          :  only rotor calc.                    false      :
          :  symmetry                               c1      :
          :  rotational number                       1      :
          :  scaling factor                  1.0000000      :
          :  rotor cutoff                   50.0000000 cm⁻¹ :
          :  imag. cutoff                  -20.0000000 cm⁻¹ :
          :.................................................:

    mode    ω/cm⁻¹     T·S(HO)/kcal·mol⁻¹    T·S(FR)/kcal·mol⁻¹   T·S(vib)
   ------------------------------------------------------------------------
       1     19.20    -2.00211 (  2.13%)    -1.33907 ( 97.87%)    -1.35318
       2    141.97    -0.82801 ( 98.48%)    -0.74726 (  1.52%)    -0.82679
       3    183.79    -0.68264 ( 99.46%)    -0.67081 (  0.54%)    -0.68257
       4    246.65    -0.52308 ( 99.83%)    -0.58369 (  0.17%)    -0.52318
   ------------------------------------------------------------------------

   temp. (K)  partition function   enthalpy   heat capacity  entropy
                                   cal/mol     cal/K/mol   cal/K/mol   J/K/mol
 298.15  VIB   77.6                 2219.875     12.656     13.913
         ROT  0.307E+06              888.752      2.981     28.086
         INT  0.238E+08             3108.627     15.636     41.999
         TR   0.140E+28             1481.254      4.968     40.434
         TOT                        4589.8810    20.6046    82.4331   344.9002

       T/K    H(0)-H(T)+PV         H(T)/Eh          T*S/Eh         G(T)/Eh
   ------------------------------------------------------------------------
    298.15    0.731444E-02    0.367134E-01    0.391666E-01   -0.245327E-02
   ------------------------------------------------------------------------

         :::::::::::::::::::::::::::::::::::::::::::::::::::::
         ::                  THERMODYNAMIC                  ::
         :::::::::::::::::::::::::::::::::::::::::::::::::::::
         :: total free energy         -22.371657312510 Eh   ::
         ::.................................................::
         :: total energy              -22.369204045849 Eh   ::
         :: zero point energy           0.029398931153 Eh   ::
         :: G(RRHO) w/o ZPVE           -0.031852197813 Eh   ::
         :: G(RRHO) contrib.           -0.002453266660 Eh   ::
         :::::::::::::::::::::::::::::::::::::::::::::::::::::
imag cut-off (cm-1) :    5.00
 found            1  significant imaginary frequency
 writing imag mode distorted coords to xtbhess.xyz
 for further optimization.

optimized geometry written to: xtbopt.xyz


           -------------------------------------------------
          | TOTAL ENERGY              -22.369204045849 Eh   |
          | TOTAL ENTHALPY            -22.332490673726 Eh   |
          | TOTAL FREE ENERGY         -22.371657312510 Eh   |
          | GRADIENT NORM               0.000327459961 Eh/α |
          | HOMO-LUMO GAP               4.670700681290 eV   |
           -------------------------------------------------

------------------------------------------------------------------------
 * finished run on 2025/10/18 at 21:14:45.466     
------------------------------------------------------------------------
 total:
 * wall-time:     0 d,  0 h,  0 min,  1.492 sec
 *  cpu-time:     0 d,  0 h,  0 min,  1.224 sec
 * ratio c/w:     0.820 speedup
 SCF:
 * wall-time:     0 d,  0 h,  0 min,  0.035 sec
 *  cpu-time:     0 d,  0 h,  0 min,  0.045 sec
 * ratio c/w:     1.256 speedup
 ANC optimizer:
 * wall-time:     0 d,  0 h,  0 min,  0.514 sec
 *  cpu-time:     0 d,  0 h,  0 min,  0.520 sec
 * ratio c/w:     1.011 speedup
 analytical hessian:
 * wall-time:     0 d,  0 h,  0 min,  0.380 sec
 *  cpu-time:     0 d,  0 h,  0 min,  0.442 sec
 * ratio c/w:     1.163 speedup

