7
 energy: -22.369204045524 gnorm: 0.000327297346 xtb: 6.7.1 (edcfbbe)
C           -0.26643258241633       -0.92853145008728        0.90635670438618
C           -0.38440949325479       -0.78793977818795       -0.66357380276508
Cl          -1.86427267821247       -1.23128821095524        1.57556159919797
H            0.38551241034965       -1.75749340320621        1.18378398914616
Cl           0.39670515475460        0.55321357115111        1.58041196517754
O           -1.07157876483040        0.14762606495291       -1.07915020528812
O            0.23716805826146       -1.65447448409177       -1.28759941170050
