7
 energy: -22.285263143049 gnorm: 0.089028316857 xtb: 6.7.1 (edcfbbe)
C           -0.23500286415981       -0.96774480098512        1.53052034057789
C           -0.42493347762564       -0.74336725895159       -1.53796872580231
Cl          -1.88448664182743       -1.22745371379305        1.81719314449317
H            0.42495548254918       -1.80661007322228        1.66823022128167
Cl           0.40239361015710        0.57337471153445        1.82908561408633
O           -1.10790727648458        0.17171863626229       -1.47741993740330
O            0.25769516739119       -1.65882250084469       -1.61386865723347
7
 energy: -22.318256164919 gnorm: 0.047054091513 xtb: 6.7.1 (edcfbbe)
C           -0.23498965018358       -0.96570888628811        1.22141410627661
C           -0.42413919191576       -0.74441960719840       -1.52195009679252
Cl          -1.84860841718933       -1.22699498073052        1.89263520660257
H            0.39645978281086       -1.77128144262201        1.79063177852357
Cl           0.39282965250048        0.53826035587086        1.90457360827536
O           -1.10902424759715        0.17333448094453       -1.46406206804815
O            0.26018607157448       -1.66209491997634       -1.60747053483745
7
 energy: -22.320837934312 gnorm: 0.020143501283 xtb: 6.7.1 (edcfbbe)
C           -0.25312304941480       -0.94198496310983        1.14770732939244
C           -0.41352600457472       -0.75709095204218       -1.49940324207779
Cl          -1.85063334755704       -1.23481671293520        2.00862980331928
H            0.38038195159594       -1.74923281796996        1.58006076977714
Cl           0.39941360733045        0.53787799101187        2.02296664175551
O           -1.09829265871198        0.15946500308602       -1.43005892923369
O            0.26849350133222       -1.67312254804064       -1.61413037293290
7
 energy: -22.321474115312 gnorm: 0.017149971517 xtb: 6.7.1 (edcfbbe)
C           -0.24954833889180       -0.94636047619123        1.17628586350445
C           -0.41684064001138       -0.75359523854080       -1.48085357446126
Cl          -1.85913638559292       -1.24349046406805        1.96183226662289
H            0.38452416575230       -1.75422918738202        1.60097444792368
Cl           0.40971734063010        0.54441421915253        1.97849795528353
O           -1.10214281377066        0.16404586480761       -1.43736671899144
O            0.26614067188440       -1.66968971777797       -1.58359823988186
7
 energy: -22.321958504595 gnorm: 0.016760953254 xtb: 6.7.1 (edcfbbe)
C           -0.24922875143189       -0.94624772626728        1.15381986687779
C           -0.41791661833870       -0.75292822136984       -1.44557338351317
Cl          -1.86258589253587       -1.25134462100186        1.92743007047077
H            0.38298393424171       -1.75182694412248        1.60901706167673
Cl           0.41751749880497        0.54626869827038        1.94611291220921
O           -1.10388416253173        0.16571420453627       -1.41948681809385
O            0.26582799179156       -1.66854039004514       -1.55554770962752
7
 energy: -22.323581042208 gnorm: 0.026102706389 xtb: 6.7.1 (edcfbbe)
C           -0.25183669398063       -0.94190197122980        1.08902241688519
C           -0.41626870019952       -0.75598572199865       -1.32392347154566
Cl          -1.87579681542037       -1.27027429515052        1.84230754293780
H            0.37679659343085       -1.74247422203698        1.57347904067572
Cl           0.43627943721876        0.55582745065715        1.86278439527480
O           -1.10539575198981        0.16518026061723       -1.33478476322886
O            0.26893593094077       -1.66927650085836       -1.49311316099903
7
 energy: -22.326616813351 gnorm: 0.045655863757 xtb: 6.7.1 (edcfbbe)
C           -0.25291932704545       -0.94028927866673        1.02725444089239
C           -0.41390133611861       -0.75952587764650       -1.19330819761295
Cl          -1.88598066966224       -1.28096105192471        1.75516893759214
H            0.37364921695353       -1.73760923397041        1.51778339089799
Cl           0.44674879534968        0.56405622511221        1.77439781959808
O           -1.10688210437948        0.16546185055919       -1.24717046975248
O            0.27199942490264       -1.67003763346299       -1.41835392161523
7
 energy: -22.334119262908 gnorm: 0.077928245924 xtb: 6.7.1 (edcfbbe)
C           -0.25592235623388       -0.93599245005253        0.96044573442859
C           -0.40929489814979       -0.76588178170136       -1.03255299349736
Cl          -1.89901508847813       -1.29306218198202        1.65103931555554
H            0.36876681107005       -1.73045321628701        1.45523155629567
Cl           0.45957505148853        0.57461406777676        1.67046172259286
O           -1.10752642532869        0.16534851406256       -1.13416837431700
O            0.27613090563199       -1.67347795181634       -1.35468496105838
7
 energy: -22.347085176126 gnorm: 0.089038793273 xtb: 6.7.1 (edcfbbe)
C           -0.25638684682754       -0.93617535694150        0.89989623109063
C           -0.40607360803926       -0.76859995232098       -0.85361933372228
Cl          -1.90925627879823       -1.30827341190113        1.54982032611871
H            0.36680499357894       -1.72829965423893        1.38561325413764
Cl           0.47578422939532        0.58064097892373        1.56495935120439
O           -1.11540616809366        0.17528591878270       -1.08367513014107
O            0.27724767878451       -1.67348352230383       -1.24722269868814
7
 energy: -22.323882766776 gnorm: 0.201642330613 xtb: 6.7.1 (edcfbbe)
C           -0.24270379015464       -0.95552569757590        0.91158517325360
C           -0.38752215147911       -0.78127638865320       -0.53564139992961
Cl          -1.90640942417323       -1.30285531435991        1.47131096239644
H            0.37503414842428       -1.73963464286375        1.29064099807696
Cl           0.47017385163460        0.57674877511022        1.47839568047668
O           -1.15095657646431        0.21839939838353       -1.21676978301093
O            0.27509794221249       -1.67476113004095       -1.18374963126331
7
 energy: -22.359219265070 gnorm: 0.090789378230 xtb: 6.7.1 (edcfbbe)
C           -0.25086178428255       -0.94534074000870        0.91987467216349
C           -0.39480879526839       -0.77828831381647       -0.69923507883277
Cl          -1.90390567547838       -1.28819509742992        1.50313103547065
H            0.37844217138307       -1.74460817131302        1.29463176012672
Cl           0.45608702636618        0.57870974244583        1.51044590853513
O           -1.12219284910257        0.18604787652107       -1.11037104981715
O            0.26995390638273       -1.66723029639872       -1.20270524764621
7
 energy: -22.338237182659 gnorm: 0.155325611267 xtb: 6.7.1 (edcfbbe)
C           -0.26084957353486       -0.93236863143216        0.78413971867895
C           -0.39364332886411       -0.78471311290520       -0.61760547619617
Cl          -1.90664796941766       -1.28615113240417        1.42319881905127
H            0.36924799669053       -1.73359163138899        1.22326020077699
Cl           0.45457964920140        0.58215611699860        1.42986858001387
O           -1.09919139374913        0.16144543398695       -0.89597392839924
O            0.26921861967394       -1.66568204285494       -1.13111591392579
7
 energy: -22.364560194919 gnorm: 0.041538124843 xtb: 6.7.1 (edcfbbe)
C           -0.24825286081086       -0.94833089903635        0.89201476493154
C           -0.38572225028349       -0.79189133335700       -0.68251806052402
Cl          -1.89547656810606       -1.25206758306211        1.48314813482857
H            0.38145490259589       -1.74893287246252        1.27736901223966
Cl           0.41983932614580        0.57945183644605        1.49136134361748
O           -1.10486396303708        0.16762470719713       -0.98846590435507
O            0.26573541349589       -1.66475885572509       -1.25713729073826
7
 energy: -22.367274529959 gnorm: 0.046039334644 xtb: 6.7.1 (edcfbbe)
C           -0.25287838734575       -0.94533294574072        0.88907190250676
C           -0.37705901160095       -0.79880708328315       -0.69271150967219
Cl          -1.87346998797079       -1.22686587921644        1.56872165953434
H            0.38358868180138       -1.75378026678909        1.21968334622873
Cl           0.39243440343374        0.56199194359518        1.56583118443623
O           -1.09675606393428        0.16261384284247       -1.04390189348588
O            0.25685436561675       -1.65872461140814       -1.29092268954809
7
 energy: -22.368261603758 gnorm: 0.026650089313 xtb: 6.7.1 (edcfbbe)
C           -0.24616793478116       -0.95085730614456        0.90465387782651
C           -0.37655367717847       -0.80192820241250       -0.68141215997556
Cl          -1.86680280809057       -1.20667524608237        1.55005501788801
H            0.39135340718556       -1.76350998342702        1.24535820284410
Cl           0.37370879055111        0.56060125788234        1.56597840343649
O           -1.09004820688920        0.15386400694398       -1.04574885423755
O            0.24722442920283       -1.65039952675976       -1.32311248778209
7
 energy: -22.368767182851 gnorm: 0.024249301717 xtb: 6.7.1 (edcfbbe)
C           -0.25640642789609       -0.94540424173362        0.91542740477114
C           -0.37427342403185       -0.79774157918755       -0.66875501045465
Cl          -1.87040413974795       -1.21665647486114        1.56839582906025
H            0.38958783205704       -1.76497170024640        1.22063644148549
Cl           0.38420392171843        0.56056556301908        1.54748910920136
O           -1.08416882756848        0.14654944064420       -1.05735938822136
O            0.24417506546901       -1.64124600763445       -1.31006238584232
7
 energy: -22.368925230111 gnorm: 0.014960441764 xtb: 6.7.1 (edcfbbe)
C           -0.25719784576407       -0.93300127126555        0.91042631225983
C           -0.38062661777109       -0.80058435136360       -0.66596665210352
Cl          -1.87026365020849       -1.22295451328003        1.54454737655801
H            0.38826158523031       -1.75977094999011        1.20604910263555
Cl           0.39405107552602        0.56047321018857        1.58793295860965
O           -1.07972346510220        0.13692568171992       -1.05513345569344
O            0.23821291808961       -1.63999280600908       -1.31208364226616
7
 energy: -22.369055249931 gnorm: 0.007319149058 xtb: 6.7.1 (edcfbbe)
C           -0.26267839422676       -0.93682707574204        0.90659118961502
C           -0.37691048458916       -0.79531068098663       -0.66261094576393
Cl          -1.87176443149146       -1.22712523078701        1.57000413084520
H            0.38543020379543       -1.75938732886680        1.21058954273233
Cl           0.39505898184678        0.56001820306772        1.55566034216346
O           -1.07751409064533        0.14108214855499       -1.05440341309597
O            0.24109221531060       -1.64135503524011       -1.31005884649621
7
 energy: -22.369098889158 gnorm: 0.011571793082 xtb: 6.7.1 (edcfbbe)
C           -0.26196561037803       -0.93478523053559        0.90780303684803
C           -0.38009840791553       -0.79422064057909       -0.65760346014754
Cl          -1.87133433232769       -1.23008477920768        1.55980722406366
H            0.38588807578146       -1.75874922700393        1.20338361516002
Cl           0.39837542394051        0.55932939399579        1.56241164232168
O           -1.07853231625077        0.14541430077940       -1.06346915188132
O            0.24038116715014       -1.64580881744879       -1.29656090636462
7
 energy: -22.369153194180 gnorm: 0.007443345566 xtb: 6.7.1 (edcfbbe)
C           -0.26259916106968       -0.93408576019426        0.90640526541606
C           -0.38107899441958       -0.79305047614643       -0.66079183295958
Cl          -1.86866158603067       -1.22784844288732        1.56501478364256
H            0.38603776120886       -1.75914506798050        1.19900354082142
Cl           0.39587139879320        0.55723752441305        1.56807385893448
O           -1.07658315877879        0.14504033448247       -1.06567697328732
O            0.23972774029674       -1.64705311168690       -1.29625664256773
7
 energy: -22.369196771919 gnorm: 0.002206158219 xtb: 6.7.1 (edcfbbe)
C           -0.26518314826410       -0.93116979327955        0.90529587585982
C           -0.38357447456766       -0.78989174440836       -0.66307958937682
Cl          -1.86511423452833       -1.22814524427344        1.57334872848889
H            0.38556539806571       -1.75881078480292        1.18837382834814
Cl           0.39543063694860        0.55389303011951        1.57653079077692
O           -1.07228914982162        0.14666912867969       -1.07325270703623
O            0.23787897216748       -1.65144959203481       -1.29144492706082
7
 energy: -22.369202734396 gnorm: 0.000885574414 xtb: 6.7.1 (edcfbbe)
C           -0.26604032836607       -0.92947734277411        0.90594523689606
C           -0.38350550363052       -0.78849843351108       -0.66340036006082
Cl          -1.86506990454359       -1.23044955025595        1.57413183784012
H            0.38503634783354       -1.75779343435003        1.18660477657233
Cl           0.39739722613261        0.55346131413838        1.57860917593135
O           -1.07281086323300        0.14687516130838       -1.07650185569935
O            0.23770702580711       -1.65302271455548       -1.28961681147980
7
 energy: -22.369199078950 gnorm: 0.001709188754 xtb: 6.7.1 (edcfbbe)
C           -0.26720298501910       -0.92838414108236        0.90654749988788
C           -0.38686680954991       -0.78941784393531       -0.66365726391884
Cl          -1.86437500029735       -1.23224997535130        1.57695724340972
H            0.38495062959336       -1.75727423890710        1.18371233503307
Cl           0.39771869510213        0.55318499103033        1.57955644846938
O           -1.07055526224942        0.14873550044521       -1.08001482120410
O            0.23904473242037       -1.65349929219934       -1.28732944167721
7
 energy: -22.369204044902 gnorm: 0.000326680928 xtb: 6.7.1 (edcfbbe)
C           -0.26643088441349       -0.92853442700012        0.90635415377556
C           -0.38440305129461       -0.78794063278223       -0.66357651980574
Cl          -1.86427173091305       -1.23130072210780        1.57555294264883
H            0.38551748037030       -1.75749345073636        1.18378226746032
Cl           0.39669674144880        0.55321288994436        1.58041431546107
O           -1.07157577083261        0.14762233765632       -1.07915368815183
O            0.23718121563474       -1.65447099497405       -1.28760147138830
