 Entering Gaussian System
 *********************************************
 Gaussian 98:
 frequency output generated by the xtb code
 *********************************************
                         Standard orientation:
 --------------------------------------------------------------------
  Center     Atomic     Atomic              Coordinates (Angstroms)
  Number     Number      Type              X           Y           Z
 --------------------------------------------------------------------
    1          6             0       -6.279579   -4.181124    0.825147
    2          6             0       -7.345218   -4.591854    1.535901
    3          1             0       -6.157062   -4.460769   -0.207356
    4          1             0       -5.519228   -3.560960    1.271752
    5          8             0       -7.642211   -4.356068    2.756179
    6          1             0       -8.080312   -5.239085    0.968900
 --------------------------------------------------------------------
     1 basis functions        1 primitive gaussians
     1 alpha electrons        1 beta electrons
 
 Harmonic frequencies (cm**-1), IR intensities (km*mol⁻¹),
 Raman scattering activities (A**4/amu), Raman depolarization ratios,
 reduced masses (AMU), force constants (mDyne/A) and normal coordinates:
                      1                      2                      3
                        a                      a                      a 
 Frequencies --   505.9542               602.0272               669.2533
 Red. masses --     9.2023                 4.5814                 5.0400
 Frc consts  --     0.0000                 0.0000                 0.0000
 IR Inten    --    18.1499                52.1505                12.6350
 Raman Activ --     0.0000                 0.0000                 0.0000
 Depolar     --     0.0000                 0.0000                 0.0000
 Atom AN      X      Y      Z        X      Y      Z        X      Y      Z
   1   6    -0.14   0.02   0.31    -0.25   0.41  -0.14     0.04  -0.06   0.02
   2   6    -0.34  -0.29  -0.25     0.13  -0.21   0.07    -0.25   0.41  -0.14
   3   1     0.26   0.19   0.08     0.29  -0.48   0.16     0.36  -0.58   0.20
   4   1    -0.23   0.00   0.41     0.28  -0.46   0.16    -0.20   0.33  -0.11
   5   8     0.44   0.21  -0.18    -0.02   0.03  -0.01     0.14  -0.23   0.08
   6   1    -0.13  -0.08   0.01    -0.08   0.12  -0.04     0.04  -0.06   0.02
                      4                      5                      6
                        a                      a                      a 
 Frequencies --   975.4980              1004.2736              1219.0134
 Red. masses --     2.6810                 6.3707                10.7261
 Frc consts  --     0.0000                 0.0000                 0.0000
 IR Inten    --     6.5220                42.1915               196.7806
 Raman Activ --     0.0000                 0.0000                 0.0000
 Depolar     --     0.0000                 0.0000                 0.0000
 Atom AN      X      Y      Z        X      Y      Z        X      Y      Z
   1   6     0.01  -0.02   0.00     0.05  -0.14  -0.50    -0.34  -0.19   0.06
   2   6     0.19  -0.31   0.11     0.12   0.08   0.03     0.35   0.35   0.39
   3   1     0.06  -0.09   0.03     0.51   0.27  -0.15    -0.11  -0.05   0.05
   4   1    -0.24   0.39  -0.13    -0.25  -0.03   0.35    -0.28  -0.06   0.33
   5   8    -0.03   0.05  -0.02    -0.19  -0.01   0.32     0.08  -0.12  -0.48
   6   1    -0.39   0.64  -0.22    -0.06   0.00   0.14     0.05   0.03  -0.00
                      7                      8                      9
                        a                      a                      a 
 Frequencies --  1383.0041              1415.9468              1685.5365
 Red. masses --     2.6724                 3.9465                11.0534
 Frc consts  --     0.0000                 0.0000                 0.0000
 IR Inten    --    11.4134               229.7383               638.5305
 Raman Activ --     0.0000                 0.0000                 0.0000
 Depolar     --     0.0000                 0.0000                 0.0000
 Atom AN      X      Y      Z        X      Y      Z        X      Y      Z
   1   6    -0.19  -0.12  -0.01    -0.21  -0.09   0.10    -0.42  -0.15   0.30
   2   6     0.00  -0.02  -0.06    -0.12   0.04   0.33     0.48   0.10  -0.56
   3   1     0.03   0.02  -0.00     0.56   0.34  -0.02     0.09   0.09   0.08
   4   1    -0.08  -0.03   0.06     0.28   0.00  -0.49     0.02  -0.05  -0.17
   5   8     0.04   0.11   0.24     0.06  -0.04  -0.23    -0.08   0.02   0.20
   6   1     0.52   0.06  -0.76     0.03  -0.00  -0.06    -0.02   0.06   0.21
                     10                     11                     12
                        a                      a                      a 
 Frequencies --  2375.1125              3064.3330              3068.4931
 Red. masses --     1.6596                 1.4910                 2.0729
 Frc consts  --     0.0000                 0.0000                 0.0000
 IR Inten    --  1073.0065               118.0687               321.0261
 Raman Activ --     0.0000                 0.0000                 0.0000
 Depolar     --     0.0000                 0.0000                 0.0000
 Atom AN      X      Y      Z        X      Y      Z        X      Y      Z
   1   6     0.01   0.02   0.02    -0.17  -0.08   0.08    -0.09  -0.14  -0.26
   2   6     0.18   0.12   0.02     0.02   0.01  -0.01    -0.01  -0.01  -0.01
   3   1    -0.00   0.01   0.03     0.04  -0.17  -0.58    -0.10   0.18   0.72
   4   1     0.00  -0.01  -0.04     0.53   0.44   0.34     0.43   0.34   0.22
   5   8    -0.01   0.02   0.09    -0.00   0.00   0.01     0.00   0.00   0.00
   6   1    -0.64  -0.56  -0.47    -0.03  -0.02  -0.01    -0.00  -0.00   0.01
