6
 energy: -10.105184576633 gnorm: 0.151366417635 xtb: 6.7.1 (edcfbbe)
C           -6.31583300000000       -4.19177100000000        0.86006100000000
C           -7.39742200000000       -4.64152600000000        1.48696700000000
H           -6.14733300000000       -4.44253800000000       -0.17827000000000
H           -5.59156000000000       -3.57145500000000        1.37553400000000
O           -7.44212800000000       -4.26959400000000        2.64417700000000
H           -8.12921700000000       -5.27320000000000        0.96186400000000
6
 energy: -10.123798855821 gnorm: 0.048442773549 xtb: 6.7.1 (edcfbbe)
C           -6.29732017930336       -4.19128552947509        0.82810366026312
C           -7.38348062811092       -4.62596672271733        1.50577500139227
H           -6.12131351095415       -4.44007341229164       -0.21429101974367
H           -5.57517838882391       -3.57456927328924        1.33445106581003
O           -7.52766661709254       -4.29402527920793        2.72931719983089
H           -8.11853367571512       -5.26416378301876        0.96697709244736
6
 energy: -10.127078975710 gnorm: 0.028102076990 xtb: 6.7.1 (edcfbbe)
C           -6.28858493327968       -4.19013567833211        0.81647931700508
C           -7.36505575617667       -4.61289890905218        1.51442889578828
H           -6.12352732749315       -4.44435390298015       -0.22026012279827
H           -5.55799402268367       -3.57182327186279        1.30799523554398
O           -7.58335306436404       -4.31953474820700        2.75617292521444
H           -8.10497789600278       -5.25133748956577        0.97551674924649
6
 energy: -10.127892525925 gnorm: 0.022279816533 xtb: 6.7.1 (edcfbbe)
C           -6.28437231791159       -4.18727468919130        0.81375288637132
C           -7.35456742545803       -4.60152038400707        1.51939873791647
H           -6.13099974381108       -4.44874923955055       -0.21892613991883
H           -5.54218931076209       -3.56885652912113        1.29258526329485
O           -7.61556614462576       -4.33817595753423        2.76161390350009
H           -8.09579805743145       -5.24550720059571        0.98190834883610
6
 energy: -10.128213908337 gnorm: 0.014584746769 xtb: 6.7.1 (edcfbbe)
C           -6.28061746748822       -4.18717499983130        0.81690107947718
C           -7.34449164447807       -4.60191797569341        1.52692052935911
H           -6.13964293531603       -4.45273947014959       -0.21535363267151
H           -5.53317164589881       -3.56236336625835        1.28225662217037
O           -7.63262544963591       -4.34827632506189        2.75819035026234
H           -8.09294385718296       -5.23761186300546        0.98141805140252
6
 energy: -10.128293162671 gnorm: 0.007420974605 xtb: 6.7.1 (edcfbbe)
C           -6.28218352903946       -4.17833608797887        0.82018224744192
C           -7.34970954087180       -4.58071456596250        1.52871512767624
H           -6.15115278134890       -4.45815606491184       -0.20999333835871
H           -5.51732326748869       -3.56672619054330        1.27605635305677
O           -7.64338973489656       -4.36026055778134        2.75385789584139
H           -8.07973414635458       -5.24589053282216        0.98151471434238
6
 energy: -10.128398871207 gnorm: 0.002945077313 xtb: 6.7.1 (edcfbbe)
C           -6.27949420404873       -4.18244223370100        0.82369996008798
C           -7.34327743528913       -4.59370659283902        1.53456814947344
H           -6.15337739163754       -4.45952411225654       -0.20868490405335
H           -5.52142252500454       -3.55995434413656        1.27351462766869
O           -7.64186486558907       -4.35698955798811        2.75323821765588
H           -8.08405657843098       -5.23746715907877        0.97399694916736
6
 energy: -10.128409503656 gnorm: 0.000983082191 xtb: 6.7.1 (edcfbbe)
C           -6.27970436804019       -4.18199718870886        0.82397275791099
C           -7.34455019963985       -4.59315265570234        1.53463685755369
H           -6.15437027648345       -4.45950645882476       -0.20858276274667
H           -5.52106400814043       -3.56102075615457        1.27350349475478
O           -7.64114152992144       -4.35561946460216        2.75490548187872
H           -8.08266261777463       -5.23878747600731        0.97189717064849
6
 energy: -10.128411538474 gnorm: 0.000436841809 xtb: 6.7.1 (edcfbbe)
C           -6.27955912285301       -4.18115775325188        0.82511762123896
C           -7.34519913623501       -4.59189482347001        1.53586728032002
H           -6.15703696403955       -4.46080018164531       -0.20738497956199
H           -5.51921334139096       -3.56099043879492        1.27172611134987
O           -7.64219752825724       -4.35611194186215        2.75614403110963
H           -8.08028690722423       -5.23912886097573        0.96886293554351
