
                                 *****************
                                 * O   R   C   A *
                                 *****************

                                            #,                                       
                                            ###                                      
                                            ####                                     
                                            #####                                    
                                            ######                                   
                                           ########,                                 
                                     ,,################,,,,,                         
                               ,,#################################,,                 
                          ,,##########################################,,             
                       ,#########################################, ''#####,          
                    ,#############################################,,   '####,        
                  ,##################################################,,,,####,       
                ,###########''''           ''''###############################       
              ,#####''   ,,,,##########,,,,          '''####'''          '####       
            ,##' ,,,,###########################,,,                        '##       
           ' ,,###''''                  '''############,,,                           
         ,,##''                                '''############,,,,        ,,,,,,###''
      ,#''                                            '''#######################'''  
     '                                                          ''''####''''         
             ,#######,   #######,   ,#######,      ##                                
            ,#'     '#,  ##    ##  ,#'     '#,    #''#        ######   ,####,        
            ##       ##  ##   ,#'  ##            #'  '#       #        #'  '#        
            ##       ##  #######   ##           ,######,      #####,   #    #        
            '#,     ,#'  ##    ##  '#,     ,#' ,#      #,         ##   #,  ,#        
             '#######'   ##     ##  '#######'  #'      '#     #####' # '####'        



                  #######################################################
                  #                        -***-                        #
                  #          Department of theory and spectroscopy      #
                  #    Directorship and core code : Frank Neese         #
                  #        Max Planck Institute fuer Kohlenforschung    #
                  #                Kaiser Wilhelm Platz 1               #
                  #                 D-45470 Muelheim/Ruhr               #
                  #                      Germany                        #
                  #                                                     #
                  #                  All rights reserved                #
                  #                        -***-                        #
                  #######################################################


                         Program Version 5.0.4 -  RELEASE  -


 With contributions from (in alphabetic order):
   Daniel Aravena         : Magnetic Suceptibility
   Michael Atanasov       : Ab Initio Ligand Field Theory (pilot matlab implementation)
   Alexander A. Auer      : GIAO ZORA, VPT2 properties, NMR spectrum
   Ute Becker             : Parallelization
   Giovanni Bistoni       : ED, misc. LED, open-shell LED, HFLD
   Martin Brehm           : Molecular dynamics
   Dmytro Bykov           : SCF Hessian
   Vijay G. Chilkuri      : MRCI spin determinant printing, contributions to CSF-ICE
   Dipayan Datta          : RHF DLPNO-CCSD density
   Achintya Kumar Dutta   : EOM-CC, STEOM-CC
   Dmitry Ganyushin       : Spin-Orbit,Spin-Spin,Magnetic field MRCI
   Miquel Garcia          : C-PCM and meta-GGA Hessian, CC/C-PCM, Gaussian charge scheme
   Yang Guo               : DLPNO-NEVPT2, F12-NEVPT2, CIM, IAO-localization
   Andreas Hansen         : Spin unrestricted coupled pair/coupled cluster methods
   Benjamin Helmich-Paris : MC-RPA, TRAH-SCF, COSX integrals
   Lee Huntington         : MR-EOM, pCC
   Robert Izsak           : Overlap fitted RIJCOSX, COSX-SCS-MP3, EOM
   Marcus Kettner         : VPT2
   Christian Kollmar      : KDIIS, OOCD, Brueckner-CCSD(T), CCSD density, CASPT2, CASPT2-K
   Simone Kossmann        : Meta GGA functionals, TD-DFT gradient, OOMP2, MP2 Hessian
   Martin Krupicka        : Initial AUTO-CI
   Lucas Lang             : DCDCAS
   Marvin Lechner         : AUTO-CI (C++ implementation), FIC-MRCC
   Dagmar Lenk            : GEPOL surface, SMD
   Dimitrios Liakos       : Extrapolation schemes; Compound Job, initial MDCI parallelization
   Dimitrios Manganas     : Further ROCIS development; embedding schemes
   Dimitrios Pantazis     : SARC Basis sets
   Anastasios Papadopoulos: AUTO-CI, single reference methods and gradients
   Taras Petrenko         : DFT Hessian,TD-DFT gradient, ASA, ECA, R-Raman, ABS, FL, XAS/XES, NRVS
   Peter Pinski           : DLPNO-MP2, DLPNO-MP2 Gradient
   Christoph Reimann      : Effective Core Potentials
   Marius Retegan         : Local ZFS, SOC
   Christoph Riplinger    : Optimizer, TS searches, QM/MM, DLPNO-CCSD(T), (RO)-DLPNO pert. Triples
   Tobias Risthaus        : Range-separated hybrids, TD-DFT gradient, RPA, STAB
   Michael Roemelt        : Original ROCIS implementation
   Masaaki Saitow         : Open-shell DLPNO-CCSD energy and density
   Barbara Sandhoefer     : DKH picture change effects
   Avijit Sen             : IP-ROCIS
   Kantharuban Sivalingam : CASSCF convergence, NEVPT2, FIC-MRCI
   Bernardo de Souza      : ESD, SOC TD-DFT
   Georgi Stoychev        : AutoAux, RI-MP2 NMR, DLPNO-MP2 response
   Willem Van den Heuvel  : Paramagnetic NMR
   Boris Wezisla          : Elementary symmetry handling
   Frank Wennmohs         : Technical directorship


 We gratefully acknowledge several colleagues who have allowed us to
 interface, adapt or use parts of their codes:
   Stefan Grimme, W. Hujo, H. Kruse, P. Pracht,  : VdW corrections, initial TS optimization,
                  C. Bannwarth, S. Ehlert          DFT functionals, gCP, sTDA/sTD-DF
   Ed Valeev, F. Pavosevic, A. Kumar             : LibInt (2-el integral package), F12 methods
   Garnet Chan, S. Sharma, J. Yang, R. Olivares  : DMRG
   Ulf Ekstrom                                   : XCFun DFT Library
   Mihaly Kallay                                 : mrcc  (arbitrary order and MRCC methods)
   Jiri Pittner, Ondrej Demel                    : Mk-CCSD
   Frank Weinhold                                : gennbo (NPA and NBO analysis)
   Christopher J. Cramer and Donald G. Truhlar   : smd solvation model
   Lars Goerigk                                  : TD-DFT with DH, B97 family of functionals
   V. Asgeirsson, H. Jonsson                     : NEB implementation
   FAccTs GmbH                                   : IRC, NEB, NEB-TS, DLPNO-Multilevel, CI-OPT
                                                   MM, QMMM, 2- and 3-layer-ONIOM, Crystal-QMMM,
                                                   LR-CPCM, SF, NACMEs, symmetry and pop. for TD-DFT,
                                                   nearIR, NL-DFT gradient (VV10), updates on ESD,
                                                   ML-optimized integration grids
   S Lehtola, MJT Oliveira, MAL Marques          : LibXC Library
   Liviu Ungur et al                             : ANISO software


 Your calculation uses the libint2 library for the computation of 2-el integrals
 For citations please refer to: http://libint.valeyev.net

 Your ORCA version has been built with support for libXC version: 5.1.0
 For citations please refer to: https://tddft.org/programs/libxc/

 This ORCA versions uses:
   CBLAS   interface :  Fast vector & matrix operations
   LAPACKE interface :  Fast linear algebra routines
   SCALAPACK package :  Parallel linear algebra routines
   Shared memory     :  Shared parallel matrices
   BLAS/LAPACK       :  OpenBLAS 0.3.15  USE64BITINT DYNAMIC_ARCH NO_AFFINITY Haswell SINGLE_THREADED
        Core in use  :  Haswell
   Copyright (c) 2011-2014, The OpenBLAS Project


Your calculation utilizes the atom-pairwise dispersion correction
with the Becke-Johnson damping scheme (D3BJ)
Cite in your paper:
S.Grimme, S.Ehrlich, L.Goerigk, J Comput Chem, (2011), 32, 1456–1465 
S.Grimme, J.Antony, S.Ehrlich and H.Krieg, J.Chem.Phys., 132, (2010), 154104 
   

================================================================================

----- Orbital basis set information -----
Your calculation utilizes the basis: def2-TZVP
   F. Weigend and R. Ahlrichs, Phys. Chem. Chem. Phys. 7, 3297 (2005).

----- AuxJ basis set information -----
Your calculation utilizes the auxiliary basis: def2/J
   F. Weigend, Phys. Chem. Chem. Phys. 8, 1057 (2006).

================================================================================
                                        WARNINGS
                       Please study these warnings very carefully!
================================================================================


INFO   : the flag for use of the SHARK integral package has been found!

================================================================================
                                       INPUT FILE
================================================================================
NAME = inp.inp
|  1> !SP PBE D3BJ def2-TZVP CPCM(water)
|  2> 
|  3> *xyz -1 1
|  4> C           -2.16840055483329        1.50698672942772        0.02023909460222
|  5> C           -0.72011145138349        1.73208764529682       -0.37980774734410
|  6> H           -2.22367782728806        0.98716347605143        0.97375928297245
|  7> H           -2.68928822967117        2.45681611952334        0.11482662853117
|  8> H           -2.67091431290841        0.90635837232884       -0.73509097735862
|  9> S            0.17244356453591        2.72649434620791        0.82859662009412
| 10> H           -0.18446335624118        0.78520250103369       -0.46546518874143
| 11> H           -0.65325283221031        2.25977881013024       -1.33271371275580
| 12> *
| 13> 
| 14>                          ****END OF INPUT****
================================================================================

                       ****************************
                       * Single Point Calculation *
                       ****************************

---------------------------------
CARTESIAN COORDINATES (ANGSTROEM)
---------------------------------
  C     -2.168401    1.506987    0.020239
  C     -0.720111    1.732088   -0.379808
  H     -2.223678    0.987163    0.973759
  H     -2.689288    2.456816    0.114827
  H     -2.670914    0.906358   -0.735091
  S      0.172444    2.726494    0.828597
  H     -0.184463    0.785203   -0.465465
  H     -0.653253    2.259779   -1.332714

----------------------------
CARTESIAN COORDINATES (A.U.)
----------------------------
  NO LB      ZA    FRAG     MASS         X           Y           Z
   0 C     6.0000    0    12.011   -4.097683    2.847792    0.038246
   1 C     6.0000    0    12.011   -1.360813    3.273171   -0.717733
   2 H     1.0000    0     1.008   -4.202142    1.865469    1.840138
   3 H     1.0000    0     1.008   -5.082018    4.642710    0.216991
   4 H     1.0000    0     1.008   -5.047297    1.712769   -1.389121
   5 S    16.0000    0    32.060    0.325871    5.152328    1.565821
   6 H     1.0000    0     1.008   -0.348585    1.483818   -0.879602
   7 H     1.0000    0     1.008   -1.234469    4.270363   -2.518464

--------------------------------
INTERNAL COORDINATES (ANGSTROEM)
--------------------------------
 C      0   0   0     0.000000000000     0.00000000     0.00000000
 C      1   0   0     1.519292343576     0.00000000     0.00000000
 H      1   2   0     1.087415532918   110.49794712     0.00000000
 H      1   2   3     1.087403624080   110.49466509   120.06307012
 H      1   2   3     1.088024824172   109.83229596   240.02941710
 S      2   1   3     1.801593810631   112.17502371   299.81550376
 H      2   1   3     1.091259618754   111.10154129    59.22904715
 H      2   1   3     1.091310138924   111.09777015   180.40251270

---------------------------
INTERNAL COORDINATES (A.U.)
---------------------------
 C      0   0   0     0.000000000000     0.00000000     0.00000000
 C      1   0   0     2.871046446721     0.00000000     0.00000000
 H      1   2   0     2.054917550986   110.49794712     0.00000000
 H      1   2   3     2.054895046545   110.49466509   120.06307012
 H      1   2   3     2.056068944593   109.83229596   240.02941710
 S      2   1   3     3.404518906660   112.17502371   299.81550376
 H      2   1   3     2.062181820452   111.10154129    59.22904715
 H      2   1   3     2.062277289738   111.09777015   180.40251270

---------------------
BASIS SET INFORMATION
---------------------
There are 3 groups of distinct atoms

 Group   1 Type C   : 11s6p2d1f contracted to 5s3p2d1f pattern {62111/411/11/1}
 Group   2 Type H   : 5s1p contracted to 3s1p pattern {311/1}
 Group   3 Type S   : 14s9p3d1f contracted to 5s5p2d1f pattern {73211/51111/21/1}

Atom   0C    basis set group =>   1
Atom   1C    basis set group =>   1
Atom   2H    basis set group =>   2
Atom   3H    basis set group =>   2
Atom   4H    basis set group =>   2
Atom   5S    basis set group =>   3
Atom   6H    basis set group =>   2
Atom   7H    basis set group =>   2
---------------------------------
AUXILIARY/J BASIS SET INFORMATION
---------------------------------
There are 3 groups of distinct atoms

 Group   1 Type C   : 12s5p4d2f1g contracted to 6s4p3d1f1g pattern {711111/2111/211/2/1}
 Group   2 Type H   : 5s2p1d contracted to 3s1p1d pattern {311/2/1}
 Group   3 Type S   : 14s5p5d2f1g contracted to 8s4p3d1f1g pattern {71111111/2111/311/2/1}

Atom   0C    basis set group =>   1
Atom   1C    basis set group =>   1
Atom   2H    basis set group =>   2
Atom   3H    basis set group =>   2
Atom   4H    basis set group =>   2
Atom   5S    basis set group =>   3
Atom   6H    basis set group =>   2
Atom   7H    basis set group =>   2
------------------------------------------------------------------------------
                           ORCA GTO INTEGRAL CALCULATION
                           -- RI-GTO INTEGRALS CHOSEN --
------------------------------------------------------------------------------
------------------------------------------------------------------------------
                   ___                                                        
                  /   \      - P O W E R E D   B Y -                         
                 /     \                                                     
                 |  |  |   _    _      __       _____    __    __             
                 |  |  |  | |  | |    /  \     |  _  \  |  |  /  |          
                  \  \/   | |  | |   /    \    | | | |  |  | /  /          
                 / \  \   | |__| |  /  /\  \   | |_| |  |  |/  /          
                |  |  |   |  __  | /  /__\  \  |    /   |      \           
                |  |  |   | |  | | |   __   |  |    \   |  |\   \          
                \     /   | |  | | |  |  |  |  | |\  \  |  | \   \       
                 \___/    |_|  |_| |__|  |__|  |_| \__\ |__|  \__/        
                                                                              
                      - O R C A' S   B I G   F R I E N D -                    
                                      &                                       
                       - I N T E G R A L  F E E D E R -                       
                                                                              
 v1 FN, 2020, v2 2021                                                         
------------------------------------------------------------------------------


Reading SHARK input file inp.SHARKINP.tmp ... ok
----------------------
SHARK INTEGRAL PACKAGE
----------------------

Number of atoms                             ...      8
Number of basis functions                   ...    129
Number of shells                            ...     55
Maximum angular momentum                    ...      3
Integral batch strategy                     ... SHARK/LIBINT Hybrid
RI-J (if used) integral strategy            ... SPLIT-RIJ (Revised 2003 algorithm where possible)
Printlevel                                  ...      1
Contraction scheme used                     ... SEGMENTED contraction
Coulomb Range Separation                    ... NOT USED
Exchange Range Separation                   ... NOT USED
Finite Nucleus Model                        ... NOT USED
Auxiliary Coulomb fitting basis             ... AVAILABLE
   # of basis functions in Aux-J            ...    204
   # of shells in Aux-J                     ...     72
   Maximum angular momentum in Aux-J        ...      4
Auxiliary J/K fitting basis                 ... NOT available
Auxiliary Correlation fitting basis         ... NOT available
Auxiliary 'external' fitting basis          ... NOT available
Integral threshold                          ...     1.000000e-10
Primitive cut-off                           ...     1.000000e-11
Primitive pair pre-selection threshold      ...     1.000000e-11

Calculating pre-screening integrals         ... done (  0.0 sec) Dimension = 55
Organizing shell pair data                  ... done (  0.1 sec)
Shell pair information
Total number of shell pairs                 ...      1540
Shell pairs after pre-screening             ...      1509
Total number of primitive shell pairs       ...      4848
Primitive shell pairs kept                  ...      3945
          la=0 lb=0:    448 shell pairs
          la=1 lb=0:    469 shell pairs
          la=1 lb=1:    134 shell pairs
          la=2 lb=0:    179 shell pairs
          la=2 lb=1:     96 shell pairs
          la=2 lb=2:     21 shell pairs
          la=3 lb=0:     90 shell pairs
          la=3 lb=1:     48 shell pairs
          la=3 lb=2:     18 shell pairs
          la=3 lb=3:      6 shell pairs

Calculating one electron integrals          ... done (  0.0 sec)
Calculating RI/J V-Matrix + Cholesky decomp.... done (  0.1 sec)
Calculating Nuclear repulsion               ... done (  0.0 sec) ENN=     98.624018576651 Eh

SHARK setup successfully completed in   0.8 seconds

Maximum memory used throughout the entire GTOINT-calculation: 22.6 MB
-------------------------------------------------------------------------------
                                 ORCA SCF
-------------------------------------------------------------------------------

------------
SCF SETTINGS
------------
Hamiltonian:
 Density Functional     Method          .... DFT(GTOs)
 Exchange Functional    Exchange        .... PBE
   PBE kappa parameter   XKappa         ....  0.804000
   PBE mue parameter    XMuePBE         ....  0.219520
 Correlation Functional Correlation     .... PBE
   PBE beta parameter  CBetaPBE         ....  0.066725
 LDA part of GGA corr.  LDAOpt          .... PW91-LDA
 Gradients option       PostSCFGGA      .... off
   Density functional embedding theory  .... OFF
   NL short-range parameter             ....  6.400000
 RI-approximation to the Coulomb term is turned on
   Number of AuxJ basis functions       .... 204


General Settings:
 Integral files         IntName         .... inp
 Hartree-Fock type      HFTyp           .... RHF
 Total Charge           Charge          ....   -1
 Multiplicity           Mult            ....    1
 Number of Electrons    NEL             ....   34
 Basis Dimension        Dim             ....  129
 Nuclear Repulsion      ENuc            ....     98.6240185767 Eh

Convergence Acceleration:
 DIIS                   CNVDIIS         .... on
   Start iteration      DIISMaxIt       ....    12
   Startup error        DIISStart       ....  0.200000
   # of expansion vecs  DIISMaxEq       ....     5
   Bias factor          DIISBfac        ....   1.050
   Max. coefficient     DIISMaxC        ....  10.000
 Trust-Rad. Augm. Hess. CNVTRAH         .... auto
   Auto Start mean grad. ratio tolernc. ....  1.125000
   Auto Start start iteration           ....    20
   Auto Start num. interpolation iter.  ....    10
   Max. Number of Micro iterations      ....    16
   Max. Number of Macro iterations      .... Maxiter - #DIIS iter
   Number of Davidson start vectors     ....     2
   Converg. threshold I  (grad. norm)   ....   5.000e-05
   Converg. threshold II (energy diff.) ....   1.000e-06
   Grad. Scal. Fac. for Micro threshold ....   0.100
   Minimum threshold for Micro iter.    ....   0.010
   NR start threshold (gradient norm)   ....   0.001
   Initial trust radius                 ....   0.400
   Minimum AH scaling param. (alpha)    ....   1.000
   Maximum AH scaling param. (alpha)    .... 1000.000
   Orbital update algorithm             .... Taylor
   White noise on init. David. guess    .... on
   Maximum white noise                  ....   0.010
   Quad. conv. algorithm                .... NR
 SOSCF                  CNVSOSCF        .... on
   Start iteration      SOSCFMaxIt      ....   150
   Startup grad/error   SOSCFStart      ....  0.003300
 Level Shifting         CNVShift        .... on
   Level shift para.    LevelShift      ....    0.2500
   Turn off err/grad.   ShiftErr        ....    0.0010
 Zerner damping         CNVZerner       .... off
 Static damping         CNVDamp         .... on
   Fraction old density DampFac         ....    0.7000
   Max. Damping (<1)    DampMax         ....    0.9800
   Min. Damping (>=0)   DampMin         ....    0.0000
   Turn off err/grad.   DampErr         ....    0.1000
 Fernandez-Rico         CNVRico         .... off

SCF Procedure:
 Maximum # iterations   MaxIter         ....   125
 SCF integral mode      SCFMode         .... Direct
   Integral package                     .... SHARK and LIBINT hybrid scheme
 Reset frequency        DirectResetFreq ....    20
 Integral Threshold     Thresh          ....  1.000e-10 Eh
 Primitive CutOff       TCut            ....  1.000e-11 Eh

Convergence Tolerance:
 Convergence Check Mode ConvCheckMode   .... Total+1el-Energy
 Convergence forced     ConvForced      .... 0
 Energy Change          TolE            ....  1.000e-06 Eh
 1-El. energy change                    ....  1.000e-03 Eh
 Orbital Gradient       TolG            ....  5.000e-05
 Orbital Rotation angle TolX            ....  5.000e-05
 DIIS Error             TolErr          ....  1.000e-06


Diagonalization of the overlap matrix:
Smallest eigenvalue                        ... 5.306e-04
Time for diagonalization                   ...    0.003 sec
Threshold for overlap eigenvalues          ... 1.000e-08
Number of eigenvalues below threshold      ... 0
Time for construction of square roots      ...    0.043 sec
Total time needed                          ...    0.046 sec

Time for model grid setup =    0.153 sec

------------------------------
INITIAL GUESS: MODEL POTENTIAL
------------------------------
Loading Hartree-Fock densities                     ... done
Calculating cut-offs                               ... done
Initializing the effective Hamiltonian             ... done
Setting up the integral package (SHARK)            ... done
Starting the Coulomb interaction                   ... done (   0.1 sec)
Reading the grid                                   ... done
Mapping shells                                     ... done
Starting the XC term evaluation                    ... done (   0.1 sec)
  promolecular density results
     # of electrons  =     32.996941028
     EX              =    -36.553677712
     EC              =     -1.150503152
     EX+EC           =    -37.704180865
Transforming the Hamiltonian                       ... done (   0.0 sec)
Diagonalizing the Hamiltonian                      ... done (   0.0 sec)
Back transforming the eigenvectors                 ... done (   0.0 sec)
Now organizing SCF variables                       ... done
                      ------------------
                      INITIAL GUESS DONE (   0.3 sec)
                      ------------------
-------------------
DFT GRID GENERATION
-------------------

General Integration Accuracy     IntAcc      ... 4.388
Radial Grid Type                 RadialGrid  ... OptM3 with GC (2021)
Angular Grid (max. ang.)         AngularGrid ... 4 (Lebedev-302)
Angular grid pruning method      GridPruning ... 4 (adaptive)
Weight generation scheme         WeightScheme... Becke
Basis function cutoff            BFCut       ... 1.0000e-10
Integration weight cutoff        WCut        ... 1.0000e-14
Angular grids for H and He will be reduced by one unit
Partially contracted basis set               ... off
Rotationally invariant grid construction     ... off

Total number of grid points                  ...    35745
Total number of batches                      ...      562
Average number of points per batch           ...       63
Average number of grid points per atom       ...     4468
Time for grid setup =    0.393 sec


--------------------
CPCM SOLVATION MODEL
--------------------
CPCM parameters:
  Epsilon                                         ...      80.4000
  Refrac                                          ...       1.3300
  Rsolv                                           ...       1.3000
  Surface type                                    ... GAUSSIAN VDW
  Epsilon function type                           ...         CPCM
Radii:
 Radius for C  used is    3.8550 Bohr (=   2.0400 Ang.)
 Radius for H  used is    2.4944 Bohr (=   1.3200 Ang.)
 Radius for S  used is    4.0818 Bohr (=   2.1600 Ang.)
Calculating surface                               ...        done! (  0.0s)
GEPOL surface points                              ...          507
GEPOL Volume                                      ...     580.4118
GEPOL Surface-area                                ...     370.9974
Calculating surface distance matrix               ...        done! (  0.0s)
Performing Cholesky decomposition & store         ...        done! (  0.2s)
Overall time for CPCM initialization              ...                 0.2s
--------------
SCF ITERATIONS
--------------
ITER       Energy         Delta-E        Max-DP      RMS-DP      [F,P]     Damp
               ***  Starting incremental Fock matrix formation  ***
  0   -477.1283899050   0.000000000000 0.10634386  0.00288672  0.1920418 0.7000
  1   -477.2073061355  -0.078916230574 0.12246839  0.00269800  0.0893186 0.7000
                               ***Turning on DIIS***
  2   -477.2356749622  -0.028368826701 0.25695409  0.00532297  0.0296020 0.0000
  3   -477.2722146201  -0.036539657884 0.06813987  0.00139008  0.0595603 0.0000
  4   -477.2866432943  -0.014428674217 0.05492603  0.00096305  0.0212470 0.0000
  5   -477.2885308193  -0.001887525001 0.02461665  0.00037899  0.0052792 0.0000
                      *** Initiating the SOSCF procedure ***
                           *** Shutting down DIIS ***
                      *** Re-Reading the Fockian *** 
                      *** Removing any level shift *** 
ITER      Energy       Delta-E        Grad      Rot      Max-DP    RMS-DP
  6   -477.28868722  -0.0001563966  0.000509  0.000509  0.012928  0.000184
               *** Restarting incremental Fock matrix formation ***
  7   -477.28870444  -0.0000172205  0.000314  0.001674  0.016887  0.000230
  8   -477.28870516  -0.0000007230  0.000436  0.000453  0.001210  0.000028
  9   -477.28870695  -0.0000017877  0.000064  0.000221  0.001966  0.000027
                 **** Energy Check signals convergence ****
              ***Rediagonalizing the Fockian in SOSCF/NRSCF***

               *****************************************************
               *                     SUCCESS                       *
               *           SCF CONVERGED AFTER  10 CYCLES          *
               *****************************************************


----------------
TOTAL SCF ENERGY
----------------

Total Energy       :         -477.28870699 Eh          -12987.68600 eV

Components:
Nuclear Repulsion  :           98.62401858 Eh            2683.69598 eV
Electronic Energy  :         -575.91272557 Eh          -15671.38198 eV
One Electron Energy:         -859.76645879 Eh          -23395.43474 eV
Two Electron Energy:          283.85373322 Eh            7724.05276 eV
CPCM Dielectric    :           -0.11339418 Eh              -3.08561 eV

Virial components:
Potential Energy   :         -953.64902610 Eh          -25950.10928 eV
Kinetic Energy     :          476.36031911 Eh           12962.42328 eV
Virial Ratio       :            2.00194892


DFT components:
N(Alpha)           :       17.000004248109 electrons
N(Beta)            :       17.000004248109 electrons
N(Total)           :       34.000008496219 electrons
E(X)               :      -37.181102183265 Eh       
E(C)               :       -1.187908098345 Eh       
E(XC)              :      -38.369010281610 Eh       
DFET-embed. en.    :        0.000000000000 Eh       
CPCM Solvation Model Properties:
Surface-charge          :            0.96005384
Charge-correction       :           -0.00705584 Eh              -0.19200 eV
Free-energy (cav+disp)  :  This term is not implemented in the current solvation scheme

---------------
SCF CONVERGENCE
---------------

  Last Energy change         ...   -4.1289e-08  Tolerance :   1.0000e-06
  Last MAX-Density change    ...    1.9000e-04  Tolerance :   1.0000e-05
  Last RMS-Density change    ...    3.3799e-06  Tolerance :   1.0000e-06
  Last Orbital Gradient      ...    2.7283e-05  Tolerance :   5.0000e-05
  Last Orbital Rotation      ...    3.6761e-05  Tolerance :   5.0000e-05

             **** THE GBW FILE WAS UPDATED (inp.gbw) ****
             **** DENSITY inp.scfp WAS UPDATED ****
             **** ENERGY FILE WAS UPDATED (inp.en.tmp) ****
             **** THE GBW FILE WAS UPDATED (inp.gbw) ****
             **** DENSITY inp.scfp WAS UPDATED ****
----------------
ORBITAL ENERGIES
----------------

  NO   OCC          E(Eh)            E(eV) 
   0   2.0000     -87.934781     -2392.8271 
   1   2.0000      -9.869985      -268.5759 
   2   2.0000      -9.851107      -268.0623 
   3   2.0000      -7.561193      -205.7505 
   4   2.0000      -5.582770      -151.9149 
   5   2.0000      -5.576282      -151.7383 
   6   2.0000      -5.576214      -151.7365 
   7   2.0000      -0.681625       -18.5480 
   8   2.0000      -0.569805       -15.5052 
   9   2.0000      -0.474758       -12.9188 
  10   2.0000      -0.382778       -10.4159 
  11   2.0000      -0.351638        -9.5686 
  12   2.0000      -0.314688        -8.5631 
  13   2.0000      -0.293056        -7.9744 
  14   2.0000      -0.244702        -6.6587 
  15   2.0000      -0.138964        -3.7814 
  16   2.0000      -0.137199        -3.7334 
  17   0.0000       0.036683         0.9982 
  18   0.0000       0.069123         1.8809 
  19   0.0000       0.084259         2.2928 
  20   0.0000       0.091455         2.4886 
  21   0.0000       0.104115         2.8331 
  22   0.0000       0.119331         3.2472 
  23   0.0000       0.147103         4.0029 
  24   0.0000       0.186147         5.0653 
  25   0.0000       0.204247         5.5578 
  26   0.0000       0.220046         5.9877 
  27   0.0000       0.234814         6.3896 
  28   0.0000       0.269087         7.3222 
  29   0.0000       0.270757         7.3677 
  30   0.0000       0.297169         8.0864 
  31   0.0000       0.300608         8.1800 
  32   0.0000       0.371095        10.0980 
  33   0.0000       0.387338        10.5400 
  34   0.0000       0.389009        10.5855 
  35   0.0000       0.395640        10.7659 
  36   0.0000       0.419180        11.4065 
  37   0.0000       0.436802        11.8860 
  38   0.0000       0.454089        12.3564 
  39   0.0000       0.459660        12.5080 
  40   0.0000       0.486519        13.2389 
  41   0.0000       0.505534        13.7563 
  42   0.0000       0.512836        13.9550 
  43   0.0000       0.575975        15.6731 
  44   0.0000       0.608884        16.5686 
  45   0.0000       0.746842        20.3226 
  46   0.0000       0.778367        21.1805 
  47   0.0000       0.817872        22.2554 
  48   0.0000       0.833540        22.6818 
  49   0.0000       0.890841        24.2410 
  50   0.0000       0.930809        25.3286 
  51   0.0000       1.008804        27.4510 
  52   0.0000       1.014140        27.5962 
  53   0.0000       1.028260        27.9804 
  54   0.0000       1.057972        28.7889 
  55   0.0000       1.105070        30.0705 
  56   0.0000       1.422328        38.7035 
  57   0.0000       1.435904        39.0729 
  58   0.0000       1.471199        40.0334 
  59   0.0000       1.477991        40.2182 
  60   0.0000       1.491252        40.5790 
  61   0.0000       1.499711        40.8092 
  62   0.0000       1.511712        41.1358 
  63   0.0000       1.515607        41.2418 
  64   0.0000       1.534527        41.7566 
  65   0.0000       1.552735        42.2521 
  66   0.0000       1.564886        42.5827 
  67   0.0000       1.588965        43.2379 
  68   0.0000       1.640620        44.6435 
  69   0.0000       1.649977        44.8982 
  70   0.0000       1.683020        45.7973 
  71   0.0000       1.688357        45.9425 
  72   0.0000       1.709126        46.5077 
  73   0.0000       1.722253        46.8649 
  74   0.0000       1.792745        48.7831 
  75   0.0000       1.799570        48.9688 
  76   0.0000       1.827321        49.7239 
  77   0.0000       1.834148        49.9097 
  78   0.0000       1.860066        50.6150 
  79   0.0000       1.931380        52.5555 
  80   0.0000       1.939720        52.7825 
  81   0.0000       2.036636        55.4197 
  82   0.0000       2.043003        55.5929 
  83   0.0000       2.191634        59.6374 
  84   0.0000       2.264638        61.6239 
  85   0.0000       2.273209        61.8572 
  86   0.0000       2.304192        62.7003 
  87   0.0000       2.354879        64.0795 
  88   0.0000       2.372522        64.5596 
  89   0.0000       2.413882        65.6851 
  90   0.0000       2.506960        68.2178 
  91   0.0000       2.527517        68.7772 
  92   0.0000       2.574782        70.0634 
  93   0.0000       2.594772        70.6073 
  94   0.0000       2.627261        71.4914 
  95   0.0000       2.714474        73.8646 
  96   0.0000       2.716737        73.9262 
  97   0.0000       2.776045        75.5400 
  98   0.0000       2.886535        78.5466 
  99   0.0000       2.989055        81.3363 
 100   0.0000       2.999057        81.6085 
 101   0.0000       3.090809        84.1052 
 102   0.0000       3.126071        85.0647 
 103   0.0000       3.136668        85.3531 
 104   0.0000       3.183922        86.6389 
 105   0.0000       3.273720        89.0824 
 106   0.0000       3.285658        89.4073 
 107   0.0000       3.301299        89.8329 
 108   0.0000       3.394757        92.3760 
 109   0.0000       3.422970        93.1437 
 110   0.0000       3.441084        93.6367 
 111   0.0000       3.608645        98.1962 
 112   0.0000       3.697004       100.6006 
 113   0.0000       3.731193       101.5309 
 114   0.0000       3.831197       104.2522 
 115   0.0000       3.873945       105.4154 
 116   0.0000       3.925914       106.8295 
 117   0.0000       4.189606       114.0050 
 118   0.0000       4.226069       114.9972 
 119   0.0000       4.341889       118.1488 
 120   0.0000       4.366954       118.8309 
 121   0.0000       4.478181       121.8575 
 122   0.0000       4.675176       127.2180 
 123   0.0000       8.791754       239.2358 
 124   0.0000       8.801858       239.5107 
 125   0.0000       9.178577       249.7618 
 126   0.0000      18.793487       511.3968 
 127   0.0000      21.974386       597.9535 
 128   0.0000      22.095621       601.2524 

                    ********************************
                    * MULLIKEN POPULATION ANALYSIS *
                    ********************************

-----------------------
MULLIKEN ATOMIC CHARGES
-----------------------
   0 C :   -0.277486
   1 C :   -0.192730
   2 H :    0.083896
   3 H :    0.083880
   4 H :    0.092697
   5 S :   -0.995588
   6 H :    0.102778
   7 H :    0.102553
Sum of atomic charges:   -1.0000000

--------------------------------
MULLIKEN REDUCED ORBITAL CHARGES
--------------------------------
  0 C s       :     3.173838  s :     3.173838
      pz      :     1.041794  p :     3.044535
      px      :     0.957125
      py      :     1.045616
      dz2     :     0.008111  d :     0.055834
      dxz     :     0.015327
      dyz     :     0.007933
      dx2y2   :     0.004230
      dxy     :     0.020234
      f0      :     0.000275  f :     0.003279
      f+1     :     0.000383
      f-1     :     0.000583
      f+2     :     0.000483
      f-2     :     0.000226
      f+3     :     0.000718
      f-3     :     0.000611
  1 C s       :     3.224648  s :     3.224648
      pz      :     0.955954  p :     2.867336
      px      :     0.934931
      py      :     0.976451
      dz2     :     0.021064  d :     0.095869
      dxz     :     0.020093
      dyz     :     0.011913
      dx2y2   :     0.016772
      dxy     :     0.026026
      f0      :     0.000488  f :     0.004877
      f+1     :     0.000693
      f-1     :     0.000759
      f+2     :     0.000907
      f-2     :     0.000423
      f+3     :     0.000767
      f-3     :     0.000841
  2 H s       :     0.894813  s :     0.894813
      pz      :     0.010381  p :     0.021291
      px      :     0.004733
      py      :     0.006177
  3 H s       :     0.894825  s :     0.894825
      pz      :     0.004818  p :     0.021295
      px      :     0.006486
      py      :     0.009990
  4 H s       :     0.886267  s :     0.886267
      pz      :     0.007745  p :     0.021036
      px      :     0.006543
      py      :     0.006748
  5 S s       :     5.814149  s :     5.814149
      pz      :     3.592689  p :    11.104090
      px      :     3.784344
      py      :     3.727058
      dz2     :     0.013361  d :     0.069380
      dxz     :     0.016366
      dyz     :     0.018864
      dx2y2   :     0.008719
      dxy     :     0.012070
      f0      :     0.001043  f :     0.007969
      f+1     :     0.001171
      f-1     :     0.001170
      f+2     :     0.001096
      f-2     :     0.002263
      f+3     :     0.000538
      f-3     :     0.000687
  6 H s       :     0.875454  s :     0.875454
      pz      :     0.005029  p :     0.021767
      px      :     0.006930
      py      :     0.009808
  7 H s       :     0.875685  s :     0.875685
      pz      :     0.010271  p :     0.021761
      px      :     0.004888
      py      :     0.006602


                     *******************************
                     * LOEWDIN POPULATION ANALYSIS *
                     *******************************

----------------------
LOEWDIN ATOMIC CHARGES
----------------------
   0 C :   -0.379749
   1 C :   -0.628079
   2 H :    0.107347
   3 H :    0.107311
   4 H :    0.110573
   5 S :   -0.530491
   6 H :    0.106581
   7 H :    0.106507

-------------------------------
LOEWDIN REDUCED ORBITAL CHARGES
-------------------------------
  0 C s       :     2.850495  s :     2.850495
      pz      :     1.077758  p :     3.228821
      px      :     1.071837
      py      :     1.079226
      dz2     :     0.044433  d :     0.274860
      dxz     :     0.061681
      dyz     :     0.043582
      dx2y2   :     0.041390
      dxy     :     0.083774
      f0      :     0.002117  f :     0.025573
      f+1     :     0.004396
      f-1     :     0.002994
      f+2     :     0.003871
      f-2     :     0.002662
      f+3     :     0.005204
      f-3     :     0.004329
  1 C s       :     2.867537  s :     2.867537
      pz      :     1.079046  p :     3.248234
      px      :     1.089587
      py      :     1.079601
      dz2     :     0.109603  d :     0.474942
      dxz     :     0.087798
      dyz     :     0.074184
      dx2y2   :     0.094471
      dxy     :     0.108886
      f0      :     0.003557  f :     0.037366
      f+1     :     0.005977
      f-1     :     0.005348
      f+2     :     0.006975
      f-2     :     0.004025
      f+3     :     0.006340
      f-3     :     0.005145
  2 H s       :     0.829805  s :     0.829805
      pz      :     0.030808  p :     0.062848
      px      :     0.013494
      py      :     0.018545
  3 H s       :     0.829836  s :     0.829836
      pz      :     0.014162  p :     0.062853
      px      :     0.017936
      py      :     0.030755
  4 H s       :     0.826310  s :     0.826310
      pz      :     0.024296  p :     0.063117
      px      :     0.018236
      py      :     0.020586
  5 S s       :     5.503412  s :     5.503412
      pz      :     3.548709  p :    10.874307
      px      :     3.668731
      py      :     3.656867
      dz2     :     0.030002  d :     0.131759
      dxz     :     0.027665
      dyz     :     0.032548
      dx2y2   :     0.020011
      dxy     :     0.021534
      f0      :     0.002736  f :     0.021013
      f+1     :     0.003146
      f-1     :     0.003281
      f+2     :     0.003626
      f-2     :     0.004810
      f+3     :     0.001508
      f-3     :     0.001906
  6 H s       :     0.831149  s :     0.831149
      pz      :     0.014006  p :     0.062270
      px      :     0.018090
      py      :     0.030173
  7 H s       :     0.831235  s :     0.831235
      pz      :     0.030099  p :     0.062258
      px      :     0.013434
      py      :     0.018725


                      *****************************
                      * MAYER POPULATION ANALYSIS *
                      *****************************

  NA   - Mulliken gross atomic population
  ZA   - Total nuclear charge
  QA   - Mulliken gross atomic charge
  VA   - Mayer's total valence
  BVA  - Mayer's bonded valence
  FA   - Mayer's free valence

  ATOM       NA         ZA         QA         VA         BVA        FA
  0 C      6.2775     6.0000    -0.2775     3.7031     3.7031     0.0000
  1 C      6.1927     6.0000    -0.1927     4.1330     4.1330     0.0000
  2 H      0.9161     1.0000     0.0839     1.0200     1.0200     0.0000
  3 H      0.9161     1.0000     0.0839     1.0200     1.0200     0.0000
  4 H      0.9073     1.0000     0.0927     0.9874     0.9874     0.0000
  5 S     16.9956    16.0000    -0.9956     1.2468     1.2468     0.0000
  6 H      0.8972     1.0000     0.1028     0.9584     0.9584     0.0000
  7 H      0.8974     1.0000     0.1026     0.9586     0.9586     0.0000

  Mayer bond orders larger than 0.100000
B(  0-C ,  1-C ) :   0.9796 B(  0-C ,  2-H ) :   0.9635 B(  0-C ,  3-H ) :   0.9635 
B(  0-C ,  4-H ) :   0.9451 B(  0-C ,  5-S ) :  -0.1376 B(  1-C ,  5-S ) :   1.2280 
B(  1-C ,  6-H ) :   0.9658 B(  1-C ,  7-H ) :   0.9658 

-------
TIMINGS
-------

Total SCF time: 0 days 0 hours 0 min 20 sec 

Total time                  ....      20.050 sec
Sum of individual times     ....      17.465 sec  ( 87.1%)

Fock matrix formation       ....      14.984 sec  ( 74.7%)
  Split-RI-J                ....       0.884 sec  (  5.9% of F)
  XC integration            ....       8.813 sec  ( 58.8% of F)
    Basis function eval.    ....       1.335 sec  ( 15.1% of XC)
    Density eval.           ....       0.812 sec  (  9.2% of XC)
    XC-Functional eval.     ....       0.340 sec  (  3.9% of XC)
    XC-Potential eval.      ....       1.094 sec  ( 12.4% of XC)
Diagonalization             ....       0.018 sec  (  0.1%)
Density matrix formation    ....       0.001 sec  (  0.0%)
Population analysis         ....       0.141 sec  (  0.7%)
Initial guess               ....       0.175 sec  (  0.9%)
Orbital Transformation      ....       0.000 sec  (  0.0%)
Orbital Orthonormalization  ....       0.000 sec  (  0.0%)
DIIS solution               ....       1.506 sec  (  7.5%)
SOSCF solution              ....       0.094 sec  (  0.5%)
Grid generation             ....       0.546 sec  (  2.7%)

Maximum memory used throughout the entire SCF-calculation: 34.3 MB


-------------------------------------------------------------------------------
                          DFT DISPERSION CORRECTION                            
                                                                               
                              DFTD3 V3.1  Rev 1                                
                          USING Becke-Johnson damping                          
-------------------------------------------------------------------------------
The PBE functional is recognized
Active option DFTDOPT                   ...         4   

molecular C6(AA) [au] = 823.375322 


            DFT-D V3
 parameters
 s6 scaling factor         :     1.0000 
 a1 scaling factor         :     0.4289 
 s8 scaling factor         :     0.7875 
 a2 scaling factor         :     4.4407 
 ad hoc parameters k1-k3   :    16.0000     1.3333    -4.0000 

 Edisp/kcal,au: -3.216690196543  -0.005126121575 
 E6   /kcal   :  -2.233584809 
 E8   /kcal   :  -0.983105388 
 % E8         :  30.562638230 

-------------------------   ----------------
Dispersion correction           -0.005126122
-------------------------   ----------------


-------------------------   --------------------
FINAL SINGLE POINT ENERGY      -477.293833110131
-------------------------   --------------------


                            ***************************************
                            *     ORCA property calculations      *
                            ***************************************

                                    ---------------------
                                    Active property flags
                                    ---------------------
   (+) Dipole Moment


------------------------------------------------------------------------------
                       ORCA ELECTRIC PROPERTIES CALCULATION
------------------------------------------------------------------------------

Dipole Moment Calculation                       ... on
Quadrupole Moment Calculation                   ... off
Polarizability Calculation                      ... off
GBWName                                         ... inp.gbw
Electron density                                ... inp.scfp
The origin for moment calculation is the CENTER OF MASS  = (-1.164170,  4.135818  0.642764)

-------------
DIPOLE MOMENT
-------------
                                X             Y             Z
Electronic contribution:      3.43710       2.10869       1.72834
Nuclear contribution   :     -5.03394      -3.34383      -2.96505
                        -----------------------------------------
Total Dipole Moment    :     -1.59684      -1.23514      -1.23671
                        -----------------------------------------
Magnitude (a.u.)       :      2.36747
Magnitude (Debye)      :      6.01763



--------------------
Rotational spectrum 
--------------------
 
Rotational constants in cm-1:     1.067775     0.186288     0.168629 
Rotational constants in MHz : 32011.091618  5584.783500  5055.357991 

 Dipole components along the rotational axes: 
x,y,z [a.u.] :    -2.313890     0.500823     0.000194 
x,y,z [Debye]:    -5.881442     1.272990     0.000493 

 

Timings for individual modules:

Sum of individual times         ...       20.989 sec (=   0.350 min)
GTO integral calculation        ...        0.864 sec (=   0.014 min)   4.1 %
SCF iterations                  ...       20.126 sec (=   0.335 min)  95.9 %
                             ****ORCA TERMINATED NORMALLY****
TOTAL RUN TIME: 0 days 0 hours 0 minutes 22 seconds 883 msec
