8
 energy: -10.029129488392 gnorm: 0.027480139802 xtb: 6.7.1 (edcfbbe)
C           -2.14135400000000        1.51989000000000        0.02718700000000
C           -0.68898300000000        1.74233700000000       -0.37876500000000
H           -2.22269900000000        0.98249700000000        0.97935300000000
H           -2.69134300000000        2.46384500000000        0.11801900000000
H           -2.65001200000000        0.91679700000000       -0.73315900000000
S            0.14880700000000        2.75791200000000        0.89083900000000
H           -0.21507000000000        0.76259700000000       -0.51113200000000
H           -0.67701100000000        2.21501300000000       -1.36799800000000
8
 energy: -10.031815048109 gnorm: 0.005161020505 xtb: 6.7.1 (edcfbbe)
C           -2.16869576752926        1.50772305359878        0.02162843150188
C           -0.71838263773901        1.73295435996320       -0.37903849846544
H           -2.22842642442696        0.98507009758113        0.97612850793998
H           -2.69407293646532        2.45760244593308        0.11848560484747
H           -2.67348431533990        0.90666928139989       -0.73636562532074
S            0.17489863784166        2.73117361024697        0.83250278207118
H           -0.18061546861646        0.78352013732706       -0.47051086197017
H           -0.64888608772476        2.25617501394989       -1.33848634060415
8
 energy: -10.031871340838 gnorm: 0.001350936097 xtb: 6.7.1 (edcfbbe)
C           -2.16812070518369        1.50710377984710        0.02026635209339
C           -0.72087789731251        1.73167794865396       -0.37990834672893
H           -2.22226112153410        0.98660416895928        0.97398995930693
H           -2.68788793734428        2.45795975462847        0.11572151537537
H           -2.67084250371008        0.90682585120784       -0.73612099831510
S            0.17041091792045        2.72701516043760        0.82909065795121
H           -0.18436847229024        0.78395946529082       -0.46485703627954
H           -0.65371728054554        2.25974187097493       -1.33383810340334
8
 energy: -10.031872761730 gnorm: 0.000379262354 xtb: 6.7.1 (edcfbbe)
C           -2.16840055483329        1.50698672942772        0.02023909460222
C           -0.72011145138349        1.73208764529682       -0.37980774734410
H           -2.22367782728806        0.98716347605143        0.97375928297245
H           -2.68928822967117        2.45681611952334        0.11482662853117
H           -2.67091431290841        0.90635837232884       -0.73509097735862
S            0.17244356453591        2.72649434620791        0.82859662009412
H           -0.18446335624118        0.78520250103369       -0.46546518874143
H           -0.65325283221031        2.25977881013024       -1.33271371275580
