 Entering Gaussian System
 *********************************************
 Gaussian 98:
 frequency output generated by the xtb code
 *********************************************
                         Standard orientation:
 --------------------------------------------------------------------
  Center     Atomic     Atomic              Coordinates (Angstroms)
  Number     Number      Type              X           Y           Z
 --------------------------------------------------------------------
    1          7             0       -6.579257   -2.947861    3.286042
    2          6             0       -5.552548   -2.684950    2.538115
    3          1             0       -5.703579   -2.594871    1.481819
    4          8             0       -7.747753   -3.096492    2.774150
    5          1             0       -4.597748   -2.569219    3.008936
    6          8             0       -6.455270   -3.066012    4.558910
 --------------------------------------------------------------------
     1 basis functions        1 primitive gaussians
     1 alpha electrons        1 beta electrons
 
 Harmonic frequencies (cm**-1), IR intensities (km*mol⁻¹),
 Raman scattering activities (A**4/amu), Raman depolarization ratios,
 reduced masses (AMU), force constants (mDyne/A) and normal coordinates:
                      1                      2                      3
                        a                      a                      a 
 Frequencies --   496.0398               602.8235               615.2341
 Red. masses --     9.9255                 5.3463                14.8669
 Frc consts  --     0.0000                 0.0000                 0.0000
 IR Inten    --     1.5907               100.4262                28.0143
 Raman Activ --     0.0000                 0.0000                 0.0000
 Depolar     --     0.0000                 0.0000                 0.0000
 Atom AN      X      Y      Z        X      Y      Z        X      Y      Z
   1   7     0.19   0.01   0.27     0.05  -0.30  -0.03    -0.26  -0.07   0.19
   2   6    -0.23  -0.01  -0.32    -0.09   0.51   0.06    -0.29  -0.08   0.21
   3   1    -0.41  -0.07  -0.05     0.09  -0.54  -0.06    -0.09   0.00   0.06
   4   8     0.39   0.09  -0.18    -0.01   0.06   0.00    -0.02   0.06  -0.60
   5   1     0.08   0.06  -0.41     0.10  -0.55  -0.06    -0.08  -0.03   0.07
   6   8    -0.29  -0.09   0.32    -0.01   0.06   0.01     0.56   0.08   0.21
                      4                      5                      6
                        a                      a                      a 
 Frequencies --   634.5730               664.2334              1022.1380
 Red. masses --     1.6776                12.0359                13.7718
 Frc consts  --     0.0000                 0.0000                 0.0000
 IR Inten    --     0.0291                27.7273               162.0789
 Raman Activ --     0.0000                 0.0000                 0.0000
 Depolar     --     0.0000                 0.0000                 0.0000
 Atom AN      X      Y      Z        X      Y      Z        X      Y      Z
   1   7     0.01   0.00  -0.01     0.14  -0.80  -0.09     0.11   0.03  -0.08
   2   6     0.01  -0.00  -0.01    -0.01   0.08   0.01     0.37   0.10  -0.27
   3   1    -0.12   0.68   0.07    -0.05   0.29   0.03     0.18   0.04  -0.09
   4   8     0.03  -0.15  -0.00    -0.05   0.27   0.04    -0.54  -0.07  -0.21
   5   1     0.12  -0.67  -0.08    -0.05   0.29   0.03     0.14   0.04  -0.14
   6   8    -0.04   0.14   0.01    -0.05   0.27   0.03     0.03  -0.06   0.58
                      7                      8                      9
                        a                      a                      a 
 Frequencies --  1040.9194              1318.3206              1322.4201
 Red. masses --     6.8898                13.4379                 2.9684
 Frc consts  --     0.0000                 0.0000                 0.0000
 IR Inten    --    87.2111               552.6685                93.3239
 Raman Activ --     0.0000                 0.0000                 0.0000
 Depolar     --     0.0000                 0.0000                 0.0000
 Atom AN      X      Y      Z        X      Y      Z        X      Y      Z
   1   7     0.06   0.00   0.08     0.46   0.01   0.66    -0.26  -0.06   0.16
   2   6     0.29   0.01   0.40    -0.11  -0.00  -0.15    -0.13  -0.03   0.10
   3   1    -0.48  -0.10   0.17     0.20   0.04  -0.05     0.63   0.12  -0.07
   4   8    -0.31  -0.05  -0.06    -0.30  -0.04  -0.16     0.12   0.02   0.03
   5   1     0.31   0.10  -0.41    -0.10  -0.03   0.14     0.27   0.11  -0.59
   6   8     0.04   0.04  -0.31    -0.06   0.03  -0.35     0.01   0.01  -0.10
                     10                     11                     12
                        a                      a                      a 
 Frequencies --  1619.1184              3143.2445              3200.2891
 Red. masses --    12.7826                 1.4091                 2.1622
 Frc consts  --     0.0000                 0.0000                 0.0000
 IR Inten    --   514.5289                 4.7681                63.5279
 Raman Activ --     0.0000                 0.0000                 0.0000
 Depolar     --     0.0000                 0.0000                 0.0000
 Atom AN      X      Y      Z        X      Y      Z        X      Y      Z
   1   7     0.58   0.15  -0.43    -0.00  -0.00   0.00    -0.01  -0.00  -0.01
   2   6    -0.49  -0.12   0.35     0.15   0.04  -0.11    -0.19  -0.00  -0.26
   3   1     0.13   0.01   0.07     0.11  -0.06   0.68     0.08  -0.06   0.66
   4   8    -0.13  -0.02  -0.02    -0.00   0.00  -0.00     0.00   0.00   0.00
   5   1    -0.03   0.01  -0.14    -0.62  -0.07  -0.32     0.60   0.08   0.28
   6   8    -0.02  -0.02   0.13     0.00   0.00   0.00     0.00   0.00   0.00
