 Entering Gaussian System
 *********************************************
 Gaussian 98:
 frequency output generated by the xtb code
 *********************************************
                         Standard orientation:
 --------------------------------------------------------------------
  Center     Atomic     Atomic              Coordinates (Angstroms)
  Number     Number      Type              X           Y           Z
 --------------------------------------------------------------------
    1          6             0       -5.305572   -3.620911    0.513479
    2          6             0       -6.471441   -4.159579    1.322686
    3          8             0       -8.362228   -5.619630    1.156332
    4          8             0       -6.624478   -3.858486    2.489374
    5          8             0       -7.138934   -5.248527   -0.688409
    6          6             0       -7.437942   -5.119111    0.509383
    7          1             0       -4.647478   -3.002882    1.124980
    8          1             0       -4.761604   -4.461183    0.089307
    9          1             0       -5.707107   -3.044033   -0.316631
 --------------------------------------------------------------------
     1 basis functions        1 primitive gaussians
     1 alpha electrons        1 beta electrons
 
 Harmonic frequencies (cm**-1), IR intensities (km*mol⁻¹),
 Raman scattering activities (A**4/amu), Raman depolarization ratios,
 reduced masses (AMU), force constants (mDyne/A) and normal coordinates:
                      1                      2                      3
                        a                      a                      a 
 Frequencies --   -56.4770                49.9235               225.3540
 Red. masses --    10.3610                 5.2481                13.0534
 Frc consts  --     0.0000                 0.0000                 0.0000
 IR Inten    --     3.0592                 0.0401                 6.1511
 Raman Activ --     0.0000                 0.0000                 0.0000
 Depolar     --     0.0000                 0.0000                 0.0000
 Atom AN      X      Y      Z        X      Y      Z        X      Y      Z
   1   6    -0.19   0.28  -0.09    -0.13   0.18  -0.06     0.28   0.27   0.26
   2   6     0.02  -0.03   0.01     0.00   0.00   0.00     0.07   0.01  -0.20
   3   8    -0.26   0.34  -0.10    -0.17   0.23  -0.07     0.19   0.24   0.32
   4   8     0.17  -0.25   0.08     0.19  -0.28   0.10    -0.26  -0.28  -0.21
   5   8     0.28  -0.39   0.11     0.12  -0.15   0.04    -0.33  -0.28  -0.16
   6   6     0.02  -0.03   0.01    -0.01   0.02  -0.01     0.02   0.00  -0.10
   7   1     0.08  -0.12   0.03    -0.28   0.42  -0.13     0.00   0.06   0.18
   8   1    -0.20   0.14  -0.32     0.26   0.04   0.38     0.15   0.12   0.08
   9   1    -0.12   0.33   0.18    -0.06  -0.36  -0.29     0.15   0.12   0.07
                      4                      5                      6
                        a                      a                      a 
 Frequencies --   319.1627               363.0363               512.9950
 Red. masses --    11.4072                13.2046                13.8547
 Frc consts  --     0.0000                 0.0000                 0.0000
 IR Inten    --    21.3879                 1.5395                 0.2391
 Raman Activ --     0.0000                 0.0000                 0.0000
 Depolar     --     0.0000                 0.0000                 0.0000
 Atom AN      X      Y      Z        X      Y      Z        X      Y      Z
   1   6     0.01  -0.11   0.01     0.19   0.22   0.26     0.14   0.08  -0.09
   2   6    -0.41   0.56  -0.16     0.01   0.07  -0.01    -0.07  -0.09  -0.34
   3   8     0.17  -0.14   0.06    -0.30  -0.32  -0.26    -0.25  -0.16   0.14
   4   8     0.17  -0.26   0.13     0.47   0.30   0.01    -0.04  -0.20  -0.41
   5   8     0.13  -0.17   0.02    -0.21  -0.18  -0.02     0.31   0.33   0.39
   6   6    -0.19   0.30  -0.10    -0.23  -0.15  -0.05    -0.15   0.00   0.27
   7   1     0.09  -0.15   0.03    -0.04   0.03   0.20    -0.07  -0.02   0.13
   8   1    -0.13  -0.17   0.10     0.14   0.11   0.09     0.13   0.07  -0.00
   9   1     0.20  -0.00  -0.07     0.15   0.12   0.07     0.15   0.09  -0.03
                      7                      8                      9
                        a                      a                      a 
 Frequencies --   605.3300               713.1955               741.9293
 Red. masses --    11.5951                10.2973                13.4774
 Frc consts  --     0.0000                 0.0000                 0.0000
 IR Inten    --    19.3878                36.9417               127.5171
 Raman Activ --     0.0000                 0.0000                 0.0000
 Depolar     --     0.0000                 0.0000                 0.0000
 Atom AN      X      Y      Z        X      Y      Z        X      Y      Z
   1   6    -0.40  -0.19   0.29     0.09  -0.09   0.02    -0.17  -0.09   0.08
   2   6    -0.29  -0.27  -0.12     0.17  -0.23   0.08    -0.04  -0.06  -0.11
   3   8     0.16   0.19   0.24     0.12  -0.18   0.04     0.15  -0.01  -0.44
   4   8     0.32   0.16  -0.19    -0.05   0.05  -0.03     0.04  -0.03  -0.17
   5   8     0.18   0.07  -0.18     0.13  -0.18   0.06    -0.33  -0.16   0.28
   6   6     0.01  -0.02  -0.14    -0.45   0.60  -0.17     0.40   0.40   0.35
   7   1    -0.26  -0.08   0.27    -0.06   0.11  -0.05    -0.12  -0.05   0.12
   8   1     0.01   0.03   0.08     0.17   0.17  -0.17     0.00   0.01   0.03
   9   1    -0.03   0.03   0.10    -0.27  -0.04   0.13     0.00   0.01   0.03
                     10                     11                     12
                        a                      a                      a 
 Frequencies --   935.5661               952.1051              1122.1263
 Red. masses --     5.9224                 7.6767                 9.2985
 Frc consts  --     0.0000                 0.0000                 0.0000
 IR Inten    --     3.2499                15.2303                84.9190
 Raman Activ --     0.0000                 0.0000                 0.0000
 Depolar     --     0.0000                 0.0000                 0.0000
 Atom AN      X      Y      Z        X      Y      Z        X      Y      Z
   1   6     0.20  -0.29   0.15    -0.18   0.09   0.48     0.31   0.25   0.08
   2   6    -0.21   0.37  -0.15     0.35   0.13  -0.18    -0.61  -0.41   0.06
   3   8    -0.06   0.04  -0.02    -0.07  -0.06   0.01     0.07   0.05  -0.03
   4   8     0.05  -0.07  -0.01     0.06  -0.05  -0.31     0.11   0.06  -0.08
   5   8    -0.03   0.06  -0.00     0.03   0.02   0.04    -0.02   0.00   0.06
   6   6     0.14  -0.21   0.07    -0.08  -0.02   0.01     0.07   0.05   0.02
   7   1    -0.07   0.18  -0.09     0.25   0.06  -0.24     0.33   0.12  -0.32
   8   1     0.26   0.24  -0.29    -0.39  -0.21   0.13    -0.12  -0.06  -0.01
   9   1    -0.48  -0.10   0.26    -0.25  -0.20   0.06    -0.08  -0.09  -0.01
                     13                     14                     15
                        a                      a                      a 
 Frequencies --  1284.0170              1339.4755              1449.4913
 Red. masses --    14.5944                 3.2874                 1.6667
 Frc consts  --     0.0000                 0.0000                 0.0000
 IR Inten    --   212.5073                16.9000                 1.1830
 Raman Activ --     0.0000                 0.0000                 0.0000
 Depolar     --     0.0000                 0.0000                 0.0000
 Atom AN      X      Y      Z        X      Y      Z        X      Y      Z
   1   6     0.06   0.04  -0.01    -0.33  -0.15   0.26     0.14  -0.18   0.06
   2   6    -0.02   0.00   0.03     0.03   0.02  -0.01     0.01  -0.02   0.00
   3   8    -0.43  -0.24   0.27    -0.04  -0.02   0.02     0.00  -0.00  -0.00
   4   8     0.01   0.00  -0.00     0.00  -0.00  -0.01     0.00  -0.00   0.01
   5   8     0.12  -0.08  -0.57     0.01  -0.00  -0.03    -0.00  -0.00   0.00
   6   6     0.33   0.34   0.32     0.03   0.03   0.02    -0.01   0.01  -0.00
   7   1    -0.01   0.00   0.02     0.29   0.08  -0.41    -0.41   0.59  -0.15
   8   1    -0.04  -0.02   0.00     0.29   0.34  -0.26    -0.39  -0.18  -0.19
   9   1    -0.04  -0.02   0.00     0.49   0.06  -0.17     0.28   0.29   0.10
                     16                     17                     18
                        a                      a                      a 
 Frequencies --  1460.2095              1739.7814              1776.1828
 Red. masses --     1.7324                13.2834                13.2792
 Frc consts  --     0.0000                 0.0000                 0.0000
 IR Inten    --    15.9098                66.0848               742.4662
 Raman Activ --     0.0000                 0.0000                 0.0000
 Depolar     --     0.0000                 0.0000                 0.0000
 Atom AN      X      Y      Z        X      Y      Z        X      Y      Z
   1   6     0.11   0.14   0.16     0.00   0.01   0.03    -0.01   0.00   0.01
   2   6    -0.00  -0.02  -0.04     0.07  -0.20  -0.71     0.03  -0.07  -0.26
   3   8     0.02   0.01  -0.01     0.09   0.05  -0.07    -0.29  -0.15   0.20
   4   8    -0.01   0.02   0.07    -0.07   0.14   0.54    -0.02   0.06   0.21
   5   8    -0.00   0.00   0.01     0.04  -0.01  -0.12    -0.08   0.04   0.34
   6   6    -0.02  -0.02   0.01    -0.14  -0.03   0.26     0.44   0.15  -0.62
   7   1    -0.16  -0.08   0.29     0.05   0.01  -0.06     0.00  -0.00  -0.01
   8   1    -0.26   0.12  -0.55     0.00  -0.03   0.05    -0.01  -0.01   0.01
   9   1     0.10  -0.52  -0.40    -0.03   0.03   0.03    -0.02  -0.00   0.00
                     19                     20                     21
                        a                      a                      a 
 Frequencies --  2984.8889              3026.2687              3039.6779
 Red. masses --     1.6438                 1.9129                 1.5752
 Frc consts  --     0.0000                 0.0000                 0.0000
 IR Inten    --    78.1716                19.1516                15.7143
 Raman Activ --     0.0000                 0.0000                 0.0000
 Depolar     --     0.0000                 0.0000                 0.0000
 Atom AN      X      Y      Z        X      Y      Z        X      Y      Z
   1   6     0.15   0.14   0.13    -0.15   0.22  -0.11     0.04  -0.11  -0.19
   2   6     0.01   0.01   0.01    -0.00   0.01  -0.00     0.00  -0.00  -0.01
   3   8     0.00   0.00  -0.00    -0.00  -0.00   0.00    -0.00  -0.00   0.00
   4   8    -0.00  -0.00  -0.00     0.00  -0.00   0.00     0.00   0.00   0.00
   5   8    -0.00  -0.00   0.00    -0.00  -0.00   0.00    -0.00  -0.00   0.00
   6   6    -0.00  -0.00  -0.00     0.00   0.00  -0.00     0.00   0.00  -0.00
   7   1    -0.57  -0.54  -0.56    -0.01   0.04  -0.01     0.05   0.03   0.02
   8   1    -0.01   0.07   0.04     0.24  -0.38  -0.22    -0.41   0.65   0.30
   9   1     0.04  -0.01   0.06     0.30  -0.42   0.63     0.20  -0.29   0.37
