      -----------------------------------------------------------      
     |                   =====================                   |     
     |                           x T B                           |     
     |                   =====================                   |     
     |                         S. Grimme                         |     
     |          Mulliken Center for Theoretical Chemistry        |     
     |                    University of Bonn                     |     
      -----------------------------------------------------------      

   * xtb version 6.7.1 (edcfbbe) compiled by 'albert@albert-system' on 2024-07-22

   xtb is free software: you can redistribute it and/or modify it under
   the terms of the GNU Lesser General Public License as published by
   the Free Software Foundation, either version 3 of the License, or
   (at your option) any later version.
   
   xtb is distributed in the hope that it will be useful,
   but WITHOUT ANY WARRANTY; without even the implied warranty of
   MERCHANTABILITY or FITNESS FOR A PARTICULAR PURPOSE.  See the
   GNU Lesser General Public License for more details.
   
   Cite this work as:
   * C. Bannwarth, E. Caldeweyher, S. Ehlert, A. Hansen, P. Pracht,
     J. Seibert, S. Spicher, S. Grimme, WIREs Comput. Mol. Sci., 2020, 11,
     e01493. DOI: 10.1002/wcms.1493
   
   for GFN2-xTB:
   * C. Bannwarth, S. Ehlert and S. Grimme., J. Chem. Theory Comput., 2019,
     15, 1652-1671. DOI: 10.1021/acs.jctc.8b01176
   for GFN1-xTB:
   * S. Grimme, C. Bannwarth, P. Shushkov, J. Chem. Theory Comput., 2017,
     13, 1989-2009. DOI: 10.1021/acs.jctc.7b00118
   for GFN0-xTB:
   * P. Pracht, E. Caldeweyher, S. Ehlert, S. Grimme, ChemRxiv, 2019, preprint.
     DOI: 10.26434/chemrxiv.8326202.v1
   for GFN-FF:
   * S. Spicher and S. Grimme, Angew. Chem. Int. Ed., 2020, 59, 15665-15673.
     DOI: 10.1002/anie.202004239
   
   for ALPB and GBSA implicit solvation:
   * S. Ehlert, M. Stahn, S. Spicher, S. Grimme, J. Chem. Theory Comput.,
     2021, 17, 4250-4261. DOI: 10.1021/acs.jctc.1c00471
   
   for ddCOSMO and CPCM-X implicit solvation:
   * M. Stahn, S. Ehlert, S. Grimme, J. Phys. Chem. A,
     2023, XX, XXXX-XXXX. DOI: 10.1021/acs.jpca.3c04382
   
   for DFT-D4:
   * E. Caldeweyher, C. Bannwarth and S. Grimme, J. Chem. Phys., 2017,
     147, 034112. DOI: 10.1063/1.4993215
   * E. Caldeweyher, S. Ehlert, A. Hansen, H. Neugebauer, S. Spicher,
     C. Bannwarth and S. Grimme, J. Chem. Phys., 2019, 150, 154122.
     DOI: 10.1063/1.5090222
   * E. Caldeweyher, J.-M. Mewes, S. Ehlert and S. Grimme, Phys. Chem. Chem. Phys.
     2020, 22, 8499-8512. DOI: 10.1039/D0CP00502A
   
   for sTDA-xTB:
   * S. Grimme and C. Bannwarth, J. Chem. Phys., 2016, 145, 054103.
     DOI: 10.1063/1.4959605
   
   in the mass-spec context:
   * V. Asgeirsson, C. Bauer and S. Grimme, Chem. Sci., 2017, 8, 4879.
     DOI: 10.1039/c7sc00601b
   * J. Koopman and S. Grimme, ACS Omega 2019, 4, 12, 15120-15133.
     DOI: 10.1021/acsomega.9b02011
   
   for metadynamics refer to:
   * S. Grimme, J. Chem. Theory Comput., 2019, 155, 2847-2862
     DOI: 10.1021/acs.jctc.9b00143
   
   for SPH calculations refer to:
   * S. Spicher and S. Grimme, J. Chem. Theory Comput., 2021, 17, 1701-1714
     DOI: 10.1021/acs.jctc.0c01306
   
   for ONIOM refer to:
   * C. Plett, A. Katbashev, S. Ehlert, S. Grimme, M. Bursch,
     Phys. Chem. Chem. Phys., 2023, 25, 17860-17868. DOI: 10.1039/D3CP02178E
   
   for DIPRO refer to:
   * J. Kohn, N. Gildemeister, S. Grimme, D. Fazzi, A. Hansen,
     J. Chem. Phys., 2023, just accepted.
   
   for PTB refer to:
   * S. Grimme, M. Mueller, A. Hansen, J. Chem. Phys., 2023, 158, 124111.
     DOI: 10.1063/5.0137838
   
   with help from (in alphabetical order)
   P. Atkinson, C. Bannwarth, F. Bohle, G. Brandenburg, E. Caldeweyher
   M. Checinski, S. Dohm, S. Ehlert, S. Ehrlich, I. Gerasimov, C. Hölzer
   A. Katbashev, J. Kohn, J. Koopman, C. Lavigne, S. Lehtola, F. März, M. Müller,
   F. Musil, H. Neugebauer, J. Pisarek, C. Plett, P. Pracht, F. Pultar,
   J. Seibert, P. Shushkov, S. Spicher, M. Stahn, M. Steiner, T. Strunk,
   J. Stückrath, T. Rose, and J. Unsleber
   
 * started run on 2025/10/18 at 03:51:54.430     
   ID    Z sym.   atoms
    1    6 C      1, 2, 6
    2    8 O      3-5
    3    1 H      7-9

           -------------------------------------------------
          |                Calculation Setup                |
           -------------------------------------------------

          program call               : xtb xyz.xyz --charge -1 --ohess
          hostname                   : m003
          coordinate file            : xyz.xyz
          omp threads                :                     2


           -------------------------------------------------
          |                 G F N 2 - x T B                 |
           -------------------------------------------------

        Reference                      10.1021/acs.jctc.8b01176
      * Hamiltonian:
        H0-scaling (s, p, d)           1.850000    2.230000    2.230000
        zeta-weighting                 0.500000
      * Dispersion:
        s8                             2.700000
        a1                             0.520000
        a2                             5.000000
        s9                             5.000000
      * Repulsion:
        kExp                           1.500000    1.000000
        rExp                           1.000000
      * Coulomb:
        alpha                          2.000000
        third order                    shell-resolved
        anisotropic                    true
        a3                             3.000000
        a5                             4.000000
        cn-shift                       1.200000
        cn-exp                         4.000000
        max-rad                        5.000000

q/qsh data taken from xtbrestart
CAMM data taken from xtbrestart

          ...................................................
          :                      SETUP                      :
          :.................................................:
          :  # basis functions                  27          :
          :  # atomic orbitals                  27          :
          :  # shells                           15          :
          :  # electrons                        34          :
          :  max. iterations                   250          :
          :  Hamiltonian                  GFN2-xTB          :
          :  restarted?                       true          :
          :  GBSA solvation                  false          :
          :  PC potential                    false          :
          :  electronic temp.          300.0000000     K    :
          :  accuracy                    1.0000000          :
          :  -> integral cutoff          0.2500000E+02      :
          :  -> integral neglect         0.1000000E-07      :
          :  -> SCF convergence          0.1000000E-05 Eh   :
          :  -> wf. convergence          0.1000000E-03 e    :
          :  Broyden damping             0.4000000          :
          :  net charge                         -1          :
          :  unpaired electrons                  0          :
          ...................................................

 iter      E             dE          RMSdq      gap      omega  full diag
   1    -20.5148075 -0.205148E+02  0.414E-01    1.76       0.0  T
   2    -20.5152375 -0.429974E-03  0.249E-01    1.69       1.0  T
   3    -20.5153101 -0.726854E-04  0.139E-01    1.68       1.0  T
   4    -20.5153263 -0.161489E-04  0.280E-02    1.66       1.2  T
   5    -20.5153281 -0.175341E-05  0.114E-02    1.67       2.9  T
   6    -20.5153286 -0.581979E-06  0.484E-03    1.67       6.9  T
   7    -20.5153287 -0.406390E-07  0.139E-03    1.67      23.9  T
   8    -20.5153287 -0.146402E-08  0.437E-04    1.67      76.3  T
   9    -20.5153287 -0.107345E-09  0.859E-05    1.67     387.9  T

   *** convergence criteria satisfied after 9 iterations ***

         #    Occupation            Energy/Eh            Energy/eV
      -------------------------------------------------------------
         1        2.0000           -0.5440748             -14.8050
       ...           ...                  ...                  ...
        11        2.0000           -0.3267049              -8.8901
        12        2.0000           -0.3075940              -8.3701
        13        2.0000           -0.2971943              -8.0871
        14        2.0000           -0.2620703              -7.1313
        15        2.0000           -0.2059041              -5.6029
        16        2.0000           -0.1917600              -5.2181
        17        2.0000           -0.1760578              -4.7908 (HOMO)
        18                         -0.1146508              -3.1198 (LUMO)
        19                          0.0285858               0.7779
        20                          0.2441497               6.6437
        21                          0.2877427               7.8299
        22                          0.3062190               8.3326
       ...                                ...                  ...
        27                          0.8202352              22.3197
      -------------------------------------------------------------
                  HL-Gap            0.0614069 Eh            1.6710 eV
             Fermi-level           -0.1453543 Eh           -3.9553 eV

 SCC (total)                   0 d,  0 h,  0 min,  0.024 sec
 SCC setup                      ...        0 min,  0.000 sec (  0.552%)
 Dispersion                     ...        0 min,  0.000 sec (  0.322%)
 classical contributions        ...        0 min,  0.000 sec (  0.103%)
 integral evaluation            ...        0 min,  0.001 sec (  2.200%)
 iterations                     ...        0 min,  0.022 sec ( 92.406%)
 molecular gradient             ...        0 min,  0.001 sec (  3.922%)
 printout                       ...        0 min,  0.000 sec (  0.366%)

         :::::::::::::::::::::::::::::::::::::::::::::::::::::
         ::                     SUMMARY                     ::
         :::::::::::::::::::::::::::::::::::::::::::::::::::::
         :: total energy             -20.361314894178 Eh    ::
         :: gradient norm              0.082684098162 Eh/a0 ::
         :: HOMO-LUMO gap              1.670967639411 eV    ::
         ::.................................................::
         :: SCC energy               -20.515326871794 Eh    ::
         :: -> isotropic ES            0.217170981838 Eh    ::
         :: -> anisotropic ES          0.004713681660 Eh    ::
         :: -> anisotropic XC         -0.001126692970 Eh    ::
         :: -> dispersion             -0.005296999220 Eh    ::
         :: repulsion energy           0.154011977616 Eh    ::
         :: add. restraining           0.000000000000 Eh    ::
         :: total charge              -1.000000000000 e     ::
         :::::::::::::::::::::::::::::::::::::::::::::::::::::

      ----------------------------------------------------------- 
     |                   =====================                   |
     |                        A N C O P T                        |
     |                   =====================                   |
     |               Approximate Normal Coordinate               |
     |                Rational Function Optimizer                |
      ----------------------------------------------------------- 
      ----------------------------------------------------------- 
     |                   =====================                   |
     |                        A N C O P T                        |
     |                   =====================                   |
     |               Approximate Normal Coordinate               |
     |                Rational Function Optimizer                |
      ----------------------------------------------------------- 

          ...................................................
          :                      SETUP                      :
          :.................................................:
          :   optimization level            normal          :
          :   max. optcycles                   200          :
          :   ANC micro-cycles                  20          :
          :   degrees of freedom                21          :
          :.................................................:
          :   RF solver                   davidson          :
          :   write xtbopt.log                true          :
          :   linear?                        false          :
          :   energy convergence         0.5000000E-05 Eh   :
          :   grad. convergence          0.1000000E-02 Eh/α :
          :   maxmium RF displ.          1.0000000          :
          :   Hlow (freq-cutoff)         0.1000000E-01      :
          :   Hmax (freq-cutoff)         5.0000000          :
          :   S6 in model hess.         20.0000000          :
          ...................................................

generating ANC from exact Hessian ...
Using Lindh-Hessian (1995)
 Shifting diagonal of input Hessian by   9.718598518701025E-004
 Lowest  eigenvalues of input Hessian
    0.000000    0.000000    0.000000    0.000000    0.000000    0.000000
    0.010000    0.012058    0.020673    0.045854    0.061527    0.064812
    0.082173    0.107540    0.122031    0.138639    0.167005    0.198743
 Highest eigenvalues
    1.097858    1.112979    1.193041    1.626032    2.019694    2.242685
 

........................................................................
.............................. CYCLE    1 ..............................
........................................................................

 iter      E             dE          RMSdq      gap      omega  full diag
   1    -20.5153287 -0.205153E+02  0.323E-05    1.67       0.0  T
   2    -20.5153287 -0.582645E-12  0.184E-05    1.67    1814.6  T
   3    -20.5153287  0.497380E-13  0.104E-05    1.67    3195.8  T
     SCC iter.                  ...        0 min,  0.001 sec
     gradient                   ...        0 min,  0.001 sec
 * total energy  :   -20.3613149 Eh     change       -0.3068834E-10 Eh
   gradient norm :     0.0826844 Eh/α   predicted     0.0000000E+00 (-100.00%)
   displ. norm   :     0.1727468 α      lambda       -0.6311727E-02
   maximum displ.:     0.1325064 α      in ANC's #3, #10, #12, ...

........................................................................
.............................. CYCLE    2 ..............................
........................................................................

 iter      E             dE          RMSdq      gap      omega  full diag
   1    -20.5304919 -0.205305E+02  0.259E-01    1.75       0.0  T
   2    -20.5306293 -0.137322E-03  0.155E-01    1.76       1.0  T
   3    -20.5306452 -0.159152E-04  0.824E-02    1.77       1.0  T
   4    -20.5306508 -0.560500E-05  0.934E-03    1.78       3.6  T
   5    -20.5306509 -0.128465E-06  0.483E-03    1.77       6.9  T
   6    -20.5306509 -0.305535E-07  0.221E-03    1.77      15.1  T
   7    -20.5306509 -0.155264E-07  0.655E-04    1.77      50.9  T
   8    -20.5306509 -0.375913E-09  0.280E-04    1.77     119.2  T
     SCC iter.                  ...        0 min,  0.002 sec
     gradient                   ...        0 min,  0.001 sec
 * total energy  :   -20.3655266 Eh     change       -0.4211687E-02 Eh
   gradient norm :     0.0343439 Eh/α   predicted    -0.3250038E-02 ( -22.83%)
   displ. norm   :     0.1319153 α      lambda       -0.1649944E-02
   maximum displ.:     0.1116174 α      in ANC's #3, #10, #5, ...

........................................................................
.............................. CYCLE    3 ..............................
........................................................................

 iter      E             dE          RMSdq      gap      omega  full diag
   1    -20.5359721 -0.205360E+02  0.188E-01    1.80       0.0  T
   2    -20.5360254 -0.533437E-04  0.115E-01    1.82       1.0  T
   3    -20.5360295 -0.407729E-05  0.577E-02    1.82       1.0  T
   4    -20.5360344 -0.487251E-05  0.983E-03    1.83       3.4  T
   5    -20.5360347 -0.298819E-06  0.405E-03    1.83       8.2  T
   6    -20.5360347 -0.523032E-07  0.172E-03    1.83      19.4  T
   7    -20.5360347 -0.444803E-08  0.491E-04    1.83      67.9  T
   8    -20.5360347 -0.193360E-09  0.153E-04    1.83     217.2  T
     SCC iter.                  ...        0 min,  0.002 sec
     gradient                   ...        0 min,  0.001 sec
 * total energy  :   -20.3663591 Eh     change       -0.8325205E-03 Eh
   gradient norm :     0.0134633 Eh/α   predicted    -0.8393303E-03 (   0.82%)
   displ. norm   :     0.1339627 α      lambda       -0.9356759E-03
   maximum displ.:     0.0746474 α      in ANC's #3, #5, #4, ...

........................................................................
.............................. CYCLE    4 ..............................
........................................................................

 iter      E             dE          RMSdq      gap      omega  full diag
   1    -20.5368721 -0.205369E+02  0.290E-01    1.84       0.0  T
   2    -20.5368965 -0.243875E-04  0.172E-01    1.86       1.0  T
   3    -20.5368836  0.128929E-04  0.587E-02    1.86       1.0  T
   4    -20.5369018 -0.182555E-04  0.819E-03    1.87       4.1  T
   5    -20.5369020 -0.179138E-06  0.376E-03    1.86       8.9  T
   6    -20.5369020 -0.220519E-07  0.173E-03    1.86      19.3  T
   7    -20.5369020 -0.279532E-08  0.497E-04    1.86      67.1  T
   8    -20.5369020 -0.436884E-09  0.160E-04    1.86     207.8  T
     SCC iter.                  ...        0 min,  0.001 sec
     gradient                   ...        0 min,  0.001 sec
 * total energy  :   -20.3661711 Eh     change        0.1879871E-03 Eh
   gradient norm :     0.0183067 Eh/α   predicted    -0.4762356E-03 (-353.33%)
   displ. norm   :     0.0683243 α      lambda       -0.8886385E-03
   maximum displ.:     0.0390450 α      in ANC's #5, #4, #3, ...

........................................................................
.............................. CYCLE    5 ..............................
........................................................................

 iter      E             dE          RMSdq      gap      omega  full diag
   1    -20.5356721 -0.205357E+02  0.175E-01    1.85       0.0  T
   2    -20.5356775 -0.537541E-05  0.104E-01    1.85       1.0  T
   3    -20.5356754  0.210492E-05  0.237E-02    1.85       1.4  T
   4    -20.5356784 -0.301487E-05  0.403E-03    1.84       8.3  T
   5    -20.5356784 -0.387106E-07  0.215E-03    1.85      15.5  T
   6    -20.5356784 -0.517718E-08  0.831E-04    1.85      40.1  T
   7    -20.5356784 -0.142596E-08  0.233E-04    1.85     143.1  T
     SCC iter.                  ...        0 min,  0.001 sec
     gradient                   ...        0 min,  0.001 sec
 * total energy  :   -20.3666435 Eh     change       -0.4724043E-03 Eh
   gradient norm :     0.0037794 Eh/α   predicted    -0.4463947E-03 (  -5.51%)
   displ. norm   :     0.0110708 α      lambda       -0.2036893E-04
   maximum displ.:     0.0062110 α      in ANC's #3, #2, #15, ...

........................................................................
.............................. CYCLE    6 ..............................
........................................................................

 iter      E             dE          RMSdq      gap      omega  full diag
   1    -20.5354344 -0.205354E+02  0.175E-02    1.84       0.0  T
   2    -20.5354348 -0.368453E-06  0.111E-02    1.85       3.0  T
   3    -20.5354348 -0.184328E-07  0.553E-03    1.85       6.0  T
   4    -20.5354349 -0.841705E-07  0.824E-04    1.85      40.4  T
   5    -20.5354349 -0.182426E-08  0.307E-04    1.85     108.7  T
     SCC iter.                  ...        0 min,  0.001 sec
     gradient                   ...        0 min,  0.001 sec
 * total energy  :   -20.3666583 Eh     change       -0.1477430E-04 Eh
   gradient norm :     0.0022531 Eh/α   predicted    -0.1018411E-04 ( -31.07%)
   displ. norm   :     0.0166721 α      lambda       -0.1243604E-04
   maximum displ.:     0.0112313 α      in ANC's #2, #3, #1, ...

........................................................................
.............................. CYCLE    7 ..............................
........................................................................

 iter      E             dE          RMSdq      gap      omega  full diag
   1    -20.5353376 -0.205353E+02  0.170E-02    1.84       0.0  T
   2    -20.5353382 -0.591027E-06  0.108E-02    1.85       3.1  T
   3    -20.5353383 -0.136727E-06  0.581E-03    1.85       5.7  T
   4    -20.5353384 -0.535614E-07  0.110E-03    1.85      30.4  T
   5    -20.5353384 -0.141196E-08  0.301E-04    1.85     110.7  T
   6    -20.5353384 -0.301906E-09  0.141E-04    1.85     235.8  T
     SCC iter.                  ...        0 min,  0.001 sec
     gradient                   ...        0 min,  0.001 sec
 * total energy  :   -20.3666656 Eh     change       -0.7257409E-05 Eh
   gradient norm :     0.0007401 Eh/α   predicted    -0.6219060E-05 ( -14.31%)
   displ. norm   :     0.0153297 α      lambda       -0.1569761E-05
   maximum displ.:     0.0131441 α      in ANC's #2, #1, #3, ...

........................................................................
.............................. CYCLE    8 ..............................
........................................................................

 iter      E             dE          RMSdq      gap      omega  full diag
   1    -20.5353508 -0.205354E+02  0.126E-02    1.85       0.0  T
   2    -20.5353509 -0.111284E-06  0.741E-03    1.85       4.5  T
   3    -20.5353509  0.192382E-07  0.345E-03    1.85       9.7  T
   4    -20.5353510 -0.476163E-07  0.520E-04    1.85      64.1  T
   5    -20.5353510 -0.629250E-09  0.245E-04    1.85     136.0  T
     SCC iter.                  ...        0 min,  0.001 sec
     gradient                   ...        0 min,  0.001 sec
 * total energy  :   -20.3666671 Eh     change       -0.1521411E-05 Eh
   gradient norm :     0.0003925 Eh/α   predicted    -0.7858965E-06 ( -48.34%)
   displ. norm   :     0.0189847 α      lambda       -0.1159825E-05
   maximum displ.:     0.0169249 α      in ANC's #2, #1, #5, ...

   *** GEOMETRY OPTIMIZATION CONVERGED AFTER 8 ITERATIONS ***

------------------------------------------------------------------------
 total energy gain   :        -0.0053522 Eh       -3.3585 kcal/mol
 total RMSD          :         0.1092286 a0        0.0578 Å
 total power (kW/mol):        -1.7565176 (step) -278.7687 (real)
------------------------------------------------------------------------

 ANCopt (total)                0 d,  0 h,  0 min,  0.050 sec
 optimizer setup                ...        0 min,  0.000 sec (  0.387%)
 model hessian                  ...        0 min,  0.001 sec (  1.519%)
 ANC generation                 ...        0 min,  0.000 sec (  0.283%)
 coordinate transformation      ...        0 min,  0.000 sec (  0.128%)
 single point calculation       ...        0 min,  0.021 sec ( 42.206%)
 optimization log               ...        0 min,  0.027 sec ( 53.994%)
 hessian update                 ...        0 min,  0.000 sec (  0.140%)
 rational function              ...        0 min,  0.000 sec (  0.649%)

================
 final structure:
================
9
 xtb: 6.7.1 (edcfbbe)
C           -5.30555448813171       -3.62093903656001        0.51345428019251
C           -6.47142285822601       -4.15961515026604        1.32265605711763
O           -8.36220160642352       -5.61967513419266        1.15629304501698
O           -6.62446634326458       -3.85852430284190        2.48934433732326
O           -7.13890377126371       -5.24856286846403       -0.68844253876203
C           -7.43791645994367       -5.11915017774575        0.50934775724486
H           -4.64746548760622       -3.00290810099188        1.12495818864211
H           -4.76158036586323       -4.46120728998972        0.08928296203066
H           -5.70708961927734       -3.04406193894801       -0.31665608880598
 
 Bond Distances (Angstroems)
 ---------------------------
C1-C2=1.5180         C1-H7=1.0904         C1-H8=1.0871         C1-H9=1.0877         C2-C1=1.5180         C2-O4=1.2146         
C2-C6=1.5863         O3-C6=1.2342         O4-C2=1.2146         O5-C6=1.2413         C6-C2=1.5863         C6-O3=1.2342         
C6-O5=1.2413         H7-C1=1.0904         H8-C1=1.0871         H9-C1=1.0877         
 C  H  Rav=1.0884 sigma=0.0014  Rmin=1.0871  Rmax=1.0904     3
 C  C  Rav=1.5521 sigma=0.0342  Rmin=1.5180  Rmax=1.5863     2
 O  C  Rav=1.2301 sigma=0.0113  Rmin=1.2146  Rmax=1.2413     3
 
 selected bond angles (degree)
 --------------------
H7-C1-C2=111.45                H8-C1-C2=108.54                H8-C1-H7=110.79                H9-C1-C2=108.15                
H9-C1-H7=110.50                H9-C1-H8=107.27                O4-C2-C1=121.39                C6-C2-C1=114.16                
C6-C2-O4=124.45                O3-C6-C2=115.65                O5-C6-C2=114.27                O5-C6-O3=130.08                
 
 selected dihedral angles (degree)
 ---------------------------------
O4-C2-C1-H7=  2.69            O4-C2-C1-H8=124.96            O4-C2-C1-H9=241.03            C6-C2-C1-H7=182.46            
C6-C2-C1-H8=304.73            C6-C2-C1-H9= 60.81            O3-C6-C2-C1=176.94            O3-C6-C2-O4=356.71            
O5-C6-C2-C1=357.02            O5-C6-C2-O4=176.78            
           -------------------------------------------------
          |                Final Singlepoint                |
           -------------------------------------------------

          ...................................................
          :                      SETUP                      :
          :.................................................:
          :  # basis functions                  27          :
          :  # atomic orbitals                  27          :
          :  # shells                           15          :
          :  # electrons                        34          :
          :  max. iterations                   250          :
          :  Hamiltonian                  GFN2-xTB          :
          :  restarted?                      false          :
          :  GBSA solvation                  false          :
          :  PC potential                    false          :
          :  electronic temp.          300.0000000     K    :
          :  accuracy                    1.0000000          :
          :  -> integral cutoff          0.2500000E+02      :
          :  -> integral neglect         0.1000000E-07      :
          :  -> SCF convergence          0.1000000E-05 Eh   :
          :  -> wf. convergence          0.1000000E-03 e    :
          :  Broyden damping             0.4000000          :
          :  net charge                         -1          :
          :  unpaired electrons                  0          :
          ...................................................

 iter      E             dE          RMSdq      gap      omega  full diag
   1    -20.5353510 -0.205354E+02  0.125E-04    1.85       0.0  T
   2    -20.5353510 -0.116103E-10  0.795E-05    1.85     419.5  T
   3    -20.5353510 -0.568434E-13  0.407E-05    1.85     818.9  T

   *** convergence criteria satisfied after 3 iterations ***

         #    Occupation            Energy/Eh            Energy/eV
      -------------------------------------------------------------
         1        2.0000           -0.5431072             -14.7787
       ...           ...                  ...                  ...
        11        2.0000           -0.3255636              -8.8590
        12        2.0000           -0.3182793              -8.6608
        13        2.0000           -0.3011962              -8.1960
        14        2.0000           -0.2644320              -7.1956
        15        2.0000           -0.2120161              -5.7693
        16        2.0000           -0.1978189              -5.3829
        17        2.0000           -0.1698611              -4.6222 (HOMO)
        18                         -0.1018829              -2.7724 (LUMO)
        19                          0.0391826               1.0662
        20                          0.2290451               6.2326
        21                          0.3011983               8.1960
        22                          0.3281456               8.9293
       ...                                ...                  ...
        27                          0.9178241              24.9753
      -------------------------------------------------------------
                  HL-Gap            0.0679782 Eh            1.8498 eV
             Fermi-level           -0.1358720 Eh           -3.6973 eV

 SCC (total)                   0 d,  0 h,  0 min,  0.002 sec
 SCC setup                      ...        0 min,  0.000 sec (  3.025%)
 Dispersion                     ...        0 min,  0.000 sec (  1.507%)
 classical contributions        ...        0 min,  0.000 sec (  0.382%)
 integral evaluation            ...        0 min,  0.000 sec ( 19.006%)
 iterations                     ...        0 min,  0.001 sec ( 27.643%)
 molecular gradient             ...        0 min,  0.001 sec ( 44.062%)
 printout                       ...        0 min,  0.000 sec (  3.160%)

         :::::::::::::::::::::::::::::::::::::::::::::::::::::
         ::                     SUMMARY                     ::
         :::::::::::::::::::::::::::::::::::::::::::::::::::::
         :: total energy             -20.366667072024 Eh    ::
         :: gradient norm              0.000393430988 Eh/a0 ::
         :: HOMO-LUMO gap              1.849779955804 eV    ::
         ::.................................................::
         :: SCC energy               -20.535349196907 Eh    ::
         :: -> isotropic ES            0.211923759478 Eh    ::
         :: -> anisotropic ES          0.004597203378 Eh    ::
         :: -> anisotropic XC         -0.001470848401 Eh    ::
         :: -> dispersion             -0.005325390624 Eh    ::
         :: repulsion energy           0.168682124884 Eh    ::
         :: add. restraining           0.000000000000 Eh    ::
         :: total charge              -1.000000000000 e     ::
         :::::::::::::::::::::::::::::::::::::::::::::::::::::

           ------------------------------------------------- 
          |                Numerical Hessian                |
           ------------------------------------------------- 
step length          :   0.00500
SCC accuracy         :   0.30000
Hessian scale factor :   1.00000
frozen atoms in %    :   0.00000    0
RMS gradient         :   0.00039
estimated CPU  time      0.01 min
estimated wall time      0.00 min

writing file <hessian>.

 projected vibrational frequencies (cm⁻¹)
eigval :       -0.00    -0.00     0.00     0.00     0.00     0.00
eigval :      -56.48    49.92   225.35   319.16   363.04   512.99
eigval :      605.33   713.20   741.93   935.57   952.11  1122.13
eigval :     1284.02  1339.48  1449.49  1460.21  1739.78  1776.18
eigval :     2984.89  3026.27  3039.68
           -------------------------------------------------
          |                Property Printout                |
           -------------------------------------------------

    * Orbital Energies and Occupations

         #    Occupation            Energy/Eh            Energy/eV
      -------------------------------------------------------------
         1        2.0000           -0.5431073             -14.7787
       ...           ...                  ...                  ...
         5        2.0000           -0.4320680             -11.7572
         6        2.0000           -0.3931756             -10.6989
         7        2.0000           -0.3776142             -10.2754
         8        2.0000           -0.3623291              -9.8595
         9        2.0000           -0.3565868              -9.7032
        10        2.0000           -0.3290777              -8.9547
        11        2.0000           -0.3255637              -8.8590
        12        2.0000           -0.3182794              -8.6608
        13        2.0000           -0.3011963              -8.1960
        14        2.0000           -0.2644320              -7.1956
        15        2.0000           -0.2120161              -5.7693
        16        2.0000           -0.1978189              -5.3829
        17        2.0000           -0.1698612              -4.6222 (HOMO)
        18                         -0.1018831              -2.7724 (LUMO)
        19                          0.0391824               1.0662
        20                          0.2290449               6.2326
        21                          0.3011982               8.1960
        22                          0.3281454               8.9293
        23                          0.3522939               9.5864
        24                          0.3669616               9.9855
        25                          0.5999847              16.3264
        26                          0.6998275              19.0433
        27                          0.9178238              24.9753
      -------------------------------------------------------------
                  HL-Gap            0.0679780 Eh            1.8498 eV
             Fermi-level           -0.1358721 Eh           -3.6973 eV

     #   Z          covCN         q      C6AA      α(0)
     1   6 C        3.751    -0.113    22.724     6.798
     2   6 C        2.800     0.180    24.127     8.047
     3   8 O        0.856    -0.552    24.970     6.700
     4   8 O        0.856    -0.394    21.568     6.226
     5   8 O        0.856    -0.585    25.763     6.805
     6   6 C        2.679     0.346    21.131     7.522
     7   1 H        0.924     0.018     2.761     2.599
     8   1 H        0.925     0.050     2.318     2.381
     9   1 H        0.925     0.051     2.313     2.378

 Mol. C6AA /au·bohr⁶  :       1127.341574
 Mol. C8AA /au·bohr⁸  :      25183.045153
 Mol. α(0) /au        :         49.456529


Wiberg/Mayer (AO) data.
largest (>0.10) Wiberg bond orders for each atom

 ---------------------------------------------------------------------------
     #   Z sym  total        # sym  WBO       # sym  WBO       # sym  WBO
 ---------------------------------------------------------------------------
     1   6 C    3.997 --     2 C    0.995     7 H    0.987     8 H    0.968
                             9 H    0.965
     2   6 C    3.834 --     4 O    1.865     1 C    0.995     6 C    0.831
     3   8 O    1.896 --     6 C    1.546     5 O    0.256
     4   8 O    2.046 --     2 C    1.865
     5   8 O    1.854 --     6 C    1.513     3 O    0.256
     6   6 C    3.951 --     3 O    1.546     5 O    1.513     2 C    0.831
     7   1 H    1.000 --     1 C    0.987
     8   1 H    0.997 --     1 C    0.968
     9   1 H    0.997 --     1 C    0.965
 ---------------------------------------------------------------------------

Topologies differ in total number of bonds
Writing topology from bond orders to xtbtopo.mol

molecular dipole:
                 x           y           z       tot (Debye)
 q only:       14.472       9.740      -1.609
   full:       14.706       9.891      -1.660      45.245
molecular quadrupole (traceless):
                xx          xy          yy          xz          yz          zz
 q only:     -157.113    -213.823      14.140      34.246      18.982     142.973
  q+dip:     -161.205    -220.352      15.745      36.642      19.565     145.460
   full:     -161.208    -221.365      16.305      36.806      19.020     144.903

           -------------------------------------------------
          |                Geometry Summary                 |
           -------------------------------------------------

      molecular mass/u    :       87.0542447
   center of mass at/Å    :       -6.8924733      -4.6079632       0.8775167
  moments of inertia/u·Å² :        0.8874687E+02   0.1406002E+03   0.2261300E+03
rotational constants/cm⁻¹ :        0.1899519E+00   0.1198977E+00   0.7454840E-01

 * 6 selected distances

     #   Z          #   Z                                           value/Å
     2   6 C        4   8 O                                       1.2145945
     3   8 O        6   6 C                                       1.2342474
     5   8 O        6   6 C                                       1.2413131 (max)
     1   6 C        7   1 H                                       1.0904039
     1   6 C        8   1 H                                       1.0871431 (min)
     1   6 C        9   1 H                                       1.0877045

 * 2 distinct bonds (by element types)

   Z      Z             #   av. dist./Å        max./Å        min./Å
   1 H    6 C           3     1.0884172     1.0904039     1.0871431
   6 C    8 O           3     1.2300517     1.2413131     1.2145945

           -------------------------------------------------
          |               Frequency Printout                |
           -------------------------------------------------
 projected vibrational frequencies (cm⁻¹)
eigval :       -0.00    -0.00     0.00     0.00     0.00     0.00
eigval :      -56.48    49.92   225.35   319.16   363.04   512.99
eigval :      605.33   713.20   741.93   935.57   952.11  1122.13
eigval :     1284.02  1339.48  1449.49  1460.21  1739.78  1776.18
eigval :     2984.89  3026.27  3039.68
 reduced masses (amu)
   1: 15.01   2: 14.49   3: 13.86   4: 11.85   5: 15.18   6: 12.40   7: 10.36   8:  5.25
   9: 13.05  10: 11.41  11: 13.20  12: 13.85  13: 11.60  14: 10.30  15: 13.48  16:  5.92
  17:  7.68  18:  9.30  19: 14.59  20:  3.29  21:  1.67  22:  1.73  23: 13.28  24: 13.28
  25:  1.64  26:  1.91  27:  1.58
 IR intensities (km·mol⁻¹)
   1: 12.65   2: 19.19   3: 11.53   4:  1.42   5:  1.69   6:  1.19   7:  3.06   8:  0.04
   9:  6.15  10: 21.39  11:  1.54  12:  0.24  13: 19.39  14: 36.94  15:127.52  16:  3.25
  17: 15.23  18: 84.92  19:212.51  20: 16.90  21:  1.18  22: 15.91  23: 66.08  24:742.47
  25: 78.17  26: 19.15  27: 15.71
 Raman intensities (Ä⁴*amu⁻¹)
   1:  0.00   2:  0.00   3:  0.00   4:  0.00   5:  0.00   6:  0.00   7:  0.00   8:  0.00
   9:  0.00  10:  0.00  11:  0.00  12:  0.00  13:  0.00  14:  0.00  15:  0.00  16:  0.00
  17:  0.00  18:  0.00  19:  0.00  20:  0.00  21:  0.00  22:  0.00  23:  0.00  24:  0.00
  25:  0.00  26:  0.00  27:  0.00
 output can be read by thermo (or use thermo option).
 writing <g98.out> molden fake output.
 recommended (thermochemical) frequency scaling factor: 1.0
           -------------------------------------------------
          |             Thermodynamic Functions             |
           -------------------------------------------------

Refinement of some symmetry elements was terminated before convergence was reached.
Some symmetry elements may remain unidentified.
Molecule has no symmetry elements
It seems to be the C1 point group
c1  symmetry found (for desy threshold:  0.10E+00) used in thermo

          ...................................................
          :                      SETUP                      :
          :.................................................:
          :  # frequencies                          20      :
          :  # imaginary freq.                       1      :
          :  linear?                             false      :
          :  only rotor calc.                    false      :
          :  symmetry                               c1      :
          :  rotational number                       1      :
          :  scaling factor                  1.0000000      :
          :  rotor cutoff                   50.0000000 cm⁻¹ :
          :  imag. cutoff                  -20.0000000 cm⁻¹ :
          :.................................................:

    mode    ω/cm⁻¹     T·S(HO)/kcal·mol⁻¹    T·S(FR)/kcal·mol⁻¹   T·S(vib)
   ------------------------------------------------------------------------
       1     49.92    -1.43720 ( 49.85%)    -1.05635 ( 50.15%)    -1.24619
       2    225.35    -0.57115 ( 99.76%)    -0.61037 (  0.24%)    -0.57125
   ------------------------------------------------------------------------

   temp. (K)  partition function   enthalpy   heat capacity  entropy
                                   cal/mol     cal/K/mol   cal/K/mol   J/K/mol
 298.15  VIB   13.7                 1774.634     11.935     10.518
         ROT  0.128E+06              888.752      2.981     26.356
         INT  0.176E+07             2663.386     14.916     36.874
         TR   0.786E+27             1481.254      4.968     39.287
         TOT                        4144.6403    19.8843    76.1607   318.6563

       T/K    H(0)-H(T)+PV         H(T)/Eh          T*S/Eh         G(T)/Eh
   ------------------------------------------------------------------------
    298.15    0.660490E-02    0.627406E-01    0.361864E-01    0.265542E-01
   ------------------------------------------------------------------------

         :::::::::::::::::::::::::::::::::::::::::::::::::::::
         ::                  THERMODYNAMIC                  ::
         :::::::::::::::::::::::::::::::::::::::::::::::::::::
         :: total free energy         -20.340112880237 Eh   ::
         ::.................................................::
         :: total energy              -20.366667072028 Eh   ::
         :: zero point energy           0.056135682700 Eh   ::
         :: G(RRHO) w/o ZPVE           -0.029581490909 Eh   ::
         :: G(RRHO) contrib.            0.026554191792 Eh   ::
         :::::::::::::::::::::::::::::::::::::::::::::::::::::
imag cut-off (cm-1) :    5.00
 found            1  significant imaginary frequency
 writing imag mode distorted coords to xtbhess.xyz
 for further optimization.

optimized geometry written to: xtbopt.xyz


           -------------------------------------------------
          | TOTAL ENERGY              -20.366667072028 Eh   |
          | TOTAL ENTHALPY            -20.303926484639 Eh   |
          | TOTAL FREE ENERGY         -20.340112880237 Eh   |
          | GRADIENT NORM               0.000393238278 Eh/α |
          | HOMO-LUMO GAP               1.849775718609 eV   |
           -------------------------------------------------

------------------------------------------------------------------------
 * finished run on 2025/10/18 at 03:51:54.818     
------------------------------------------------------------------------
 total:
 * wall-time:     0 d,  0 h,  0 min,  0.388 sec
 *  cpu-time:     0 d,  0 h,  0 min,  0.525 sec
 * ratio c/w:     1.353 speedup
 SCF:
 * wall-time:     0 d,  0 h,  0 min,  0.024 sec
 *  cpu-time:     0 d,  0 h,  0 min,  0.031 sec
 * ratio c/w:     1.274 speedup
 ANC optimizer:
 * wall-time:     0 d,  0 h,  0 min,  0.138 sec
 *  cpu-time:     0 d,  0 h,  0 min,  0.165 sec
 * ratio c/w:     1.196 speedup
 analytical hessian:
 * wall-time:     0 d,  0 h,  0 min,  0.147 sec
 *  cpu-time:     0 d,  0 h,  0 min,  0.242 sec
 * ratio c/w:     1.648 speedup

