9
 energy: -20.361314894209 gnorm: 0.082684361141 xtb: 6.7.1 (edcfbbe)
C           -5.29923700000000       -3.61738100000000        0.49176100000000
C           -6.45796500000000       -4.17121900000000        1.26706200000000
O           -8.39174400000000       -5.60964500000000        1.20925000000000
O           -6.66161900000000       -3.89935300000000        2.45179100000000
O           -7.18011700000000       -5.29788200000000       -0.68967800000000
C           -7.43328400000000       -5.10634300000000        0.54410800000000
H           -4.66841500000000       -3.01956500000000        1.15566100000000
H           -4.69845800000000       -4.43495300000000        0.08556200000000
H           -5.66576200000000       -2.97830300000000       -0.31527900000000
9
 energy: -20.365526581127 gnorm: 0.034344040502 xtb: 6.7.1 (edcfbbe)
C           -5.30598449945156       -3.61968414008739        0.50792350766398
C           -6.46749275564823       -4.16902877715685        1.29218655117284
O           -8.36716443383795       -5.60057823150212        1.17792668779094
O           -6.64086981832569       -3.87941711422928        2.46486846826775
O           -7.16354141484715       -5.28284633737647       -0.68717032439964
C           -7.42469170402276       -5.11051973649107        0.52877992857906
H           -4.65981400213459       -3.01253684902589        1.14890880260056
H           -4.73969353323994       -4.44512717454955        0.07975714594853
H           -5.68734883849211       -3.01490563958138       -0.31294276762401
9
 energy: -20.366359101606 gnorm: 0.013464513175 xtb: 6.7.1 (edcfbbe)
C           -5.30857717741706       -3.62087201418151        0.51456381872286
C           -6.47452665676048       -4.16380098832953        1.31435688396747
O           -8.35652534156976       -5.60964497621922        1.15898323595261
O           -6.62865819603119       -3.86552393983506        2.48127490619610
O           -7.13505977658345       -5.27312376875325       -0.68165561350610
C           -7.43590181256861       -5.10122138380356        0.51354405753337
H           -4.64811764428223       -3.01260427593665        1.13595467041647
H           -4.76671239442127       -4.45553145021610        0.07452680598969
H           -5.70252200036595       -3.03232120272510       -0.31131076527248
9
 energy: -20.366171114468 gnorm: 0.018308463389 xtb: 6.7.1 (edcfbbe)
C           -5.30867287598484       -3.62176324819446        0.51686261962369
C           -6.47654520257908       -4.16074420733619        1.33066232282411
O           -8.36601701063471       -5.60540085390342        1.14293704225502
O           -6.62166219563138       -3.85346238497848        2.49373915575806
O           -7.13181546019604       -5.23813653338532       -0.68659138885501
C           -7.41654199837600       -5.13786466439838        0.51536034144483
H           -4.64579286019740       -3.00304017575747        1.12135003145748
H           -4.77430731205839       -4.46273557888273        0.08265391157859
H           -5.71524608434216       -3.05149635316355       -0.31673603608677
9
 energy: -20.366643518797 gnorm: 0.003779616304 xtb: 6.7.1 (edcfbbe)
C           -5.30792726672904       -3.62155371961674        0.51387906582838
C           -6.47375747333615       -4.16146150709894        1.32465017526987
O           -8.36469990895631       -5.61336985302162        1.15088819813122
O           -6.62330712329730       -3.85774618970810        2.49055935939721
O           -7.12865857187070       -5.25304426317609       -0.68435171325275
C           -7.43189609332861       -5.11732174080017        0.51219610296290
H           -4.64624186525925       -3.00755561825347        1.12476590589004
H           -4.76925965076876       -4.46104004175772        0.08147677928853
H           -5.71085304645389       -3.04155106656714       -0.31382587351540
9
 energy: -20.366658293096 gnorm: 0.002253200015 xtb: 6.7.1 (edcfbbe)
C           -5.30707436045531       -3.62122586958138        0.51327584671405
C           -6.47289428660220       -4.16063899517716        1.32390129293204
O           -8.36477271550438       -5.61552596770455        1.15261238572396
O           -6.62330762463254       -3.85775725214698        2.49021213614079
O           -7.13068836800546       -5.25306083970728       -0.68527093973245
C           -7.43454185214648       -5.11749734837301        0.51107645139459
H           -4.64629428330692       -3.00701168712868        1.12482480059582
H           -4.76716324435499       -4.46114292021743        0.08344325457780
H           -5.70986426499172       -3.04078311996352       -0.31383722834660
9
 energy: -20.366665550506 gnorm: 0.000740124854 xtb: 6.7.1 (edcfbbe)
C           -5.30599386607174       -3.62086785553130        0.51306630330262
C           -6.47170388405185       -4.16000069758663        1.32311278171617
O           -8.36406758941531       -5.61764788881433        1.15483287215591
O           -6.62377149018892       -3.85816013863655        2.48968098057565
O           -7.13508527131353       -5.25154913421572       -0.68696706197281
C           -7.43703811161948       -5.11879997097683        0.50982643860919
H           -4.64673991083633       -3.00498864640408        1.12500149783746
H           -4.76383417712555       -4.46099029724302        0.08659320109441
H           -5.70836669937728       -3.04163937059155       -0.31490901331861
9
 energy: -20.366667071917 gnorm: 0.000392581707 xtb: 6.7.1 (edcfbbe)
C           -5.30555448813171       -3.62093903656001        0.51345428019251
C           -6.47142285822601       -4.15961515026604        1.32265605711763
O           -8.36220160642352       -5.61967513419266        1.15629304501698
O           -6.62446634326458       -3.85852430284190        2.48934433732326
O           -7.13890377126371       -5.24856286846403       -0.68844253876203
C           -7.43791645994367       -5.11915017774575        0.50934775724486
H           -4.64746548760622       -3.00290810099188        1.12495818864211
H           -4.76158036586323       -4.46120728998972        0.08928296203066
H           -5.70708961927734       -3.04406193894801       -0.31665608880598
