
                                 *****************
                                 * O   R   C   A *
                                 *****************

                                            #,                                       
                                            ###                                      
                                            ####                                     
                                            #####                                    
                                            ######                                   
                                           ########,                                 
                                     ,,################,,,,,                         
                               ,,#################################,,                 
                          ,,##########################################,,             
                       ,#########################################, ''#####,          
                    ,#############################################,,   '####,        
                  ,##################################################,,,,####,       
                ,###########''''           ''''###############################       
              ,#####''   ,,,,##########,,,,          '''####'''          '####       
            ,##' ,,,,###########################,,,                        '##       
           ' ,,###''''                  '''############,,,                           
         ,,##''                                '''############,,,,        ,,,,,,###''
      ,#''                                            '''#######################'''  
     '                                                          ''''####''''         
             ,#######,   #######,   ,#######,      ##                                
            ,#'     '#,  ##    ##  ,#'     '#,    #''#        ######   ,####,        
            ##       ##  ##   ,#'  ##            #'  '#       #        #'  '#        
            ##       ##  #######   ##           ,######,      #####,   #    #        
            '#,     ,#'  ##    ##  '#,     ,#' ,#      #,         ##   #,  ,#        
             '#######'   ##     ##  '#######'  #'      '#     #####' # '####'        



                  #######################################################
                  #                        -***-                        #
                  #          Department of theory and spectroscopy      #
                  #    Directorship and core code : Frank Neese         #
                  #        Max Planck Institute fuer Kohlenforschung    #
                  #                Kaiser Wilhelm Platz 1               #
                  #                 D-45470 Muelheim/Ruhr               #
                  #                      Germany                        #
                  #                                                     #
                  #                  All rights reserved                #
                  #                        -***-                        #
                  #######################################################


                         Program Version 5.0.4 -  RELEASE  -


 With contributions from (in alphabetic order):
   Daniel Aravena         : Magnetic Suceptibility
   Michael Atanasov       : Ab Initio Ligand Field Theory (pilot matlab implementation)
   Alexander A. Auer      : GIAO ZORA, VPT2 properties, NMR spectrum
   Ute Becker             : Parallelization
   Giovanni Bistoni       : ED, misc. LED, open-shell LED, HFLD
   Martin Brehm           : Molecular dynamics
   Dmytro Bykov           : SCF Hessian
   Vijay G. Chilkuri      : MRCI spin determinant printing, contributions to CSF-ICE
   Dipayan Datta          : RHF DLPNO-CCSD density
   Achintya Kumar Dutta   : EOM-CC, STEOM-CC
   Dmitry Ganyushin       : Spin-Orbit,Spin-Spin,Magnetic field MRCI
   Miquel Garcia          : C-PCM and meta-GGA Hessian, CC/C-PCM, Gaussian charge scheme
   Yang Guo               : DLPNO-NEVPT2, F12-NEVPT2, CIM, IAO-localization
   Andreas Hansen         : Spin unrestricted coupled pair/coupled cluster methods
   Benjamin Helmich-Paris : MC-RPA, TRAH-SCF, COSX integrals
   Lee Huntington         : MR-EOM, pCC
   Robert Izsak           : Overlap fitted RIJCOSX, COSX-SCS-MP3, EOM
   Marcus Kettner         : VPT2
   Christian Kollmar      : KDIIS, OOCD, Brueckner-CCSD(T), CCSD density, CASPT2, CASPT2-K
   Simone Kossmann        : Meta GGA functionals, TD-DFT gradient, OOMP2, MP2 Hessian
   Martin Krupicka        : Initial AUTO-CI
   Lucas Lang             : DCDCAS
   Marvin Lechner         : AUTO-CI (C++ implementation), FIC-MRCC
   Dagmar Lenk            : GEPOL surface, SMD
   Dimitrios Liakos       : Extrapolation schemes; Compound Job, initial MDCI parallelization
   Dimitrios Manganas     : Further ROCIS development; embedding schemes
   Dimitrios Pantazis     : SARC Basis sets
   Anastasios Papadopoulos: AUTO-CI, single reference methods and gradients
   Taras Petrenko         : DFT Hessian,TD-DFT gradient, ASA, ECA, R-Raman, ABS, FL, XAS/XES, NRVS
   Peter Pinski           : DLPNO-MP2, DLPNO-MP2 Gradient
   Christoph Reimann      : Effective Core Potentials
   Marius Retegan         : Local ZFS, SOC
   Christoph Riplinger    : Optimizer, TS searches, QM/MM, DLPNO-CCSD(T), (RO)-DLPNO pert. Triples
   Tobias Risthaus        : Range-separated hybrids, TD-DFT gradient, RPA, STAB
   Michael Roemelt        : Original ROCIS implementation
   Masaaki Saitow         : Open-shell DLPNO-CCSD energy and density
   Barbara Sandhoefer     : DKH picture change effects
   Avijit Sen             : IP-ROCIS
   Kantharuban Sivalingam : CASSCF convergence, NEVPT2, FIC-MRCI
   Bernardo de Souza      : ESD, SOC TD-DFT
   Georgi Stoychev        : AutoAux, RI-MP2 NMR, DLPNO-MP2 response
   Willem Van den Heuvel  : Paramagnetic NMR
   Boris Wezisla          : Elementary symmetry handling
   Frank Wennmohs         : Technical directorship


 We gratefully acknowledge several colleagues who have allowed us to
 interface, adapt or use parts of their codes:
   Stefan Grimme, W. Hujo, H. Kruse, P. Pracht,  : VdW corrections, initial TS optimization,
                  C. Bannwarth, S. Ehlert          DFT functionals, gCP, sTDA/sTD-DF
   Ed Valeev, F. Pavosevic, A. Kumar             : LibInt (2-el integral package), F12 methods
   Garnet Chan, S. Sharma, J. Yang, R. Olivares  : DMRG
   Ulf Ekstrom                                   : XCFun DFT Library
   Mihaly Kallay                                 : mrcc  (arbitrary order and MRCC methods)
   Jiri Pittner, Ondrej Demel                    : Mk-CCSD
   Frank Weinhold                                : gennbo (NPA and NBO analysis)
   Christopher J. Cramer and Donald G. Truhlar   : smd solvation model
   Lars Goerigk                                  : TD-DFT with DH, B97 family of functionals
   V. Asgeirsson, H. Jonsson                     : NEB implementation
   FAccTs GmbH                                   : IRC, NEB, NEB-TS, DLPNO-Multilevel, CI-OPT
                                                   MM, QMMM, 2- and 3-layer-ONIOM, Crystal-QMMM,
                                                   LR-CPCM, SF, NACMEs, symmetry and pop. for TD-DFT,
                                                   nearIR, NL-DFT gradient (VV10), updates on ESD,
                                                   ML-optimized integration grids
   S Lehtola, MJT Oliveira, MAL Marques          : LibXC Library
   Liviu Ungur et al                             : ANISO software


 Your calculation uses the libint2 library for the computation of 2-el integrals
 For citations please refer to: http://libint.valeyev.net

 Your ORCA version has been built with support for libXC version: 5.1.0
 For citations please refer to: https://tddft.org/programs/libxc/

 This ORCA versions uses:
   CBLAS   interface :  Fast vector & matrix operations
   LAPACKE interface :  Fast linear algebra routines
   SCALAPACK package :  Parallel linear algebra routines
   Shared memory     :  Shared parallel matrices
   BLAS/LAPACK       :  OpenBLAS 0.3.15  USE64BITINT DYNAMIC_ARCH NO_AFFINITY Haswell SINGLE_THREADED
        Core in use  :  Haswell
   Copyright (c) 2011-2014, The OpenBLAS Project


Your calculation utilizes the atom-pairwise dispersion correction
with the Becke-Johnson damping scheme (D3BJ)
Cite in your paper:
S.Grimme, S.Ehrlich, L.Goerigk, J Comput Chem, (2011), 32, 1456–1465 
S.Grimme, J.Antony, S.Ehrlich and H.Krieg, J.Chem.Phys., 132, (2010), 154104 
   

================================================================================

----- Orbital basis set information -----
Your calculation utilizes the basis: def2-TZVP
   F. Weigend and R. Ahlrichs, Phys. Chem. Chem. Phys. 7, 3297 (2005).

----- AuxJ basis set information -----
Your calculation utilizes the auxiliary basis: def2/J
   F. Weigend, Phys. Chem. Chem. Phys. 8, 1057 (2006).

================================================================================
                                        WARNINGS
                       Please study these warnings very carefully!
================================================================================

WARNING: Old DensityContainer found on disk!
         Will remove this file - 
         If you want to keep old densities, please start your calculation with a different basename. 


WARNING: Geometry Optimization
  ===> : Switching off AutoStart
         For restart on a previous wavefunction, please use MOREAD

INFO   : the flag for use of the SHARK integral package has been found!

================================================================================
                                       INPUT FILE
================================================================================
NAME = inp.inp
|  1> !OPT PBE D3BJ def2-TZVP CPCM(water)
|  2> *xyz -1 1
|  3> C     -2.045161   -2.898364    1.589206
|  4> C     -2.447001   -2.182957    0.403473
|  5> C     -3.709638   -2.527801   -0.235859
|  6> C     -4.576855   -3.583800    0.325297
|  7> C     -4.102904   -4.312390    1.519659
|  8> C     -2.838997   -3.961847    2.153294
|  9> O     -6.400968   -4.983011    0.118710
| 10> O     -1.024626   -2.523924    2.198476
| 11> H     -1.838802   -1.374803    0.017187
| 12> H     -4.020558   -1.956261   -1.100183
| 13> N     -5.958695   -3.681951   -0.084222
| 14> H     -4.709355   -5.083641    1.975471
| 15> O     -6.051041   -3.399423   -1.441143
| 16> H     -2.519539   -4.465565    3.056803
| 17> *
| 18> 
| 19>                          ****END OF INPUT****
================================================================================

                       *****************************
                       * Geometry Optimization Run *
                       *****************************

Geometry optimization settings:
Update method            Update   .... BFGS
Choice of coordinates    CoordSys .... Z-matrix Internals
Initial Hessian          InHess   .... Almoef's Model

Convergence Tolerances:
Energy Change            TolE     ....  5.0000e-06 Eh
Max. Gradient            TolMAXG  ....  3.0000e-04 Eh/bohr
RMS Gradient             TolRMSG  ....  1.0000e-04 Eh/bohr
Max. Displacement        TolMAXD  ....  4.0000e-03 bohr
RMS Displacement         TolRMSD  ....  2.0000e-03 bohr
Strict Convergence                ....  False
------------------------------------------------------------------------------
                        ORCA OPTIMIZATION COORDINATE SETUP
------------------------------------------------------------------------------

The optimization will be done in new redundant internal coordinates
Making redundant internal coordinates   ...  (new redundants) done
Evaluating the initial hessian          ...  (Almloef) done
Evaluating the coordinates              ...  done
Calculating the B-matrix                .... done
Calculating the G-matrix                .... done
Diagonalizing the G-matrix              .... done
The first mode is                       ....   27
The number of degrees of freedom        ....   36

    -----------------------------------------------------------------
                    Redundant Internal Coordinates


    -----------------------------------------------------------------
         Definition                    Initial Value    Approx d2E/dq
    -----------------------------------------------------------------
      1. B(C   1,C   0)                  1.4420         0.516228   
      2. B(C   2,C   1)                  1.4567         0.489053   
      3. B(C   3,C   2)                  1.4772         0.453555   
      4. B(C   4,C   3)                  1.4772         0.453623   
      5. B(C   5,C   4)                  1.4567         0.489102   
      6. B(C   5,C   0)                  1.4420         0.516148   
      7. B(O   7,C   0)                  1.2462         0.949222   
      8. B(H   8,C   1)                  1.0827         0.369890   
      9. B(H   9,C   2)                  1.0818         0.371053   
     10. B(N  10,O   6)                  1.3891         0.502898   
     11. B(N  10,C   3)                  1.4446         0.457922   
     12. B(H  11,C   4)                  1.0818         0.371060   
     13. B(O  12,N  10)                  1.3891         0.502871   
     14. B(H  13,C   5)                  1.0826         0.369966   
     15. A(C   1,C   0,O   7)          118.7629         0.450556   
     16. A(C   1,C   0,C   5)          122.2871         0.406597   
     17. A(C   5,C   0,O   7)          118.7627         0.450543   
     18. A(C   0,C   1,C   2)          119.0132         0.402744   
     19. A(C   0,C   1,H   8)          120.4753         0.343733   
     20. A(C   2,C   1,H   8)          120.4661         0.340634   
     21. A(C   3,C   2,H   9)          120.8267         0.336555   
     22. A(C   1,C   2,H   9)          118.3397         0.340813   
     23. A(C   1,C   2,C   3)          120.7553         0.393687   
     24. A(C   2,C   3,C   4)          118.1247         0.388544   
     25. A(C   2,C   3,N  10)          120.1624         0.386714   
     26. A(C   4,C   3,N  10)          120.1736         0.386724   
     27. A(C   3,C   4,C   5)          120.7584         0.393704   
     28. A(C   5,C   4,H  11)          118.3387         0.340820   
     29. A(C   3,C   4,H  11)          120.8266         0.336564   
     30. A(C   0,C   5,C   4)          119.0114         0.402741   
     31. A(C   4,C   5,H  13)          120.4697         0.340652   
     32. A(C   0,C   5,H  13)          120.4746         0.343736   
     33. A(C   3,N  10,O   6)          109.0739         0.388711   
     34. A(O   6,N  10,O  12)          108.1824         0.392561   
     35. A(C   3,N  10,O  12)          109.0681         0.388707   
     36. D(H   8,C   1,C   0,C   5)    178.6752         0.018169   
     37. D(C   2,C   1,C   0,C   5)      1.1154         0.018169   
     38. D(C   2,C   1,C   0,O   7)   -173.8460         0.018169   
     39. D(H   8,C   1,C   0,O   7)      3.7138         0.018169   
     40. D(C   3,C   2,C   1,C   0)      0.6440         0.016285   
     41. D(C   3,C   2,C   1,H   8)   -176.9161         0.016285   
     42. D(H   9,C   2,C   1,H   8)     -0.1054         0.016285   
     43. D(H   9,C   2,C   1,C   0)    177.4547         0.016285   
     44. D(N  10,C   3,C   2,H   9)    -13.1494         0.014019   
     45. D(N  10,C   3,C   2,C   1)    163.5816         0.014019   
     46. D(C   4,C   3,C   2,H   9)   -179.0285         0.014019   
     47. D(C   4,C   3,C   2,C   1)     -2.2975         0.014019   
     48. D(H  11,C   4,C   3,C   2)    179.0672         0.014023   
     49. D(C   5,C   4,C   3,N  10)   -163.5826         0.014023   
     50. D(C   5,C   4,C   3,C   2)      2.2949         0.014023   
     51. D(H  11,C   4,C   3,N  10)     13.1897         0.014023   
     52. D(H  13,C   5,C   4,H  11)      0.1001         0.016289   
     53. D(C   0,C   5,C   4,H  11)   -177.4897         0.016289   
     54. D(C   0,C   5,C   4,C   3)     -0.6387         0.016289   
     55. D(H  13,C   5,C   0,O   7)     -3.7463         0.018163   
     56. D(H  13,C   5,C   0,C   1)   -178.7076         0.018163   
     57. D(H  13,C   5,C   4,C   3)    176.9510         0.016289   
     58. D(C   4,C   5,C   0,O   7)    173.8433         0.018163   
     59. D(C   4,C   5,C   0,C   1)     -1.1180         0.018163   
     60. D(O  12,N  10,C   3,C   4)   -156.1463         0.016518   
     61. D(O  12,N  10,C   3,C   2)     38.2652         0.016518   
     62. D(O   6,N  10,C   3,C   4)    -38.1862         0.016518   
     63. D(O   6,N  10,C   3,C   2)    156.2253         0.016518   
    -----------------------------------------------------------------

Number of atoms                         .... 14
Number of degrees of freedom            .... 63

         *************************************************************
         *                GEOMETRY OPTIMIZATION CYCLE   1            *
         *************************************************************
---------------------------------
CARTESIAN COORDINATES (ANGSTROEM)
---------------------------------
  C     -2.045161   -2.898364    1.589206
  C     -2.447001   -2.182957    0.403473
  C     -3.709638   -2.527801   -0.235859
  C     -4.576855   -3.583800    0.325297
  C     -4.102904   -4.312390    1.519659
  C     -2.838997   -3.961847    2.153294
  O     -6.400968   -4.983011    0.118710
  O     -1.024626   -2.523924    2.198476
  H     -1.838802   -1.374803    0.017187
  H     -4.020558   -1.956261   -1.100183
  N     -5.958695   -3.681951   -0.084222
  H     -4.709355   -5.083641    1.975471
  O     -6.051041   -3.399423   -1.441143
  H     -2.519539   -4.465565    3.056803

----------------------------
CARTESIAN COORDINATES (A.U.)
----------------------------
  NO LB      ZA    FRAG     MASS         X           Y           Z
   0 C     6.0000    0    12.011   -3.864794   -5.477114    3.003164
   1 C     6.0000    0    12.011   -4.624162   -4.125191    0.762453
   2 C     6.0000    0    12.011   -7.010200   -4.776852   -0.445709
   3 C     6.0000    0    12.011   -8.649003   -6.772401    0.614722
   4 C     6.0000    0    12.011   -7.753365   -8.149236    2.871739
   5 C     6.0000    0    12.011   -5.364927   -7.486806    4.069136
   6 O     8.0000    0    15.999  -12.096077   -9.416526    0.224329
   7 O     8.0000    0    15.999   -1.936263   -4.769525    4.154518
   8 H     1.0000    0     1.008   -3.474832   -2.598001    0.032479
   9 H     1.0000    0     1.008   -7.597754   -3.696798   -2.079045
  10 N     7.0000    0    14.007  -11.260302   -6.957879   -0.159157
  11 H     1.0000    0     1.008   -8.899391   -9.606689    3.733099
  12 O     8.0000    0    15.999  -11.434810   -6.423978   -2.723366
  13 H     1.0000    0     1.008   -4.761239   -8.438695    5.776521

--------------------------------
INTERNAL COORDINATES (ANGSTROEM)
--------------------------------
 C      0   0   0     0.000000000000     0.00000000     0.00000000
 C      1   0   0     1.441958844259     0.00000000     0.00000000
 C      2   1   0     1.456679437738   119.01317325     0.00000000
 C      3   2   1     1.477191683373   120.75534235     0.64397702
 C      4   3   2     1.477150474916   118.12474559   357.70248896
 C      1   2   3     1.442001025634   122.28708376     1.11535493
 O      4   3   2     2.308215294954   149.68801928   190.60162133
 O      1   2   3     1.246156865216   118.76288595   186.15402779
 H      2   1   3     1.082698381412   120.47530774   177.55980329
 H      3   2   1     1.081843424427   118.33972214   177.45465045
 N      7   4   3     1.389080244893    36.26239000   316.32141022
 H      5   4   3     1.081838943534   120.82662686   179.06715476
 O     11   7   4     1.389094832883   108.18237658   118.51597736
 H      6   1   2     1.082642023186   120.47456287   181.29238262

---------------------------
INTERNAL COORDINATES (A.U.)
---------------------------
 C      0   0   0     0.000000000000     0.00000000     0.00000000
 C      1   0   0     2.724907312036     0.00000000     0.00000000
 C      2   1   0     2.752725202239   119.01317325     0.00000000
 C      3   2   1     2.791487728881   120.75534235     0.64397702
 C      4   3   2     2.791409856183   118.12474559   357.70248896
 C      1   2   3     2.724987023281   122.28708376     1.11535493
 O      4   3   2     4.361894765591   149.68801928   190.60162133
 O      1   2   3     2.354895195164   118.76288595   186.15402779
 H      2   1   3     2.046003426509   120.47530774   177.55980329
 H      3   2   1     2.044387791951   118.33972214   177.45465045
 N      7   4   3     2.624981240889    36.26239000   316.32141022
 H      5   4   3     2.044379324289   120.82662686   179.06715476
 O     11   7   4     2.625008808193   108.18237658   118.51597736
 H      6   1   2     2.045896924897   120.47456287   181.29238262

---------------------
BASIS SET INFORMATION
---------------------
There are 4 groups of distinct atoms

 Group   1 Type C   : 11s6p2d1f contracted to 5s3p2d1f pattern {62111/411/11/1}
 Group   2 Type O   : 11s6p2d1f contracted to 5s3p2d1f pattern {62111/411/11/1}
 Group   3 Type H   : 5s1p contracted to 3s1p pattern {311/1}
 Group   4 Type N   : 11s6p2d1f contracted to 5s3p2d1f pattern {62111/411/11/1}

Atom   0C    basis set group =>   1
Atom   1C    basis set group =>   1
Atom   2C    basis set group =>   1
Atom   3C    basis set group =>   1
Atom   4C    basis set group =>   1
Atom   5C    basis set group =>   1
Atom   6O    basis set group =>   2
Atom   7O    basis set group =>   2
Atom   8H    basis set group =>   3
Atom   9H    basis set group =>   3
Atom  10N    basis set group =>   4
Atom  11H    basis set group =>   3
Atom  12O    basis set group =>   2
Atom  13H    basis set group =>   3
---------------------------------
AUXILIARY/J BASIS SET INFORMATION
---------------------------------
There are 4 groups of distinct atoms

 Group   1 Type C   : 12s5p4d2f1g contracted to 6s4p3d1f1g pattern {711111/2111/211/2/1}
 Group   2 Type O   : 12s5p4d2f1g contracted to 6s4p3d1f1g pattern {711111/2111/211/2/1}
 Group   3 Type H   : 5s2p1d contracted to 3s1p1d pattern {311/2/1}
 Group   4 Type N   : 12s5p4d2f1g contracted to 6s4p3d1f1g pattern {711111/2111/211/2/1}

Atom   0C    basis set group =>   1
Atom   1C    basis set group =>   1
Atom   2C    basis set group =>   1
Atom   3C    basis set group =>   1
Atom   4C    basis set group =>   1
Atom   5C    basis set group =>   1
Atom   6O    basis set group =>   2
Atom   7O    basis set group =>   2
Atom   8H    basis set group =>   3
Atom   9H    basis set group =>   3
Atom  10N    basis set group =>   4
Atom  11H    basis set group =>   3
Atom  12O    basis set group =>   2
Atom  13H    basis set group =>   3
------------------------------------------------------------------------------
                           ORCA GTO INTEGRAL CALCULATION
                           -- RI-GTO INTEGRALS CHOSEN --
------------------------------------------------------------------------------
------------------------------------------------------------------------------
                   ___                                                        
                  /   \      - P O W E R E D   B Y -                         
                 /     \                                                     
                 |  |  |   _    _      __       _____    __    __             
                 |  |  |  | |  | |    /  \     |  _  \  |  |  /  |          
                  \  \/   | |  | |   /    \    | | | |  |  | /  /          
                 / \  \   | |__| |  /  /\  \   | |_| |  |  |/  /          
                |  |  |   |  __  | /  /__\  \  |    /   |      \           
                |  |  |   | |  | | |   __   |  |    \   |  |\   \          
                \     /   | |  | | |  |  |  |  | |\  \  |  | \   \       
                 \___/    |_|  |_| |__|  |__|  |_| \__\ |__|  \__/        
                                                                              
                      - O R C A' S   B I G   F R I E N D -                    
                                      &                                       
                       - I N T E G R A L  F E E D E R -                       
                                                                              
 v1 FN, 2020, v2 2021                                                         
------------------------------------------------------------------------------


Reading SHARK input file inp.SHARKINP.tmp ... ok
----------------------
SHARK INTEGRAL PACKAGE
----------------------

Number of atoms                             ...     14
Number of basis functions                   ...    334
Number of shells                            ...    126
Maximum angular momentum                    ...      3
Integral batch strategy                     ... SHARK/LIBINT Hybrid
RI-J (if used) integral strategy            ... SPLIT-RIJ (Revised 2003 algorithm where possible)
Printlevel                                  ...      1
Contraction scheme used                     ... SEGMENTED contraction
Coulomb Range Separation                    ... NOT USED
Exchange Range Separation                   ... NOT USED
Finite Nucleus Model                        ... NOT USED
Auxiliary Coulomb fitting basis             ... AVAILABLE
   # of basis functions in Aux-J            ...    534
   # of shells in Aux-J                     ...    170
   Maximum angular momentum in Aux-J        ...      4
Auxiliary J/K fitting basis                 ... NOT available
Auxiliary Correlation fitting basis         ... NOT available
Auxiliary 'external' fitting basis          ... NOT available
Integral threshold                          ...     2.500000e-11
Primitive cut-off                           ...     2.500000e-12
Primitive pair pre-selection threshold      ...     2.500000e-12

Calculating pre-screening integrals         ... done (  0.1 sec) Dimension = 126
Organizing shell pair data                  ... done (  0.2 sec)
Shell pair information
Total number of shell pairs                 ...      8001
Shell pairs after pre-screening             ...      7008
Total number of primitive shell pairs       ...     25432
Primitive shell pairs kept                  ...     16261
          la=0 lb=0:   1615 shell pairs
          la=1 lb=0:   1910 shell pairs
          la=1 lb=1:    562 shell pairs
          la=2 lb=0:   1066 shell pairs
          la=2 lb=1:    626 shell pairs
          la=2 lb=2:    181 shell pairs
          la=3 lb=0:    518 shell pairs
          la=3 lb=1:    310 shell pairs
          la=3 lb=2:    172 shell pairs
          la=3 lb=3:     48 shell pairs

Calculating one electron integrals          ... done (  0.0 sec)
Calculating RI/J V-Matrix + Cholesky decomp.... done (  0.3 sec)
Calculating Nuclear repulsion               ... done (  0.0 sec) ENN=    468.451057250781 Eh

SHARK setup successfully completed in   1.5 seconds

Maximum memory used throughout the entire GTOINT-calculation: 120.6 MB
-------------------------------------------------------------------------------
                                 ORCA SCF
-------------------------------------------------------------------------------

------------
SCF SETTINGS
------------
Hamiltonian:
 Density Functional     Method          .... DFT(GTOs)
 Exchange Functional    Exchange        .... PBE
   PBE kappa parameter   XKappa         ....  0.804000
   PBE mue parameter    XMuePBE         ....  0.219520
 Correlation Functional Correlation     .... PBE
   PBE beta parameter  CBetaPBE         ....  0.066725
 LDA part of GGA corr.  LDAOpt          .... PW91-LDA
 Gradients option       PostSCFGGA      .... off
   Density functional embedding theory  .... OFF
   NL short-range parameter             ....  6.400000
 RI-approximation to the Coulomb term is turned on
   Number of AuxJ basis functions       .... 534


General Settings:
 Integral files         IntName         .... inp
 Hartree-Fock type      HFTyp           .... RHF
 Total Charge           Charge          ....   -1
 Multiplicity           Mult            ....    1
 Number of Electrons    NEL             ....   72
 Basis Dimension        Dim             ....  334
 Nuclear Repulsion      ENuc            ....    468.4510572508 Eh

Convergence Acceleration:
 DIIS                   CNVDIIS         .... on
   Start iteration      DIISMaxIt       ....    12
   Startup error        DIISStart       ....  0.200000
   # of expansion vecs  DIISMaxEq       ....     5
   Bias factor          DIISBfac        ....   1.050
   Max. coefficient     DIISMaxC        ....  10.000
 Trust-Rad. Augm. Hess. CNVTRAH         .... auto
   Auto Start mean grad. ratio tolernc. ....  1.125000
   Auto Start start iteration           ....    20
   Auto Start num. interpolation iter.  ....    10
   Max. Number of Micro iterations      ....    16
   Max. Number of Macro iterations      .... Maxiter - #DIIS iter
   Number of Davidson start vectors     ....     2
   Converg. threshold I  (grad. norm)   ....   1.000e-05
   Converg. threshold II (energy diff.) ....   1.000e-08
   Grad. Scal. Fac. for Micro threshold ....   0.100
   Minimum threshold for Micro iter.    ....   0.010
   NR start threshold (gradient norm)   ....   0.001
   Initial trust radius                 ....   0.400
   Minimum AH scaling param. (alpha)    ....   1.000
   Maximum AH scaling param. (alpha)    .... 1000.000
   Orbital update algorithm             .... Taylor
   White noise on init. David. guess    .... on
   Maximum white noise                  ....   0.010
   Quad. conv. algorithm                .... NR
 SOSCF                  CNVSOSCF        .... on
   Start iteration      SOSCFMaxIt      ....   150
   Startup grad/error   SOSCFStart      ....  0.003300
 Level Shifting         CNVShift        .... on
   Level shift para.    LevelShift      ....    0.2500
   Turn off err/grad.   ShiftErr        ....    0.0010
 Zerner damping         CNVZerner       .... off
 Static damping         CNVDamp         .... on
   Fraction old density DampFac         ....    0.7000
   Max. Damping (<1)    DampMax         ....    0.9800
   Min. Damping (>=0)   DampMin         ....    0.0000
   Turn off err/grad.   DampErr         ....    0.1000
 Fernandez-Rico         CNVRico         .... off

SCF Procedure:
 Maximum # iterations   MaxIter         ....   125
 SCF integral mode      SCFMode         .... Direct
   Integral package                     .... SHARK and LIBINT hybrid scheme
 Reset frequency        DirectResetFreq ....    20
 Integral Threshold     Thresh          ....  2.500e-11 Eh
 Primitive CutOff       TCut            ....  2.500e-12 Eh

Convergence Tolerance:
 Convergence Check Mode ConvCheckMode   .... Total+1el-Energy
 Convergence forced     ConvForced      .... 0
 Energy Change          TolE            ....  1.000e-08 Eh
 1-El. energy change                    ....  1.000e-05 Eh
 Orbital Gradient       TolG            ....  1.000e-05
 Orbital Rotation angle TolX            ....  1.000e-05
 DIIS Error             TolErr          ....  5.000e-07


Diagonalization of the overlap matrix:
Smallest eigenvalue                        ... 1.721e-05
Time for diagonalization                   ...    0.017 sec
Threshold for overlap eigenvalues          ... 1.000e-08
Number of eigenvalues below threshold      ... 0
Time for construction of square roots      ...    0.100 sec
Total time needed                          ...    0.117 sec

Time for model grid setup =    0.381 sec

------------------------------
INITIAL GUESS: MODEL POTENTIAL
------------------------------
Loading Hartree-Fock densities                     ... done
Calculating cut-offs                               ... done
Initializing the effective Hamiltonian             ... done
Setting up the integral package (SHARK)            ... done
Starting the Coulomb interaction                   ... done (   0.5 sec)
Reading the grid                                   ... done
Mapping shells                                     ... done
Starting the XC term evaluation                    ... done (   0.6 sec)
  promolecular density results
     # of electrons  =     70.992227202
     EX              =    -62.598029979
     EC              =     -2.367006542
     EX+EC           =    -64.965036521
Transforming the Hamiltonian                       ... done (   0.0 sec)
Diagonalizing the Hamiltonian                      ... done (   0.0 sec)
Back transforming the eigenvectors                 ... done (   0.0 sec)
Now organizing SCF variables                       ... done
                      ------------------
                      INITIAL GUESS DONE (   1.5 sec)
                      ------------------
-------------------
DFT GRID GENERATION
-------------------

General Integration Accuracy     IntAcc      ... 4.388
Radial Grid Type                 RadialGrid  ... OptM3 with GC (2021)
Angular Grid (max. ang.)         AngularGrid ... 4 (Lebedev-302)
Angular grid pruning method      GridPruning ... 4 (adaptive)
Weight generation scheme         WeightScheme... Becke
Basis function cutoff            BFCut       ... 1.0000e-11
Integration weight cutoff        WCut        ... 1.0000e-14
Angular grids for H and He will be reduced by one unit
Partially contracted basis set               ... off
Rotationally invariant grid construction     ... off

Total number of grid points                  ...    73510
Total number of batches                      ...     1157
Average number of points per batch           ...       63
Average number of grid points per atom       ...     5251
Time for grid setup =    1.181 sec


--------------------
CPCM SOLVATION MODEL
--------------------
CPCM parameters:
  Epsilon                                         ...      80.4000
  Refrac                                          ...       1.3300
  Rsolv                                           ...       1.3000
  Surface type                                    ... GAUSSIAN VDW
  Epsilon function type                           ...         CPCM
Radii:
 Radius for C  used is    3.8550 Bohr (=   2.0400 Ang.)
 Radius for O  used is    3.4469 Bohr (=   1.8240 Ang.)
 Radius for H  used is    2.4944 Bohr (=   1.3200 Ang.)
 Radius for N  used is    3.5149 Bohr (=   1.8600 Ang.)
Calculating surface                               ...        done! (  0.0s)
GEPOL surface points                              ...          817
GEPOL Volume                                      ...    1084.7421
GEPOL Surface-area                                ...     605.1454
Calculating surface distance matrix               ...        done! (  0.0s)
Performing Cholesky decomposition & store         ...        done! (  0.1s)
Overall time for CPCM initialization              ...                 0.1s
--------------
SCF ITERATIONS
--------------
ITER       Energy         Delta-E        Max-DP      RMS-DP      [F,P]     Damp
               ***  Starting incremental Fock matrix formation  ***
  0   -510.7214176188   0.000000000000 0.38479661  0.00433978  0.3100231 0.7000
  1   -510.9075542463  -0.186136627501 0.24985421  0.00293002  0.0821729 0.7000
                               ***Turning on DIIS***
  2   -510.9472737223  -0.039719476029 0.10455489  0.00226368  0.0561125 0.0000
  3   -511.0558096405  -0.108535918227 0.26209354  0.00280647  0.0370078 0.0000
  4   -511.0641520050  -0.008342364510 0.02363139  0.00042391  0.0453150 0.0000
  5   -511.0698342524  -0.005682247375 0.01062764  0.00019943  0.0103149 0.0000
  6   -511.0702766456  -0.000442393214 0.00659642  0.00008419  0.0057512 0.0000
                      *** Initiating the SOSCF procedure ***
                           *** Shutting down DIIS ***
                      *** Re-Reading the Fockian *** 
                      *** Removing any level shift *** 
ITER      Energy       Delta-E        Grad      Rot      Max-DP    RMS-DP
  7   -511.07036492  -0.0000882769  0.000321  0.000321  0.003838  0.000046
               *** Restarting incremental Fock matrix formation ***
  8   -511.07037069  -0.0000057658  0.000214  0.002662  0.001225  0.000035
  9   -511.07036071   0.0000099736  0.000682  0.002433  0.002539  0.000032
 10   -511.07037244  -0.0000117227  0.000355  0.004308  0.000975  0.000027
 11   -511.07035349   0.0000189495  0.001008  0.003266  0.000664  0.000019
 12   -511.07037383  -0.0000203420  0.000084  0.001047  0.000461  0.000010
 13   -511.07037102   0.0000028109  0.000428  0.001239  0.000472  0.000010
 14   -511.07037365  -0.0000026343  0.000168  0.001010  0.000858  0.000014
 15   -511.07036896   0.0000046902  0.000389  0.000873  0.001048  0.000014
 16   -511.07037404  -0.0000050758  0.000056  0.000393  0.000588  0.000007
 17   -511.07037378   0.0000002563  0.000127  0.000279  0.000401  0.000005
 18   -511.07037410  -0.0000003206  0.000006  0.000021  0.000045  0.000001
 19   -511.07037411  -0.0000000101  0.000010  0.000012  0.000019  0.000000
                  ***Gradient check signals convergence***
              ***Rediagonalizing the Fockian in SOSCF/NRSCF***

               *****************************************************
               *                     SUCCESS                       *
               *           SCF CONVERGED AFTER  20 CYCLES          *
               *****************************************************


----------------
TOTAL SCF ENERGY
----------------

Total Energy       :         -511.07037411 Eh          -13906.93189 eV

Components:
Nuclear Repulsion  :          468.45105725 Eh           12747.20132 eV
Electronic Energy  :         -979.52143136 Eh          -26654.13322 eV
One Electron Energy:        -1638.62364737 Eh          -44589.21632 eV
Two Electron Energy:          659.10221601 Eh           17935.08310 eV
CPCM Dielectric    :           -0.08780536 Eh              -2.38931 eV

Virial components:
Potential Energy   :        -1019.39291721 Eh          -27739.09151 eV
Kinetic Energy     :          508.32254311 Eh           13832.15961 eV
Virial Ratio       :            2.00540568


DFT components:
N(Alpha)           :       35.999980649478 electrons
N(Beta)            :       35.999980649478 electrons
N(Total)           :       71.999961298955 electrons
E(X)               :      -63.684214511323 Eh       
E(C)               :       -2.407793269998 Eh       
E(XC)              :      -66.092007781321 Eh       
DFET-embed. en.    :        0.000000000000 Eh       
CPCM Solvation Model Properties:
Surface-charge          :            0.97557349
Charge-correction       :           -0.00313297 Eh              -0.08525 eV
Free-energy (cav+disp)  :  This term is not implemented in the current solvation scheme

---------------
SCF CONVERGENCE
---------------

  Last Energy change         ...    5.9306e-09  Tolerance :   1.0000e-08
  Last MAX-Density change    ...    2.7514e-05  Tolerance :   1.0000e-07
  Last RMS-Density change    ...    4.2953e-07  Tolerance :   5.0000e-09
  Last Orbital Gradient      ...    2.0107e-06  Tolerance :   1.0000e-05
  Last Orbital Rotation      ...    1.0516e-05  Tolerance :   1.0000e-05

             **** THE GBW FILE WAS UPDATED (inp.gbw) ****
             **** DENSITY inp.scfp WAS UPDATED ****
             **** ENERGY FILE WAS UPDATED (inp.en.tmp) ****
             **** THE GBW FILE WAS UPDATED (inp.gbw) ****
             **** DENSITY inp.scfp WAS UPDATED ****
----------------
ORBITAL ENERGIES
----------------

  NO   OCC          E(Eh)            E(eV) 
   0   2.0000     -18.733330      -509.7598 
   1   2.0000     -18.733320      -509.7596 
   2   2.0000     -18.707203      -509.0489 
   3   2.0000     -14.148272      -384.9941 
   4   2.0000      -9.944398      -270.6008 
   5   2.0000      -9.938175      -270.4315 
   6   2.0000      -9.909040      -269.6387 
   7   2.0000      -9.909031      -269.6384 
   8   2.0000      -9.893884      -269.2263 
   9   2.0000      -9.893873      -269.2260 
  10   2.0000      -0.998358       -27.1667 
  11   2.0000      -0.922107       -25.0918 
  12   2.0000      -0.838104       -22.8060 
  13   2.0000      -0.756028       -20.5726 
  14   2.0000      -0.684869       -18.6362 
  15   2.0000      -0.667799       -18.1717 
  16   2.0000      -0.591915       -16.1068 
  17   2.0000      -0.550916       -14.9912 
  18   2.0000      -0.506883       -13.7930 
  19   2.0000      -0.458076       -12.4649 
  20   2.0000      -0.424370       -11.5477 
  21   2.0000      -0.409745       -11.1497 
  22   2.0000      -0.399269       -10.8647 
  23   2.0000      -0.386828       -10.5261 
  24   2.0000      -0.384335       -10.4583 
  25   2.0000      -0.371936       -10.1209 
  26   2.0000      -0.353912        -9.6304 
  27   2.0000      -0.328353        -8.9349 
  28   2.0000      -0.317314        -8.6346 
  29   2.0000      -0.278286        -7.5726 
  30   2.0000      -0.232507        -6.3268 
  31   2.0000      -0.230072        -6.2606 
  32   2.0000      -0.220995        -6.0136 
  33   2.0000      -0.197338        -5.3698 
  34   2.0000      -0.187814        -5.1107 
  35   2.0000      -0.177001        -4.8164 
  36   0.0000      -0.154167        -4.1951 
  37   0.0000      -0.059091        -1.6080 
  38   0.0000      -0.028203        -0.7675 
  39   0.0000       0.048726         1.3259 
  40   0.0000       0.072930         1.9845 
  41   0.0000       0.073338         1.9956 
  42   0.0000       0.086274         2.3476 
  43   0.0000       0.086930         2.3655 
  44   0.0000       0.096720         2.6319 
  45   0.0000       0.109517         2.9801 
  46   0.0000       0.124800         3.3960 
  47   0.0000       0.145442         3.9577 
  48   0.0000       0.155121         4.2211 
  49   0.0000       0.171330         4.6621 
  50   0.0000       0.183601         4.9960 
  51   0.0000       0.190327         5.1791 
  52   0.0000       0.203563         5.5392 
  53   0.0000       0.207185         5.6378 
  54   0.0000       0.223694         6.0870 
  55   0.0000       0.239836         6.5263 
  56   0.0000       0.255439         6.9509 
  57   0.0000       0.264607         7.2003 
  58   0.0000       0.283677         7.7192 
  59   0.0000       0.287615         7.8264 
  60   0.0000       0.288995         7.8639 
  61   0.0000       0.292300         7.9539 
  62   0.0000       0.298826         8.1315 
  63   0.0000       0.330812         9.0019 
  64   0.0000       0.331877         9.0308 
  65   0.0000       0.356409         9.6984 
  66   0.0000       0.363869         9.9014 
  67   0.0000       0.363969         9.9041 
  68   0.0000       0.367609        10.0032 
  69   0.0000       0.379620        10.3300 
  70   0.0000       0.398672        10.8484 
  71   0.0000       0.404557        11.0086 
  72   0.0000       0.410196        11.1620 
  73   0.0000       0.416067        11.3218 
  74   0.0000       0.437070        11.8933 
  75   0.0000       0.438013        11.9189 
  76   0.0000       0.444717        12.1014 
  77   0.0000       0.451717        12.2918 
  78   0.0000       0.462963        12.5979 
  79   0.0000       0.467662        12.7257 
  80   0.0000       0.512440        13.9442 
  81   0.0000       0.531228        14.4554 
  82   0.0000       0.534350        14.5404 
  83   0.0000       0.541056        14.7229 
  84   0.0000       0.541424        14.7329 
  85   0.0000       0.553702        15.0670 
  86   0.0000       0.568930        15.4814 
  87   0.0000       0.574016        15.6198 
  88   0.0000       0.593024        16.1370 
  89   0.0000       0.621136        16.9020 
  90   0.0000       0.631092        17.1729 
  91   0.0000       0.651969        17.7410 
  92   0.0000       0.667067        18.1518 
  93   0.0000       0.678484        18.4625 
  94   0.0000       0.682387        18.5687 
  95   0.0000       0.692759        18.8509 
  96   0.0000       0.729004        19.8372 
  97   0.0000       0.732829        19.9413 
  98   0.0000       0.767728        20.8910 
  99   0.0000       0.769979        20.9522 
 100   0.0000       0.791181        21.5291 
 101   0.0000       0.810425        22.0528 
 102   0.0000       0.817185        22.2367 
 103   0.0000       0.822405        22.3788 
 104   0.0000       0.843266        22.9464 
 105   0.0000       0.871348        23.7106 
 106   0.0000       0.897424        24.4201 
 107   0.0000       0.949740        25.8437 
 108   0.0000       0.962250        26.1842 
 109   0.0000       0.979241        26.6465 
 110   0.0000       0.985593        26.8194 
 111   0.0000       0.996777        27.1237 
 112   0.0000       1.046060        28.4647 
 113   0.0000       1.074983        29.2518 
 114   0.0000       1.080388        29.3989 
 115   0.0000       1.092745        29.7351 
 116   0.0000       1.100045        29.9337 
 117   0.0000       1.138655        30.9844 
 118   0.0000       1.144927        31.1550 
 119   0.0000       1.173552        31.9340 
 120   0.0000       1.185142        32.2494 
 121   0.0000       1.187025        32.3006 
 122   0.0000       1.235407        33.6171 
 123   0.0000       1.272619        34.6297 
 124   0.0000       1.294797        35.2332 
 125   0.0000       1.300466        35.3875 
 126   0.0000       1.319213        35.8976 
 127   0.0000       1.330570        36.2067 
 128   0.0000       1.356265        36.9059 
 129   0.0000       1.379382        37.5349 
 130   0.0000       1.392567        37.8937 
 131   0.0000       1.397981        38.0410 
 132   0.0000       1.425184        38.7812 
 133   0.0000       1.426261        38.8105 
 134   0.0000       1.450757        39.4771 
 135   0.0000       1.468661        39.9643 
 136   0.0000       1.487810        40.4854 
 137   0.0000       1.519901        41.3586 
 138   0.0000       1.523567        41.4584 
 139   0.0000       1.553893        42.2836 
 140   0.0000       1.557367        42.3781 
 141   0.0000       1.563208        42.5371 
 142   0.0000       1.570467        42.7346 
 143   0.0000       1.607190        43.7339 
 144   0.0000       1.618589        44.0440 
 145   0.0000       1.641115        44.6570 
 146   0.0000       1.676571        45.6218 
 147   0.0000       1.702832        46.3364 
 148   0.0000       1.713644        46.6306 
 149   0.0000       1.735763        47.2325 
 150   0.0000       1.760401        47.9030 
 151   0.0000       1.786091        48.6020 
 152   0.0000       1.792059        48.7644 
 153   0.0000       1.831236        49.8305 
 154   0.0000       1.845365        50.2149 
 155   0.0000       1.885922        51.3185 
 156   0.0000       1.893964        51.5374 
 157   0.0000       1.919737        52.2387 
 158   0.0000       1.931694        52.5641 
 159   0.0000       1.948658        53.0257 
 160   0.0000       1.951505        53.1032 
 161   0.0000       1.983813        53.9823 
 162   0.0000       1.991438        54.1898 
 163   0.0000       2.005017        54.5593 
 164   0.0000       2.014160        54.8081 
 165   0.0000       2.030055        55.2406 
 166   0.0000       2.084679        56.7270 
 167   0.0000       2.086034        56.7639 
 168   0.0000       2.139626        58.2222 
 169   0.0000       2.148216        58.4559 
 170   0.0000       2.162544        58.8458 
 171   0.0000       2.193947        59.7003 
 172   0.0000       2.194473        59.7146 
 173   0.0000       2.268166        61.7199 
 174   0.0000       2.304273        62.7024 
 175   0.0000       2.345791        63.8322 
 176   0.0000       2.345835        63.8334 
 177   0.0000       2.375334        64.6361 
 178   0.0000       2.445042        66.5330 
 179   0.0000       2.447042        66.5874 
 180   0.0000       2.471678        67.2578 
 181   0.0000       2.478340        67.4391 
 182   0.0000       2.494576        67.8809 
 183   0.0000       2.499976        68.0278 
 184   0.0000       2.536534        69.0226 
 185   0.0000       2.537247        69.0420 
 186   0.0000       2.548593        69.3507 
 187   0.0000       2.572071        69.9896 
 188   0.0000       2.572208        69.9933 
 189   0.0000       2.590635        70.4947 
 190   0.0000       2.604779        70.8796 
 191   0.0000       2.630120        71.5692 
 192   0.0000       2.659536        72.3697 
 193   0.0000       2.672530        72.7232 
 194   0.0000       2.684071        73.0373 
 195   0.0000       2.693662        73.2983 
 196   0.0000       2.704277        73.5871 
 197   0.0000       2.722329        74.0783 
 198   0.0000       2.723049        74.0979 
 199   0.0000       2.764562        75.2276 
 200   0.0000       2.772778        75.4511 
 201   0.0000       2.804249        76.3075 
 202   0.0000       2.829963        77.0072 
 203   0.0000       2.850831        77.5751 
 204   0.0000       2.862323        77.8878 
 205   0.0000       2.883462        78.4630 
 206   0.0000       2.894488        78.7630 
 207   0.0000       2.919502        79.4437 
 208   0.0000       2.949259        80.2534 
 209   0.0000       2.960429        80.5574 
 210   0.0000       2.970605        80.8343 
 211   0.0000       3.004918        81.7680 
 212   0.0000       3.010418        81.9176 
 213   0.0000       3.025736        82.3345 
 214   0.0000       3.055281        83.1384 
 215   0.0000       3.061432        83.3058 
 216   0.0000       3.069894        83.5361 
 217   0.0000       3.073289        83.6285 
 218   0.0000       3.099117        84.3312 
 219   0.0000       3.107367        84.5558 
 220   0.0000       3.125229        85.0418 
 221   0.0000       3.145646        85.5974 
 222   0.0000       3.162135        86.0461 
 223   0.0000       3.198516        87.0361 
 224   0.0000       3.217240        87.5455 
 225   0.0000       3.225982        87.7834 
 226   0.0000       3.234487        88.0149 
 227   0.0000       3.236241        88.0626 
 228   0.0000       3.271505        89.0222 
 229   0.0000       3.308903        90.0398 
 230   0.0000       3.325343        90.4872 
 231   0.0000       3.327239        90.5388 
 232   0.0000       3.343703        90.9868 
 233   0.0000       3.350052        91.1596 
 234   0.0000       3.378814        91.9422 
 235   0.0000       3.398517        92.4784 
 236   0.0000       3.436562        93.5136 
 237   0.0000       3.474377        94.5426 
 238   0.0000       3.506424        95.4147 
 239   0.0000       3.545631        96.4815 
 240   0.0000       3.559572        96.8609 
 241   0.0000       3.582565        97.4865 
 242   0.0000       3.582604        97.4876 
 243   0.0000       3.618092        98.4533 
 244   0.0000       3.659643        99.5839 
 245   0.0000       3.670343        99.8751 
 246   0.0000       3.738199       101.7216 
 247   0.0000       3.807199       103.5991 
 248   0.0000       3.821466       103.9874 
 249   0.0000       3.846033       104.6559 
 250   0.0000       3.847682       104.7007 
 251   0.0000       3.878529       105.5401 
 252   0.0000       3.894748       105.9815 
 253   0.0000       3.919744       106.6617 
 254   0.0000       3.928583       106.9022 
 255   0.0000       3.973424       108.1224 
 256   0.0000       3.987898       108.5162 
 257   0.0000       3.990623       108.5904 
 258   0.0000       4.005961       109.0078 
 259   0.0000       4.062828       110.5552 
 260   0.0000       4.090510       111.3084 
 261   0.0000       4.099458       111.5519 
 262   0.0000       4.140534       112.6697 
 263   0.0000       4.237047       115.2959 
 264   0.0000       4.275232       116.3350 
 265   0.0000       4.349641       118.3598 
 266   0.0000       4.352506       118.4377 
 267   0.0000       4.376581       119.0928 
 268   0.0000       4.463443       121.4564 
 269   0.0000       4.473789       121.7380 
 270   0.0000       4.562043       124.1395 
 271   0.0000       4.584892       124.7613 
 272   0.0000       4.617753       125.6554 
 273   0.0000       4.633466       126.0830 
 274   0.0000       4.681891       127.4007 
 275   0.0000       4.748622       129.2166 
 276   0.0000       4.793440       130.4361 
 277   0.0000       4.819037       131.1327 
 278   0.0000       4.839883       131.6999 
 279   0.0000       4.865204       132.3889 
 280   0.0000       4.893250       133.1521 
 281   0.0000       4.962174       135.0276 
 282   0.0000       5.029075       136.8481 
 283   0.0000       5.064014       137.7988 
 284   0.0000       5.073087       138.0457 
 285   0.0000       5.079179       138.2115 
 286   0.0000       5.082989       138.3152 
 287   0.0000       5.088961       138.4777 
 288   0.0000       5.094659       138.6327 
 289   0.0000       5.108193       139.0010 
 290   0.0000       5.137308       139.7933 
 291   0.0000       5.199354       141.4816 
 292   0.0000       5.255795       143.0175 
 293   0.0000       5.274280       143.5205 
 294   0.0000       5.363579       145.9504 
 295   0.0000       5.417823       147.4265 
 296   0.0000       5.453023       148.3843 
 297   0.0000       5.502750       149.7374 
 298   0.0000       5.505059       149.8003 
 299   0.0000       5.662817       154.0931 
 300   0.0000       5.717805       155.5894 
 301   0.0000       5.876818       159.9164 
 302   0.0000       5.919330       161.0732 
 303   0.0000       5.939232       161.6147 
 304   0.0000       5.996333       163.1685 
 305   0.0000       6.212138       169.0409 
 306   0.0000       6.215676       169.1371 
 307   0.0000       6.227896       169.4697 
 308   0.0000       6.238664       169.7627 
 309   0.0000       6.270012       170.6157 
 310   0.0000       6.284987       171.0232 
 311   0.0000       6.461626       175.8298 
 312   0.0000       6.462562       175.8553 
 313   0.0000       6.562856       178.5844 
 314   0.0000       6.625447       180.2876 
 315   0.0000       6.631775       180.4598 
 316   0.0000       6.690085       182.0465 
 317   0.0000       6.714948       182.7230 
 318   0.0000       6.733718       183.2338 
 319   0.0000       6.784858       184.6254 
 320   0.0000       6.942019       188.9020 
 321   0.0000       6.948627       189.0818 
 322   0.0000       7.427513       202.1129 
 323   0.0000       7.464227       203.1119 
 324   0.0000      21.880234       595.3914 
 325   0.0000      22.133779       602.2907 
 326   0.0000      22.196203       603.9894 
 327   0.0000      22.199821       604.0878 
 328   0.0000      22.431597       610.3948 
 329   0.0000      22.994508       625.7124 
 330   0.0000      31.723712       863.2461 
 331   0.0000      43.237145      1176.5425 
 332   0.0000      43.385864      1180.5894 
 333   0.0000      43.538350      1184.7387 

                    ********************************
                    * MULLIKEN POPULATION ANALYSIS *
                    ********************************

-----------------------
MULLIKEN ATOMIC CHARGES
-----------------------
   0 C :    0.261997
   1 C :   -0.220556
   2 C :   -0.239307
   3 C :    0.205720
   4 C :   -0.238898
   5 C :   -0.221135
   6 O :   -0.463986
   7 O :   -0.440760
   8 H :    0.132882
   9 H :    0.132940
  10 N :    0.288494
  11 H :    0.133212
  12 O :   -0.463718
  13 H :    0.133113
Sum of atomic charges:   -1.0000000

--------------------------------
MULLIKEN REDUCED ORBITAL CHARGES
--------------------------------
  0 C s       :     2.986200  s :     2.986200
      pz      :     0.855094  p :     2.552196
      px      :     0.843726
      py      :     0.853376
      dz2     :     0.042668  d :     0.182681
      dxz     :     0.036985
      dyz     :     0.026576
      dx2y2   :     0.037089
      dxy     :     0.039363
      f0      :     0.001447  f :     0.016926
      f+1     :     0.003951
      f-1     :     0.001416
      f+2     :     0.002842
      f-2     :     0.002542
      f+3     :     0.002133
      f-3     :     0.002594
  1 C s       :     3.291916  s :     3.291916
      pz      :     0.943510  p :     2.851890
      px      :     0.952986
      py      :     0.955395
      dz2     :     0.016588  d :     0.070472
      dxz     :     0.016096
      dyz     :     0.011520
      dx2y2   :     0.010488
      dxy     :     0.015779
      f0      :     0.000861  f :     0.006278
      f+1     :     0.001192
      f-1     :     0.000589
      f+2     :     0.001041
      f-2     :     0.001189
      f+3     :     0.000800
      f-3     :     0.000606
  2 C s       :     3.312383  s :     3.312383
      pz      :     0.945935  p :     2.840487
      px      :     0.953447
      py      :     0.941105
      dz2     :     0.013698  d :     0.080182
      dxz     :     0.015922
      dyz     :     0.013436
      dx2y2   :     0.017530
      dxy     :     0.019595
      f0      :     0.000306  f :     0.006256
      f+1     :     0.001249
      f-1     :     0.000912
      f+2     :     0.000761
      f-2     :     0.001171
      f+3     :     0.000900
      f-3     :     0.000956
  3 C s       :     3.082258  s :     3.082258
      pz      :     0.894710  p :     2.567544
      px      :     0.779617
      py      :     0.893217
      dz2     :     0.029914  d :     0.133513
      dxz     :     0.026621
      dyz     :     0.016664
      dx2y2   :     0.033703
      dxy     :     0.026612
      f0      :     0.001211  f :     0.010964
      f+1     :     0.001881
      f-1     :     0.001104
      f+2     :     0.001940
      f-2     :     0.001276
      f+3     :     0.001690
      f-3     :     0.001862
  4 C s       :     3.311969  s :     3.311969
      pz      :     0.929981  p :     2.840538
      px      :     0.964093
      py      :     0.946464
      dz2     :     0.020022  d :     0.080135
      dxz     :     0.019951
      dyz     :     0.012609
      dx2y2   :     0.010949
      dxy     :     0.016604
      f0      :     0.000943  f :     0.006256
      f+1     :     0.000986
      f-1     :     0.000598
      f+2     :     0.001000
      f-2     :     0.001220
      f+3     :     0.000862
      f-3     :     0.000647
  5 C s       :     3.292534  s :     3.292534
      pz      :     0.944374  p :     2.851768
      px      :     0.944023
      py      :     0.963371
      dz2     :     0.012686  d :     0.070552
      dxz     :     0.014086
      dyz     :     0.011902
      dx2y2   :     0.016044
      dxy     :     0.015832
      f0      :     0.000335  f :     0.006281
      f+1     :     0.001120
      f-1     :     0.000805
      f+2     :     0.000784
      f-2     :     0.001164
      f+3     :     0.000912
      f-3     :     0.001162
  6 O s       :     3.917655  s :     3.917655
      pz      :     1.800769  p :     4.517260
      px      :     1.655532
      py      :     1.060959
      dz2     :     0.003972  d :     0.027077
      dxz     :     0.001062
      dyz     :     0.005151
      dx2y2   :     0.009615
      dxy     :     0.007277
      f0      :     0.000183  f :     0.001995
      f+1     :     0.000068
      f-1     :     0.000405
      f+2     :     0.000182
      f-2     :     0.000127
      f+3     :     0.000534
      f-3     :     0.000496
  7 O s       :     3.774622  s :     3.774622
      pz      :     1.612052  p :     4.636585
      px      :     1.396723
      py      :     1.627810
      dz2     :     0.004860  d :     0.027944
      dxz     :     0.007126
      dyz     :     0.003163
      dx2y2   :     0.006660
      dxy     :     0.006135
      f0      :     0.000124  f :     0.001609
      f+1     :     0.000374
      f-1     :     0.000077
      f+2     :     0.000271
      f-2     :     0.000272
      f+3     :     0.000278
      f-3     :     0.000211
  8 H s       :     0.844826  s :     0.844826
      pz      :     0.005330  p :     0.022292
      px      :     0.007166
      py      :     0.009796
  9 H s       :     0.844230  s :     0.844230
      pz      :     0.010607  p :     0.022830
      px      :     0.005467
      py      :     0.006756
 10 N s       :     3.380894  s :     3.380894
      pz      :     1.017096  p :     3.164241
      px      :     1.108743
      py      :     1.038402
      dz2     :     0.033115  d :     0.156962
      dxz     :     0.030527
      dyz     :     0.038279
      dx2y2   :     0.030133
      dxy     :     0.024907
      f0      :     0.001957  f :     0.009409
      f+1     :     0.001749
      f-1     :     0.001832
      f+2     :     0.000980
      f-2     :     0.000393
      f+3     :     0.001095
      f-3     :     0.001404
 11 H s       :     0.843966  s :     0.843966
      pz      :     0.005666  p :     0.022822
      px      :     0.007887
      py      :     0.009268
 12 O s       :     3.917569  s :     3.917569
      pz      :     1.056734  p :     4.517076
      px      :     1.723774
      py      :     1.736568
      dz2     :     0.013863  d :     0.027077
      dxz     :     0.005475
      dyz     :     0.006422
      dx2y2   :     0.000707
      dxy     :     0.000609
      f0      :     0.000996  f :     0.001995
      f+1     :     0.000366
      f-1     :     0.000507
      f+2     :     0.000057
      f-2     :     0.000053
      f+3     :     0.000008
      f-3     :     0.000008
 13 H s       :     0.844597  s :     0.844597
      pz      :     0.010935  p :     0.022289
      px      :     0.004936
      py      :     0.006419


                     *******************************
                     * LOEWDIN POPULATION ANALYSIS *
                     *******************************

----------------------
LOEWDIN ATOMIC CHARGES
----------------------
   0 C :   -0.423437
   1 C :   -0.118492
   2 C :   -0.112424
   3 C :   -0.205230
   4 C :   -0.112597
   5 C :   -0.118326
   6 O :   -0.267858
   7 O :    0.004234
   8 H :    0.146168
   9 H :    0.142355
  10 N :    0.044709
  11 H :    0.142326
  12 O :   -0.267658
  13 H :    0.146231

-------------------------------
LOEWDIN REDUCED ORBITAL CHARGES
-------------------------------
  0 C s       :     2.742185  s :     2.742185
      pz      :     0.950757  p :     2.787398
      px      :     0.906804
      py      :     0.929837
      dz2     :     0.165557  d :     0.780986
      dxz     :     0.180453
      dyz     :     0.116747
      dx2y2   :     0.147649
      dxy     :     0.170579
      f0      :     0.009157  f :     0.112868
      f+1     :     0.026022
      f-1     :     0.011526
      f+2     :     0.021498
      f-2     :     0.013768
      f+3     :     0.013237
      f-3     :     0.017661
  1 C s       :     2.808756  s :     2.808756
      pz      :     0.982883  p :     2.950519
      px      :     1.008332
      py      :     0.959304
      dz2     :     0.069782  d :     0.324760
      dxz     :     0.086779
      dyz     :     0.053347
      dx2y2   :     0.048193
      dxy     :     0.066659
      f0      :     0.004650  f :     0.034458
      f+1     :     0.006631
      f-1     :     0.004607
      f+2     :     0.006109
      f-2     :     0.004510
      f+3     :     0.003727
      f-3     :     0.004223
  2 C s       :     2.812719  s :     2.812719
      pz      :     0.973045  p :     2.931557
      px      :     1.012000
      py      :     0.946511
      dz2     :     0.050721  d :     0.334751
      dxz     :     0.074153
      dyz     :     0.054734
      dx2y2   :     0.071929
      dxy     :     0.083213
      f0      :     0.002082  f :     0.033398
      f+1     :     0.007109
      f-1     :     0.004415
      f+2     :     0.005134
      f-2     :     0.004508
      f+3     :     0.004140
      f-3     :     0.006010
  3 C s       :     2.773034  s :     2.773034
      pz      :     0.993891  p :     2.849771
      px      :     0.866025
      py      :     0.989855
      dz2     :     0.105198  d :     0.524199
      dxz     :     0.111400
      dyz     :     0.069827
      dx2y2   :     0.132291
      dxy     :     0.105483
      f0      :     0.006586  f :     0.058227
      f+1     :     0.010474
      f-1     :     0.005472
      f+2     :     0.009732
      f-2     :     0.005861
      f+3     :     0.009552
      f-3     :     0.010550
  4 C s       :     2.812699  s :     2.812699
      pz      :     0.963675  p :     2.931712
      px      :     1.013299
      py      :     0.954738
      dz2     :     0.078565  d :     0.334786
      dxz     :     0.084931
      dyz     :     0.053924
      dx2y2   :     0.044250
      dxy     :     0.073116
      f0      :     0.004940  f :     0.033400
      f+1     :     0.005582
      f-1     :     0.004157
      f+2     :     0.005890
      f-2     :     0.004476
      f+3     :     0.004067
      f-3     :     0.004288
  5 C s       :     2.808755  s :     2.808755
      pz      :     0.968594  p :     2.950379
      px      :     1.015829
      py      :     0.965955
      dz2     :     0.054403  d :     0.324736
      dxz     :     0.067163
      dyz     :     0.052828
      dx2y2   :     0.069989
      dxy     :     0.080352
      f0      :     0.002124  f :     0.034456
      f+1     :     0.006180
      f-1     :     0.004138
      f+2     :     0.005763
      f-2     :     0.004850
      f+3     :     0.004717
      f-3     :     0.006684
  6 O s       :     3.636486  s :     3.636486
      pz      :     1.754408  p :     4.556447
      px      :     1.610125
      py      :     1.191914
      dz2     :     0.010627  d :     0.069053
      dxz     :     0.002036
      dyz     :     0.012032
      dx2y2   :     0.026482
      dxy     :     0.017876
      f0      :     0.000468  f :     0.005873
      f+1     :     0.000186
      f-1     :     0.001144
      f+2     :     0.000540
      f-2     :     0.000375
      f+3     :     0.001613
      f-3     :     0.001548
  7 O s       :     3.412218  s :     3.412218
      pz      :     1.539867  p :     4.510789
      px      :     1.446794
      py      :     1.524127
      dz2     :     0.011601  d :     0.067022
      dxz     :     0.019648
      dyz     :     0.005903
      dx2y2   :     0.013716
      dxy     :     0.016153
      f0      :     0.000488  f :     0.005738
      f+1     :     0.001345
      f-1     :     0.000181
      f+2     :     0.001058
      f-2     :     0.000938
      f+3     :     0.000786
      f-3     :     0.000942
  8 H s       :     0.790794  s :     0.790794
      pz      :     0.015263  p :     0.063039
      px      :     0.020334
      py      :     0.027442
  9 H s       :     0.793227  s :     0.793227
      pz      :     0.029839  p :     0.064418
      px      :     0.015059
      py      :     0.019520
 10 N s       :     3.081704  s :     3.081704
      pz      :     1.085188  p :     3.335328
      px      :     1.157996
      py      :     1.092144
      dz2     :     0.133413  d :     0.490385
      dxz     :     0.077596
      dyz     :     0.100973
      dx2y2   :     0.109419
      dxy     :     0.068984
      f0      :     0.010991  f :     0.047874
      f+1     :     0.008499
      f-1     :     0.009069
      f+2     :     0.004571
      f-2     :     0.001384
      f+3     :     0.005862
      f-3     :     0.007498
 11 H s       :     0.793254  s :     0.793254
      pz      :     0.016456  p :     0.064420
      px      :     0.021693
      py      :     0.026271
 12 O s       :     3.636503  s :     3.636503
      pz      :     1.188042  p :     4.556233
      px      :     1.668817
      py      :     1.699375
      dz2     :     0.038778  d :     0.069049
      dxz     :     0.012782
      dyz     :     0.014757
      dx2y2   :     0.001513
      dxy     :     0.001218
      f0      :     0.003027  f :     0.005873
      f+1     :     0.001064
      f-1     :     0.001429
      f+2     :     0.000168
      f-2     :     0.000157
      f+3     :     0.000013
      f-3     :     0.000015
 13 H s       :     0.790721  s :     0.790721
      pz      :     0.030652  p :     0.063048
      px      :     0.014243
      py      :     0.018153


                      *****************************
                      * MAYER POPULATION ANALYSIS *
                      *****************************

  NA   - Mulliken gross atomic population
  ZA   - Total nuclear charge
  QA   - Mulliken gross atomic charge
  VA   - Mayer's total valence
  BVA  - Mayer's bonded valence
  FA   - Mayer's free valence

  ATOM       NA         ZA         QA         VA         BVA        FA
  0 C      5.7380     6.0000     0.2620     4.1291     4.1291    -0.0000
  1 C      6.2206     6.0000    -0.2206     3.8095     3.8095     0.0000
  2 C      6.2393     6.0000    -0.2393     3.9092     3.9092     0.0000
  3 C      5.7943     6.0000     0.2057     3.6923     3.6923     0.0000
  4 C      6.2389     6.0000    -0.2389     3.9079     3.9079     0.0000
  5 C      6.2211     6.0000    -0.2211     3.8096     3.8096    -0.0000
  6 O      8.4640     8.0000    -0.4640     1.7589     1.7589    -0.0000
  7 O      8.4408     8.0000    -0.4408     2.0440     2.0440     0.0000
  8 H      0.8671     1.0000     0.1329     0.9882     0.9882     0.0000
  9 H      0.8671     1.0000     0.1329     1.0182     1.0182     0.0000
 10 N      6.7115     7.0000     0.2885     3.7911     3.7911    -0.0000
 11 H      0.8668     1.0000     0.1332     1.0180     1.0180     0.0000
 12 O      8.4637     8.0000    -0.4637     1.7593     1.7593     0.0000
 13 H      0.8669     1.0000     0.1331     0.9881     0.9881    -0.0000

  Mayer bond orders larger than 0.100000
B(  0-C ,  1-C ) :   1.1603 B(  0-C ,  5-C ) :   1.1605 B(  0-C ,  7-O ) :   1.7030 
B(  1-C ,  2-C ) :   1.4740 B(  1-C ,  8-H ) :   0.9671 B(  2-C ,  3-C ) :   1.2397 
B(  2-C ,  9-H ) :   0.9460 B(  3-C ,  4-C ) :   1.2394 B(  3-C , 10-N ) :   1.1216 
B(  4-C ,  5-C ) :   1.4738 B(  4-C , 11-H ) :   0.9457 B(  5-C , 13-H ) :   0.9672 
B(  6-O , 10-N ) :   1.2579 B(  6-O , 12-O ) :   0.1551 B( 10-N , 12-O ) :   1.2584 


-------
TIMINGS
-------

Total SCF time: 0 days 0 hours 1 min 27 sec 

Total time                  ....      87.613 sec
Sum of individual times     ....      83.235 sec  ( 95.0%)

Fock matrix formation       ....      79.090 sec  ( 90.3%)
  Split-RI-J                ....      16.508 sec  ( 20.9% of F)
  XC integration            ....      37.850 sec  ( 47.9% of F)
    Basis function eval.    ....      11.119 sec  ( 29.4% of XC)
    Density eval.           ....       9.409 sec  ( 24.9% of XC)
    XC-Functional eval.     ....       1.367 sec  (  3.6% of XC)
    XC-Potential eval.      ....      11.141 sec  ( 29.4% of XC)
Diagonalization             ....       0.173 sec  (  0.2%)
Density matrix formation    ....       0.026 sec  (  0.0%)
Population analysis         ....       0.161 sec  (  0.2%)
Initial guess               ....       1.106 sec  (  1.3%)
Orbital Transformation      ....       0.000 sec  (  0.0%)
Orbital Orthonormalization  ....       0.000 sec  (  0.0%)
DIIS solution               ....       0.273 sec  (  0.3%)
SOSCF solution              ....       0.843 sec  (  1.0%)
Grid generation             ....       1.563 sec  (  1.8%)

Maximum memory used throughout the entire SCF-calculation: 145.2 MB


-------------------------------------------------------------------------------
                          DFT DISPERSION CORRECTION                            
                                                                               
                              DFTD3 V3.1  Rev 1                                
                          USING Becke-Johnson damping                          
-------------------------------------------------------------------------------
The PBE functional is recognized
Active option DFTDOPT                   ...         4   

molecular C6(AA) [au] = 2677.702140 


            DFT-D V3
 parameters
 s6 scaling factor         :     1.0000 
 a1 scaling factor         :     0.4289 
 s8 scaling factor         :     0.7875 
 a2 scaling factor         :     4.4407 
 ad hoc parameters k1-k3   :    16.0000     1.3333    -4.0000 

 Edisp/kcal,au: -9.251767437883  -0.014743628317 
 E6   /kcal   :  -6.421502265 
 E8   /kcal   :  -2.830265173 
 % E8         :  30.591616058 

-------------------------   ----------------
Dispersion correction           -0.014743628
-------------------------   ----------------


-------------------------   --------------------
FINAL SINGLE POINT ENERGY      -511.085117735672
-------------------------   --------------------

------------------------------------------------------------------------------
                         ORCA SCF GRADIENT CALCULATION
------------------------------------------------------------------------------

Gradient of the Kohn-Sham DFT energy:
Kohn-Sham wavefunction type      ... RKS
Hartree-Fock exchange scaling    ...    0.000
Number of operators              ...    1
Number of atoms                  ...   14
Basis set dimensions             ...  334
Integral neglect threshold       ... 2.5e-11
Integral primitive cutoff        ... 2.5e-12
SHARK Integral package           ... ON

Nuc. rep. gradient       (SHARK) ... done (  0.0 sec)
HCore & Overlap gradient (SHARK) ... done (  0.5 sec)
RI-J gradient            (SHARK) ... done (  3.9 sec)
Exchange-correlation gradient    ... done
Dispersion correction            ... done

------------------
CARTESIAN GRADIENT
------------------

   1   C   :    0.004994882   -0.004755708   -0.003837345
   2   C   :    0.070397055    0.034189874    0.027520577
   3   C   :   -0.027105925    0.005836860   -0.044442491
   4   C   :   -0.023788550   -0.038158819   -0.043980955
   5   C   :   -0.036613720   -0.037397606   -0.001813848
   6   C   :    0.065492966    0.011850476    0.049537530
   7   O   :    0.017403213   -0.059315425   -0.026278041
   8   O   :   -0.033822043   -0.009123021   -0.016723777
   9   H   :   -0.004246938   -0.001417942    0.001910103
  10   H   :    0.005548877   -0.000273379    0.003520167
  11   N   :   -0.064822314    0.123514204    0.110897445
  12   H   :    0.006000186    0.002166153    0.001048887
  13   O   :    0.023945845   -0.029865678   -0.055109748
  14   H   :   -0.003383533    0.002750011   -0.002248503

Difference to translation invariance:
           :   -0.0000000000    0.0000000000   -0.0000000000

Difference to rotation invariance:
           :    0.0005770271   -0.0003125150   -0.0006733731

Norm of the cartesian gradient     ...    0.2562821621
RMS gradient                       ...    0.0395451961
MAX gradient                       ...    0.1235142044

-------
TIMINGS
-------

Total SCF gradient time            ...       18.774 sec

One electron gradient       ....       0.528 sec  (  2.8%)
RI-J Coulomb gradient       ....       3.874 sec  ( 20.6%)
XC gradient                 ....      11.780 sec  ( 62.7%)
CPCM gradient               ....       0.850 sec  (  4.5%)
   A-Matrix (El+Nuc)        ....       0.040 sec  (  0.2%)
   Potential                ....       0.809 sec  (  4.3%)

Maximum memory used throughout the entire SCFGRAD-calculation: 144.1 MB
------------------------------------------------------------------------------
                         ORCA GEOMETRY RELAXATION STEP
------------------------------------------------------------------------------

Reading the OPT-File                    .... done
Getting information on internals        .... done
Copying old internal coords+grads       .... done
Making the new internal coordinates     .... (new redundants).... done
Validating the new internal coordinates .... (new redundants).... done
Calculating the B-matrix                .... done
Calculating the G,G- and P matrices     .... done
Transforming gradient to internals      .... done
Projecting the internal gradient        .... done
Number of atoms                         ....  14
Number of internal coordinates          ....  63
Current Energy                          ....  -511.085117736 Eh
Current gradient norm                   ....     0.256282162 Eh/bohr
Maximum allowed component of the step   ....  0.300
Current trust radius                    ....  0.300
Evaluating the initial hessian          ....  (Almloef) done
Projecting the Hessian                  .... done
Forming the augmented Hessian           .... done
Diagonalizing the augmented Hessian     .... done
Last element of RFO vector              ....  0.869733375
Lowest eigenvalues of augmented Hessian:
 -0.096934677  0.014663674  0.015154911  0.015498142  0.016240683
Length of the computed step             ....  0.567440443
Warning: the length of the step is outside the trust region - taking restricted step instead
The input lambda is                     ....    -0.096935
   iter:   1  x=   -0.189774  g=    2.498818 f(x)=     0.231989
   iter:   2  x=   -0.283131  g=    0.946830 f(x)=     0.088393
   iter:   3  x=   -0.337551  g=    0.472343 f(x)=     0.025705
   iter:   4  x=   -0.349078  g=    0.338979 f(x)=     0.003907
   iter:   5  x=   -0.349471  g=    0.317619 f(x)=     0.000125
   iter:   6  x=   -0.349472  g=    0.316924 f(x)=     0.000000
   iter:   7  x=   -0.349472  g=    0.316923 f(x)=     0.000000
   iter:   8  x=   -0.349472  g=    0.316923 f(x)=     0.000000
The output lambda is                    ....    -0.349472 (8 iterations)
The final length of the internal step   ....  0.300000000
Converting the step to cartesian space:
 Initial RMS(Int)=    0.0377964473
Transforming coordinates:
 Iter   0:  RMS(Cart)=    0.0553984572 RMS(Int)=    0.0376985818
 Iter   1:  RMS(Cart)=    0.0055857374 RMS(Int)=    0.0041236926
 Iter   2:  RMS(Cart)=    0.0003904987 RMS(Int)=    0.0003394352
 Iter   3:  RMS(Cart)=    0.0000621429 RMS(Int)=    0.0000429414
 Iter   4:  RMS(Cart)=    0.0000052473 RMS(Int)=    0.0000046790
 Iter   5:  RMS(Cart)=    0.0000007014 RMS(Int)=    0.0000004463
 Iter   6:  RMS(Cart)=    0.0000000771 RMS(Int)=    0.0000000664
done
Storing new coordinates                 .... done

                                .--------------------.
          ----------------------|Geometry convergence|-------------------------
          Item                value                   Tolerance       Converged
          ---------------------------------------------------------------------
          RMS gradient        0.0238204896            0.0001000000      NO
          MAX gradient        0.0645495592            0.0003000000      NO
          RMS step            0.0377964473            0.0020000000      NO
          MAX step            0.1056309014            0.0040000000      NO
          ........................................................
          Max(Bonds)      0.0375      Max(Angles)    6.05
          Max(Dihed)        5.70      Max(Improp)    0.00
          ---------------------------------------------------------------------

The optimization has not yet converged - more geometry cycles are needed


    ---------------------------------------------------------------------------
                         Redundant Internal Coordinates
                            (Angstroem and degrees)

        Definition                    Value    dE/dq     Step     New-Value
    ----------------------------------------------------------------------------
     1. B(C   1,C   0)                1.4420 -0.002497  0.0016    1.4436   
     2. B(C   2,C   1)                1.4567  0.059356 -0.0375    1.4192   
     3. B(C   3,C   2)                1.4772  0.042017 -0.0278    1.4494   
     4. B(C   4,C   3)                1.4772  0.041973 -0.0278    1.4494   
     5. B(C   5,C   4)                1.4567  0.059377 -0.0375    1.4192   
     6. B(C   5,C   0)                1.4420 -0.002465  0.0016    1.4436   
     7. B(O   7,C   0)                1.2462 -0.038616  0.0157    1.2619   
     8. B(H   8,C   1)                1.0827 -0.004123  0.0030    1.0857   
     9. B(H   9,C   2)                1.0818 -0.004549  0.0033    1.0852   
    10. B(N  10,O   6)                1.3891  0.046191 -0.0287    1.3604   
    11. B(N  10,C   3)                1.4446  0.011748 -0.0077    1.4369   
[...]

-----------------------
MULLIKEN ATOMIC CHARGES
-----------------------
   0 C :    0.230912
   1 C :   -0.226847
   2 C :   -0.213585
   3 C :    0.134799
   4 C :   -0.213302
   5 C :   -0.227532
   6 O :   -0.406046
   7 O :   -0.506431
   8 H :    0.105002
   9 H :    0.131166
  10 N :    0.361321
  11 H :    0.131365
  12 O :   -0.406039
  13 H :    0.105219
Sum of atomic charges:   -1.0000000

--------------------------------
MULLIKEN REDUCED ORBITAL CHARGES
--------------------------------
  0 C s       :     2.980463  s :     2.980463
      pz      :     0.877540  p :     2.609721
      px      :     0.855953
      py      :     0.876228
      dz2     :     0.033756  d :     0.162987
      dxz     :     0.033457
      dyz     :     0.025209
      dx2y2   :     0.035753
      dxy     :     0.034812
      f0      :     0.001371  f :     0.015916
      f+1     :     0.003763
      f-1     :     0.001107
      f+2     :     0.002552
      f-2     :     0.002262
      f+3     :     0.002103
      f-3     :     0.002758
  1 C s       :     3.263378  s :     3.263378
      pz      :     0.958605  p :     2.883194
      px      :     0.943158
      py      :     0.981430
      dz2     :     0.017355  d :     0.073745
      dxz     :     0.016775
      dyz     :     0.011760
      dx2y2   :     0.010901
      dxy     :     0.016954
      f0      :     0.000811  f :     0.006530
      f+1     :     0.001353
      f-1     :     0.000561
      f+2     :     0.001002
      f-2     :     0.001253
      f+3     :     0.000894
      f-3     :     0.000656
  2 C s       :     3.265811  s :     3.265811
      pz      :     0.964957  p :     2.844282
      px      :     0.935071
      py      :     0.944254
      dz2     :     0.016412  d :     0.096585
      dxz     :     0.018933
      dyz     :     0.013900
      dx2y2   :     0.024926
      dxy     :     0.022414
      f0      :     0.000247  f :     0.006908
      f+1     :     0.001472
      f-1     :     0.000927
      f+2     :     0.000774
      f-2     :     0.001228
      f+3     :     0.000952
      f-3     :     0.001307
  3 C s       :     3.056381  s :     3.056381
      pz      :     0.895306  p :     2.665978
      px      :     0.837842
      py      :     0.932831
      dz2     :     0.026441  d :     0.131055
      dxz     :     0.027172
      dyz     :     0.025566
      dx2y2   :     0.032559
      dxy     :     0.019318
      f0      :     0.001371  f :     0.011786
      f+1     :     0.001989
      f-1     :     0.001113
      f+2     :     0.002047
      f-2     :     0.001930
      f+3     :     0.001489
      f-3     :     0.001847
  4 C s       :     3.264915  s :     3.264915
      pz      :     0.936202  p :     2.844949
      px      :     0.948288
      py      :     0.960460
      dz2     :     0.025100  d :     0.096529
      dxz     :     0.023440
      dyz     :     0.013282
      dx2y2   :     0.012620
      dxy     :     0.022087
      f0      :     0.001083  f :     0.006908
      f+1     :     0.001340
      f-1     :     0.000577
      f+2     :     0.000980
      f-2     :     0.001271
      f+3     :     0.001012
      f-3     :     0.000646
  5 C s       :     3.263890  s :     3.263890
      pz      :     0.968325  p :     2.883229
      px      :     0.938803
      py      :     0.976101
      dz2     :     0.013741  d :     0.073877
      dxz     :     0.014695
      dyz     :     0.011939
      dx2y2   :     0.016064
      dxy     :     0.017438
      f0      :     0.000311  f :     0.006536
      f+1     :     0.001343
      f-1     :     0.000723
      f+2     :     0.000664
      f-2     :     0.001284
      f+3     :     0.001048
      f-3     :     0.001163
  6 O s       :     3.861940  s :     3.861940
      pz      :     1.633003  p :     4.503488
      px      :     1.553962
      py      :     1.316523
      dz2     :     0.004915  d :     0.037688
      dxz     :     0.005892
      dyz     :     0.007406
      dx2y2   :     0.008782
      dxy     :     0.010693
      f0      :     0.000305  f :     0.002930
      f+1     :     0.000212
      f-1     :     0.000354
      f+2     :     0.000273
      f-2     :     0.000682
      f+3     :     0.000618
      f-3     :     0.000485
  7 O s       :     3.776659  s :     3.776659
      pz      :     1.634704  p :     4.701421
      px      :     1.407543
      py      :     1.659175
      dz2     :     0.004195  d :     0.026829
      dxz     :     0.007371
      dyz     :     0.002370
      dx2y2   :     0.006731
      dxy     :     0.006161
      f0      :     0.000123  f :     0.001522
      f+1     :     0.000342
      f-1     :     0.000044
      f+2     :     0.000265
      f-2     :     0.000234
      f+3     :     0.000276
      f-3     :     0.000238
  8 H s       :     0.873102  s :     0.873102
      pz      :     0.005538  p :     0.021896
      px      :     0.006912
      py      :     0.009446
  9 H s       :     0.846629  s :     0.846629
      pz      :     0.010770  p :     0.022205
      px      :     0.005347
      py      :     0.006088
 10 N s       :     3.261994  s :     3.261994
      pz      :     1.017227  p :     3.130718
      px      :     1.078667
      py      :     1.034824
      dz2     :     0.053411  d :     0.233091
      dxz     :     0.047120
      dyz     :     0.044389
      dx2y2   :     0.050752
      dxy     :     0.037419
      f0      :     0.001728  f :     0.012877
      f+1     :     0.002222
      f-1     :     0.001872
      f+2     :     0.001965
      f-2     :     0.001781
      f+3     :     0.001311
      f-3     :     0.001998
 11 H s       :     0.846432  s :     0.846432
      pz      :     0.005104  p :     0.022204
      px      :     0.007794
      py      :     0.009306
 12 O s       :     3.861953  s :     3.861953
      pz      :     1.259021  p :     4.503455
      px      :     1.718963
      py      :     1.525471
      dz2     :     0.012137  d :     0.037701
      dxz     :     0.007393
      dyz     :     0.011249
      dx2y2   :     0.002867
      dxy     :     0.004054
      f0      :     0.000622  f :     0.002931
      f+1     :     0.000411
      f-1     :     0.000778
      f+2     :     0.000389
      f-2     :     0.000528
      f+3     :     0.000118
      f-3     :     0.000086
 13 H s       :     0.872888  s :     0.872888
      pz      :     0.010501  p :     0.021894
      px      :     0.004762
      py      :     0.006631


                     *******************************
                     * LOEWDIN POPULATION ANALYSIS *
                     *******************************

----------------------
LOEWDIN ATOMIC CHARGES
----------------------
   0 C :   -0.396712
   1 C :   -0.150894
   2 C :   -0.135340
   3 C :   -0.229252
   4 C :   -0.135481
   5 C :   -0.150956
   6 O :   -0.140590
   7 O :   -0.079861
   8 H :    0.144919
   9 H :    0.153458
  10 N :   -0.037288
  11 H :    0.153448
  12 O :   -0.140417
  13 H :    0.144966

-------------------------------
LOEWDIN REDUCED ORBITAL CHARGES
-------------------------------
  0 C s       :     2.744680  s :     2.744680
      pz      :     0.943248  p :     2.782736
      px      :     0.913298
      py      :     0.926190
      dz2     :     0.153074  d :     0.767024
      dxz     :     0.181303
      dyz     :     0.105207
      dx2y2   :     0.150208
      dxy     :     0.177231
      f0      :     0.008756  f :     0.102272
      f+1     :     0.023166
      f-1     :     0.008975
      f+2     :     0.018883
      f-2     :     0.011490
      f+3     :     0.012620
      f-3     :     0.018382
  1 C s       :     2.784998  s :     2.784998
      pz      :     0.994226  p :     2.974606
      px      :     1.018646
      py      :     0.961734
      dz2     :     0.074821  d :     0.352647
      dxz     :     0.093166
      dyz     :     0.056222
      dx2y2   :     0.049547
      dxy     :     0.078891
      f0      :     0.004747  f :     0.038642
      f+1     :     0.007816
      f-1     :     0.004522
      f+2     :     0.006904
      f-2     :     0.005102
      f+3     :     0.004608
      f-3     :     0.004943
  2 C s       :     2.771286  s :     2.771286
      pz      :     0.962590  p :     2.930153
      px      :     1.018130
      py      :     0.949433
      dz2     :     0.060529  d :     0.391053
      dxz     :     0.085114
      dyz     :     0.060372
      dx2y2   :     0.096355
      dxy     :     0.088684
      f0      :     0.002505  f :     0.042848
      f+1     :     0.008708
      f-1     :     0.005076
      f+2     :     0.006965
      f-2     :     0.005571
      f+3     :     0.005231
      f-3     :     0.008794
  3 C s       :     2.719620  s :     2.719620
      pz      :     0.992426  p :     2.891899
      px      :     0.890474
      py      :     1.009000
      dz2     :     0.105725  d :     0.550350
      dxz     :     0.127694
      dyz     :     0.097204
      dx2y2   :     0.120626
      dxy     :     0.099102
      f0      :     0.007877  f :     0.067383
      f+1     :     0.011849
      f-1     :     0.007135
      f+2     :     0.012128
      f-2     :     0.008883
      f+3     :     0.008535
      f-3     :     0.010975
  4 C s       :     2.771222  s :     2.771222
      pz      :     0.975600  p :     2.930227
      px      :     1.012565
      py      :     0.942062
      dz2     :     0.098877  d :     0.391164
      dxz     :     0.089961
      dyz     :     0.062249
      dx2y2   :     0.049489
      dxy     :     0.090589
      f0      :     0.006729  f :     0.042869
      f+1     :     0.008038
      f-1     :     0.005033
      f+2     :     0.007077
      f-2     :     0.005294
      f+3     :     0.005583
      f-3     :     0.005115
  5 C s       :     2.784947  s :     2.784947
      pz      :     0.972508  p :     2.974608
      px      :     1.028010
      py      :     0.974091
      dz2     :     0.060496  d :     0.352746
      dxz     :     0.073673
      dyz     :     0.057237
      dx2y2   :     0.072834
      dxy     :     0.088506
      f0      :     0.002445  f :     0.038655
      f+1     :     0.007712
      f-1     :     0.003986
      f+2     :     0.006010
      f-2     :     0.005614
      f+3     :     0.005312
      f-3     :     0.007575
  6 O s       :     3.525830  s :     3.525830
      pz      :     1.598269  p :     4.513431
      px      :     1.537224
      py      :     1.377937
      dz2     :     0.011786  d :     0.091611
      dxz     :     0.013454
      dyz     :     0.019176
      dx2y2   :     0.018971
      dxy     :     0.028225
      f0      :     0.001019  f :     0.009718
      f+1     :     0.000646
      f-1     :     0.001154
      f+2     :     0.000872
      f-2     :     0.002331
      f+3     :     0.002081
      f-3     :     0.001615
  7 O s       :     3.431854  s :     3.431854
      pz      :     1.560547  p :     4.581465
      px      :     1.463013
      py      :     1.557904
      dz2     :     0.009503  d :     0.061497
      dxz     :     0.018630
      dyz     :     0.004271
      dx2y2   :     0.014329
      dxy     :     0.014765
      f0      :     0.000452  f :     0.005045
      f+1     :     0.001090
      f-1     :     0.000098
      f+2     :     0.001010
      f-2     :     0.000702
      f+3     :     0.000786
      f-3     :     0.000906
  8 H s       :     0.795349  s :     0.795349
      pz      :     0.015482  p :     0.059731
      px      :     0.018819
      py      :     0.025431
  9 H s       :     0.785467  s :     0.785467
      pz      :     0.029164  p :     0.061074
      px      :     0.014695
      py      :     0.017215
 10 N s       :     2.933950  s :     2.933950
      pz      :     1.094414  p :     3.314062
      px      :     1.134669
      py      :     1.084979
      dz2     :     0.154977  d :     0.724196
      dxz     :     0.144457
      dyz     :     0.156702
      dx2y2   :     0.144100
      dxy     :     0.123961
      f0      :     0.008527  f :     0.065080
      f+1     :     0.012300
      f-1     :     0.009785
      f+2     :     0.009860
      f-2     :     0.007454
      f+3     :     0.006674
      f-3     :     0.010481
 11 H s       :     0.785486  s :     0.785486
      pz      :     0.014679  p :     0.061066
      px      :     0.020936
      py      :     0.025451
 12 O s       :     3.525728  s :     3.525728
      pz      :     1.344972  p :     4.513329
      px      :     1.648985
      py      :     1.519372
      dz2     :     0.027937  d :     0.091638
      dxz     :     0.018627
      dyz     :     0.029397
      dx2y2   :     0.006809
      dxy     :     0.008868
      f0      :     0.001812  f :     0.009722
      f+1     :     0.001449
      f-1     :     0.002797
      f+2     :     0.001407
      f-2     :     0.001732
      f+3     :     0.000290
      f-3     :     0.000235
 13 H s       :     0.795303  s :     0.795303
      pz      :     0.028168  p :     0.059732
      px      :     0.013332
      py      :     0.018232


                      *****************************
                      * MAYER POPULATION ANALYSIS *
                      *****************************

  NA   - Mulliken gross atomic population
  ZA   - Total nuclear charge
  QA   - Mulliken gross atomic charge
  VA   - Mayer's total valence
  BVA  - Mayer's bonded valence
  FA   - Mayer's free valence

  ATOM       NA         ZA         QA         VA         BVA        FA
  0 C      5.7691     6.0000     0.2309     4.1793     4.1793     0.0000
  1 C      6.2268     6.0000    -0.2268     3.7232     3.7232    -0.0000
  2 C      6.2136     6.0000    -0.2136     3.9191     3.9191     0.0000
  3 C      5.8652     6.0000     0.1348     3.6799     3.6799    -0.0000
  4 C      6.2133     6.0000    -0.2133     3.9190     3.9190     0.0000
  5 C      6.2275     6.0000    -0.2275     3.7234     3.7234     0.0000
  6 O      8.4060     8.0000    -0.4060     1.8804     1.8804     0.0000
  7 O      8.5064     8.0000    -0.5064     2.0153     2.0153     0.0000
  8 H      0.8950     1.0000     0.1050     0.9919     0.9919    -0.0000
  9 H      0.8688     1.0000     0.1312     1.0102     1.0102    -0.0000
 10 N      6.6387     7.0000     0.3613     4.2561     4.2561     0.0000
 11 H      0.8686     1.0000     0.1314     1.0100     1.0100     0.0000
 12 O      8.4060     8.0000    -0.4060     1.8805     1.8805     0.0000
 13 H      0.8948     1.0000     0.1052     0.9919     0.9919    -0.0000

  Mayer bond orders larger than 0.100000
B(  0-C ,  1-C ) :   1.1341 B(  0-C ,  5-C ) :   1.1341 B(  0-C ,  7-O ) :   1.7935 
B(  1-C ,  2-C ) :   1.5020 B(  1-C ,  8-H ) :   0.9757 B(  2-C ,  3-C ) :   1.2442 
B(  2-C ,  9-H ) :   0.9355 B(  3-C ,  4-C ) :   1.2438 B(  3-C , 10-N ) :   1.1514 
B(  4-C ,  5-C ) :   1.5024 B(  4-C , 11-H ) :   0.9353 B(  5-C , 13-H ) :   0.9756 
B(  6-O , 10-N ) :   1.5164 B(  6-O , 12-O ) :   0.1428 B( 10-N , 12-O ) :   1.5163 


-------
TIMINGS
-------

Total SCF time: 0 days 0 hours 0 min 43 sec 

Total time                  ....      43.718 sec
Sum of individual times     ....      40.702 sec  ( 93.1%)

Fock matrix formation       ....      38.790 sec  ( 88.7%)
  Split-RI-J                ....       8.263 sec  ( 21.3% of F)
  XC integration            ....      18.185 sec  ( 46.9% of F)
    Basis function eval.    ....       5.822 sec  ( 32.0% of XC)
    Density eval.           ....       4.915 sec  ( 27.0% of XC)
    XC-Functional eval.     ....       0.702 sec  (  3.9% of XC)
    XC-Potential eval.      ....       4.360 sec  ( 24.0% of XC)
Diagonalization             ....       0.022 sec  (  0.0%)
Density matrix formation    ....       0.014 sec  (  0.0%)
Population analysis         ....       0.058 sec  (  0.1%)
Initial guess               ....       0.026 sec  (  0.1%)
Orbital Transformation      ....       0.000 sec  (  0.0%)
Orbital Orthonormalization  ....       0.021 sec  (  0.0%)
DIIS solution               ....       0.007 sec  (  0.0%)
SOSCF solution              ....       0.643 sec  (  1.5%)
Grid generation             ....       1.143 sec  (  2.6%)

Maximum memory used throughout the entire SCF-calculation: 145.7 MB


-------------------------------------------------------------------------------
                          DFT DISPERSION CORRECTION                            
                                                                               
                              DFTD3 V3.1  Rev 1                                
                          USING Becke-Johnson damping                          
-------------------------------------------------------------------------------
The PBE functional is recognized
Active option DFTDOPT                   ...         4   

molecular C6(AA) [au] = 2668.530119 


            DFT-D V3
 parameters
 s6 scaling factor         :     1.0000 
 a1 scaling factor         :     0.4289 
 s8 scaling factor         :     0.7875 
 a2 scaling factor         :     4.4407 
 ad hoc parameters k1-k3   :    16.0000     1.3333    -4.0000 

 Edisp/kcal,au: -9.415081777679  -0.015003886256 
 E6   /kcal   :  -6.536452595 
 E8   /kcal   :  -2.878629182 
 % E8         :  30.574659364 

-------------------------   ----------------
Dispersion correction           -0.015003886
-------------------------   ----------------


-------------------------   --------------------
FINAL SINGLE POINT ENERGY      -511.194013917208
-------------------------   --------------------

                                *** OPTIMIZATION RUN DONE ***

                            ***************************************
                            *     ORCA property calculations      *
                            ***************************************

                                    ---------------------
                                    Active property flags
                                    ---------------------
   (+) Dipole Moment


------------------------------------------------------------------------------
                       ORCA ELECTRIC PROPERTIES CALCULATION
------------------------------------------------------------------------------

Dipole Moment Calculation                       ... on
Quadrupole Moment Calculation                   ... off
Polarizability Calculation                      ... off
GBWName                                         ... inp.gbw
Electron density                                ... inp.scfp
The origin for moment calculation is the CENTER OF MASS  = (-7.483504, -6.458100  1.195462)

-------------
DIPOLE MOMENT
-------------
                                X             Y             Z
Electronic contribution:     -2.87354      -0.82287      -1.48125
Nuclear contribution   :      2.39615       0.68073       1.22847
                        -----------------------------------------
Total Dipole Moment    :     -0.47739      -0.14214      -0.25278
                        -----------------------------------------
Magnitude (a.u.)       :      0.55857
Magnitude (Debye)      :      1.41978



--------------------
Rotational spectrum 
--------------------
 
Rotational constants in cm-1:     0.130234     0.027828     0.022929 
Rotational constants in MHz :  3904.307482   834.265742   687.388826 

 Dipole components along the rotational axes: 
x,y,z [a.u.] :     0.558530     0.000920     0.006991 
x,y,z [Debye]:     1.419670     0.002339     0.017770 

 

Timings for individual modules:

Sum of individual times         ...      873.937 sec (=  14.566 min)
GTO integral calculation        ...       17.653 sec (=   0.294 min)   2.0 %
SCF iterations                  ...      674.516 sec (=  11.242 min)  77.2 %
SCF Gradient evaluation         ...      180.366 sec (=   3.006 min)  20.6 %
Geometry relaxation             ...        1.403 sec (=   0.023 min)   0.2 %
                             ****ORCA TERMINATED NORMALLY****
TOTAL RUN TIME: 0 days 0 hours 14 minutes 40 seconds 749 msec
