 Entering Gaussian System
 *********************************************
 Gaussian 98:
 frequency output generated by the xtb code
 *********************************************
                         Standard orientation:
 --------------------------------------------------------------------
  Center     Atomic     Atomic              Coordinates (Angstroms)
  Number     Number      Type              X           Y           Z
 --------------------------------------------------------------------
    1          6             0       -3.821080   -0.660242   -0.678071
    2          6             0       -2.526035    0.137798   -0.846482
    3          7             0       -1.459990   -0.467983   -0.416171
    4          8             0       -2.594489    1.290933   -1.378421
    5          1             0       -4.548701   -0.049678   -0.147304
    6          1             0       -4.219612   -0.896087   -1.663108
    7          1             0       -3.613220   -1.571841   -0.128689
    8          1             0       -0.638155    0.126685   -0.566567
 --------------------------------------------------------------------
     1 basis functions        1 primitive gaussians
     1 alpha electrons        1 beta electrons
 
 Harmonic frequencies (cm**-1), IR intensities (km*mol⁻¹),
 Raman scattering activities (A**4/amu), Raman depolarization ratios,
 reduced masses (AMU), force constants (mDyne/A) and normal coordinates:
                      1                      2                      3
                        a                      a                      a 
 Frequencies --   104.9268               410.6645               543.8107
 Red. masses --     1.9570                 9.9495                 8.3031
 Frc consts  --     0.0000                 0.0000                 0.0000
 IR Inten    --     0.4559                 3.7655                 9.6254
 Raman Activ --     0.0000                 0.0000                 0.0000
 Depolar     --     0.0000                 0.0000                 0.0000
 Atom AN      X      Y      Z        X      Y      Z        X      Y      Z
   1   6     0.00   0.00   0.01     0.21  -0.28   0.16     0.10   0.06  -0.02
   2   6    -0.00   0.01   0.02    -0.14   0.25  -0.13    -0.02   0.32   0.62
   3   7     0.02  -0.08  -0.17    -0.46  -0.15   0.00    -0.01  -0.17  -0.10
   4   8    -0.02   0.08   0.16     0.30   0.33  -0.11    -0.12  -0.09  -0.26
   5   1    -0.20   0.19  -0.49    -0.03  -0.26   0.13    -0.19  -0.18  -0.09
   6   1     0.31  -0.48  -0.01     0.01  -0.22   0.10     0.32   0.16  -0.16
   7   1    -0.09   0.25   0.46     0.36  -0.01   0.05     0.01  -0.08  -0.16
   8   1     0.01  -0.03  -0.07    -0.03  -0.15   0.06     0.08  -0.21  -0.25
                      4                      5                      6
                        a                      a                      a 
 Frequencies --   552.0301               809.4090               889.4325
 Red. masses --    11.3552                 4.1574                10.2868
 Frc consts  --     0.0000                 0.0000                 0.0000
 IR Inten    --    57.9226               112.6477                40.2653
 Raman Activ --     0.0000                 0.0000                 0.0000
 Depolar     --     0.0000                 0.0000                 0.0000
 Atom AN      X      Y      Z        X      Y      Z        X      Y      Z
   1   6     0.35   0.22  -0.04     0.00   0.00   0.02    -0.50  -0.33   0.07
   2   6     0.28   0.05  -0.20    -0.04   0.12   0.27     0.34   0.20  -0.03
   3   7    -0.11  -0.36   0.20     0.05  -0.15  -0.34     0.29  -0.11   0.09
   4   8    -0.55   0.10  -0.05     0.02  -0.06  -0.14    -0.06   0.34  -0.16
   5   1     0.18   0.15  -0.01     0.02   0.02   0.00    -0.14  -0.08   0.01
   6   1     0.03   0.06   0.02    -0.02  -0.01   0.02    -0.15  -0.08   0.02
   7   1     0.05   0.08   0.03    -0.01   0.01   0.03    -0.24  -0.12   0.02
   8   1     0.12  -0.26   0.24    -0.11   0.35   0.78     0.21  -0.20   0.11
                      7                      8                      9
                        a                      a                      a 
 Frequencies --   996.1017              1004.9218              1234.3504
 Red. masses --     4.9232                 5.0717                 9.1414
 Frc consts  --     0.0000                 0.0000                 0.0000
 IR Inten    --     5.4612                 9.3826                44.6833
 Raman Activ --     0.0000                 0.0000                 0.0000
 Depolar     --     0.0000                 0.0000                 0.0000
 Atom AN      X      Y      Z        X      Y      Z        X      Y      Z
   1   6    -0.25   0.32  -0.25    -0.10   0.22   0.35     0.07  -0.01   0.02
   2   6     0.05   0.01   0.08     0.07  -0.17  -0.38    -0.14  -0.21   0.07
   3   7     0.24  -0.10   0.07     0.04  -0.01   0.02     0.23  -0.41   0.22
   4   8    -0.10  -0.12   0.03    -0.02   0.01   0.06    -0.06   0.45  -0.21
   5   1    -0.19  -0.25   0.14    -0.44  -0.32  -0.06     0.02   0.02  -0.02
   6   1    -0.22  -0.30   0.09     0.46   0.17  -0.14     0.01   0.02   0.00
   7   1     0.58   0.26  -0.01     0.07  -0.08  -0.18    -0.03  -0.02  -0.00
   8   1     0.02   0.02  -0.03    -0.02   0.08   0.18    -0.37   0.44  -0.26
                     10                     11                     12
                        a                      a                      a 
 Frequencies --  1337.3808              1379.9380              1471.4968
 Red. masses --     3.8146                 8.4726                 1.6069
 Frc consts  --     0.0000                 0.0000                 0.0000
 IR Inten    --    31.8929               253.8036                 0.5053
 Raman Activ --     0.0000                 0.0000                 0.0000
 Depolar     --     0.0000                 0.0000                 0.0000
 Atom AN      X      Y      Z        X      Y      Z        X      Y      Z
   1   6    -0.32  -0.20   0.04    -0.23  -0.15   0.02     0.05  -0.11  -0.19
   2   6    -0.21  -0.15   0.04     0.53   0.36  -0.09    -0.01  -0.02  -0.03
   3   7     0.13   0.02   0.01    -0.26  -0.08   0.00     0.01  -0.00  -0.00
   4   8     0.01   0.13  -0.06    -0.03  -0.24   0.11    -0.00   0.01   0.00
   5   1     0.31   0.37   0.02     0.13   0.12   0.06    -0.08  -0.35   0.26
   6   1     0.35   0.24  -0.21     0.16   0.06  -0.09     0.02   0.44  -0.13
   7   1     0.48   0.12   0.04     0.14   0.03   0.03    -0.13   0.35   0.63
   8   1     0.15  -0.14   0.09    -0.33   0.34  -0.20     0.00  -0.00   0.01
                     13                     14                     15
                        a                      a                      a 
 Frequencies --  1476.9757              1631.5602              3001.6180
 Red. masses --     1.7935                12.5213                 1.9130
 Frc consts  --     0.0000                 0.0000                 0.0000
 IR Inten    --    10.3364               899.2111                81.0626
 Raman Activ --     0.0000                 0.0000                 0.0000
 Depolar     --     0.0000                 0.0000                 0.0000
 Atom AN      X      Y      Z        X      Y      Z        X      Y      Z
   1   6    -0.10   0.18  -0.13    -0.04   0.03  -0.02    -0.01   0.12   0.26
   2   6    -0.02  -0.08   0.03     0.48  -0.58   0.33     0.00   0.00   0.01
   3   7    -0.02   0.02  -0.01    -0.36   0.24  -0.16     0.00   0.00  -0.00
   4   8    -0.00   0.05  -0.02    -0.03   0.27  -0.13    -0.00  -0.00  -0.00
   5   1     0.31  -0.12   0.57    -0.06  -0.04  -0.03     0.34  -0.27  -0.21
   6   1     0.45  -0.45  -0.08    -0.06   0.00   0.02    -0.31  -0.16  -0.75
   7   1    -0.29  -0.05  -0.01     0.10   0.03   0.00    -0.00   0.02   0.04
   8   1     0.01  -0.02   0.01    -0.04  -0.04   0.01    -0.00  -0.00  -0.00
                     16                     17                     18
                        a                      a                      a 
 Frequencies --  3012.4875              3054.1486              3246.6701
 Red. masses --     1.4567                 1.7512                 1.8452
 Frc consts  --     0.0000                 0.0000                 0.0000
 IR Inten    --    67.8833                58.6000               232.3883
 Raman Activ --     0.0000                 0.0000                 0.0000
 Depolar     --     0.0000                 0.0000                 0.0000
 Atom AN      X      Y      Z        X      Y      Z        X      Y      Z
   1   6     0.18  -0.09   0.00     0.06  -0.22   0.13    -0.00   0.00  -0.00
   2   6     0.01  -0.00   0.00     0.00  -0.01   0.00    -0.00   0.02  -0.01
   3   7     0.00   0.00  -0.00     0.00   0.00  -0.00     0.21   0.13  -0.03
   4   8    -0.00   0.00  -0.00    -0.00   0.00  -0.00    -0.00  -0.01   0.00
   5   1    -0.54   0.48   0.43    -0.02  -0.00   0.04     0.01  -0.00  -0.00
   6   1    -0.15  -0.12  -0.46    -0.00  -0.04  -0.01     0.00   0.00   0.01
   7   1     0.04  -0.06   0.03    -0.20   0.81  -0.49     0.00  -0.01   0.01
   8   1    -0.01  -0.01   0.00    -0.01  -0.01   0.00    -0.79  -0.54   0.13
