8
 energy: -13.601370875107 gnorm: 0.092788633723 xtb: 6.7.1 (edcfbbe)
C           -3.80166300000000       -0.65269300000000       -0.68469700000000
C           -2.55093700000000        0.17942700000000       -0.79870300000000
N           -1.45692000000000       -0.53868400000000       -0.58268500000000
O           -2.58191300000000        1.36696500000000       -1.09986600000000
H           -4.62644200000000       -0.01312700000000       -0.35452100000000
H           -4.04738600000000       -1.08034200000000       -1.66117700000000
H           -3.69061600000000       -1.45624800000000        0.05086900000000
H           -0.66537300000000        0.10417600000000       -0.69411800000000
8
 energy: -13.604798692104 gnorm: 0.035510330103 xtb: 6.7.1 (edcfbbe)
C           -3.81792057446328       -0.65263622012739       -0.67973761292729
C           -2.53898087070321        0.16434749964585       -0.80796629276522
N           -1.44737383352494       -0.53154074700592       -0.57414134998767
O           -2.59329879615725        1.38350744010769       -1.10340985691458
H           -4.64221863248457       -0.01105642742061       -0.35947994279676
H           -4.06564995247839       -1.08043145651376       -1.65007246050713
H           -3.67448698441477       -1.45886775769130        0.03692577050126
H           -0.64132035577360        0.09615166900544       -0.68701625460261
8
 energy: -13.605397028273 gnorm: 0.006108405514 xtb: 6.7.1 (edcfbbe)
C           -3.82449984787112       -0.65549396213700       -0.67602964995820
C           -2.53350161925625        0.15982846662554       -0.78356088492443
N           -1.44669484979689       -0.52369325571858       -0.56789687630293
O           -2.60930822434832        1.38725371849670       -1.10752613314828
H           -4.64235109253463       -0.00597016325743       -0.36971652422525
H           -4.05726480595136       -1.07746812101391       -1.65158484608770
H           -3.67708589223151       -1.46072364101778        0.03423478131339
H           -0.63054366800991        0.08574095802247       -0.70281786666659
8
 energy: -13.605454737998 gnorm: 0.006040197733 xtb: 6.7.1 (edcfbbe)
C           -3.82481967658159       -0.65735455533221       -0.67657553413861
C           -2.53054282520615        0.15161423973554       -0.80840106176598
N           -1.44595374614169       -0.52185609468620       -0.57248419608588
O           -2.61647870578119        1.38515070204539       -1.11590158297313
H           -4.62907337916834       -0.00088637765319       -0.35469481187391
H           -4.07366549216758       -1.07171586409374       -1.65132982965501
H           -3.67136938842531       -1.46531147790915        0.02974723221268
H           -0.62934678652816        0.08983342789356       -0.67525821572016
8
 energy: -13.605500245639 gnorm: 0.001998490864 xtb: 6.7.1 (edcfbbe)
C           -3.82360542402979       -0.65716879668670       -0.67649471495626
C           -2.53125479357427        0.15483275523850       -0.80054349239721
N           -1.44580242316308       -0.52039453989020       -0.56648707814753
O           -2.61665406587798        1.38362512058042       -1.11896546419894
H           -4.62990255140596       -0.00249616286835       -0.35492385019466
H           -4.07031847468639       -1.06949558300632       -1.65285836279620
H           -3.67494255236700       -1.46751921939075        0.02873992186731
H           -0.62876971489553        0.08809042602340       -0.68336495917651
8
 energy: -13.605521067371 gnorm: 0.001060568311 xtb: 6.7.1 (edcfbbe)
C           -3.82257254313749       -0.65726253455018       -0.67629539292981
C           -2.53078422127224        0.15587539618247       -0.79951955528294
N           -1.44558848436512       -0.51747735797633       -0.55823292606111
O           -2.61936925601817        1.37956343414122       -1.13144255355229
H           -4.62656227375683       -0.00358297691674       -0.34605609319784
H           -4.07473358812351       -1.06126232676023       -1.65498256600592
H           -3.67456141036677       -1.47387236072020        0.02266715379514
H           -0.62707822295987        0.08749272660000       -0.68103606676522
8
 energy: -13.605557365032 gnorm: 0.002386955248 xtb: 6.7.1 (edcfbbe)
C           -3.82142842718127       -0.65756041584854       -0.67589452990260
C           -2.52939733683077        0.15565367909713       -0.80452236005765
N           -1.44621648099667       -0.51171660043094       -0.53978224527844
O           -2.62267314644100        1.37052648194156       -1.16335547292656
H           -4.61808048926662       -0.00674470339446       -0.32096133999499
H           -4.09109772318250       -1.04065628885854       -1.65897537291715
H           -3.66718154184498       -1.48842137364317        0.00581418124772
H           -0.62517485425618        0.08839322113696       -0.66722086017033
8
 energy: -13.605605129686 gnorm: 0.004477642360 xtb: 6.7.1 (edcfbbe)
C           -3.82028249872746       -0.65790857128582       -0.67530613981680
C           -2.52773856314289        0.15442135799056       -0.81392673193720
N           -1.44851669520485       -0.50223797062894       -0.50692515873751
O           -2.62309789080097        1.35446661465423       -1.22028452412557
H           -4.60434194643250       -0.01470394648092       -0.27594529977606
H           -4.12138683842813       -1.00395214891189       -1.66492201269582
H           -3.65143571037656       -1.51268401980416       -0.02544022904829
H           -0.62444985688664        0.09207268446695       -0.64214790386276
8
 energy: -13.605640834800 gnorm: 0.005787763238 xtb: 6.7.1 (edcfbbe)
C           -3.81973077521169       -0.65806619750538       -0.67509682923097
C           -2.52664140134826        0.15216276176174       -0.82293639329956
N           -1.45127204871315       -0.49395442344502       -0.48019133551202
O           -2.61980426590272        1.33952688840689       -1.26761352572290
H           -4.59229047168027       -0.02328618489954       -0.23808836994792
H           -4.14813101172208       -0.97287994558140       -1.66779045315090
H           -3.63770474384664       -1.53139569883338       -0.05320926444597
H           -0.62567528157519        0.09736680009609       -0.61997182868977
8
 energy: -13.605712114088 gnorm: 0.003289326066 xtb: 6.7.1 (edcfbbe)
C           -3.82016949967486       -0.65809434580214       -0.67544344425135
C           -2.52640393790363        0.14839069025675       -0.83121124676509
N           -1.45476747892769       -0.48750123229492       -0.46285541346942
O           -2.61124473306314        1.32644650662372       -1.30004325293654
H           -4.58250291925551       -0.03243393256663       -0.21143578468902
H           -4.16920371287443       -0.95058081648977       -1.66601645882188
H           -3.62720437402038       -1.54172673421411       -0.07546904214330
H           -0.62975334428036        0.10497386448711       -0.60242335692342
8
 energy: -13.605752430839 gnorm: 0.002458092812 xtb: 6.7.1 (edcfbbe)
C           -3.82103410666273       -0.65923208805573       -0.67629856485888
C           -2.52684412387039        0.14353856633113       -0.83922054598067
N           -1.45826276589884       -0.47872766651586       -0.43874653510698
O           -2.60219832195207        1.31052349556485       -1.33956041787742
H           -4.56764706798664       -0.04099348999893       -0.17916653757036
H           -4.19421292707375       -0.92366539299640       -1.66551530759584
H           -3.61667134275451       -1.55644717003133       -0.10201003815461
H           -0.63437934380108        0.11447774570227       -0.58438005285525
8
 energy: -13.605760715654 gnorm: 0.002047441030 xtb: 6.7.1 (edcfbbe)
C           -3.82188416564845       -0.66007385574124       -0.67752204625676
C           -2.52735494987547        0.14002823070656       -0.84169729537703
N           -1.45913257999028       -0.47486784749988       -0.43241069849907
O           -2.59586892133732        1.30324329008351       -1.34986496504685
H           -4.55981237780465       -0.04424007613860       -0.17008148230987
H           -4.20323597102404       -0.91611948771201       -1.66304492526635
H           -3.61638090051240       -1.55980086341233       -0.11114113241200
H           -0.63758013380739        0.12130460971399       -0.57913545483209
8
 energy: -13.605767230550 gnorm: 0.003396267143 xtb: 6.7.1 (edcfbbe)
C           -3.82178461751161       -0.66062301925390       -0.67831855936595
C           -2.52677051777056        0.13670342939356       -0.84823097063442
N           -1.46074305669521       -0.46730798611254       -0.41253808686261
O           -2.59116556070323        1.28951168322552       -1.38466867568062
H           -4.54731141486446       -0.05087432653507       -0.14173867035150
H           -4.22467558293746       -0.89282794302386       -1.66361322403425
H           -3.60913255859753       -1.57366168105195       -0.13298223941496
H           -0.63966669091995        0.12855384335825       -0.56280757365571
8
 energy: -13.605772788095 gnorm: 0.001295624853 xtb: 6.7.1 (edcfbbe)
C           -3.82139395115751       -0.66016905830551       -0.67785139940166
C           -2.52657642168983        0.13856177220061       -0.84514098609243
N           -1.45976943913115       -0.47032818695425       -0.42087040641394
O           -2.59468088479081        1.29515318510331       -1.37018049759530
H           -4.55253577938522       -0.04794494759674       -0.15386979590603
H           -4.21493158296665       -0.90224825295400       -1.66346981365163
H           -3.61330948572862       -1.56840646513673       -0.12342276636954
H           -0.63805245515021        0.12485595364332       -0.57009233456948
8
 energy: -13.605776137882 gnorm: 0.000852943988 xtb: 6.7.1 (edcfbbe)
C           -3.82107424916464       -0.66026048943843       -0.67808557988354
C           -2.52603234486683        0.13778583581046       -0.84649095724975
N           -1.45998628226732       -0.46798955802017       -0.41617709281905
O           -2.59449110694151        1.29092200456875       -1.37842759836011
H           -4.54870018456191       -0.04970172527954       -0.14731995999665
H           -4.21960064865497       -0.89610591221728       -1.66312410009855
H           -3.61321125694617       -1.57185911461089       -0.12870398900396
H           -0.63815392659666        0.12668295918711       -0.56656872258840
