 Entering Gaussian System
 *********************************************
 Gaussian 98:
 frequency output generated by the xtb code
 *********************************************
                         Standard orientation:
 --------------------------------------------------------------------
  Center     Atomic     Atomic              Coordinates (Angstroms)
  Number     Number      Type              X           Y           Z
 --------------------------------------------------------------------
    1          8             0       -1.190649    4.411438   -1.367285
    2          6             0       -1.577791    3.446462   -0.594984
    3          6             0       -3.081516    2.991986   -0.752180
    4          1             0       -0.979192    2.458850   -0.717711
    5          1             0       -1.474394    3.664654    0.541025
    6          1             0       -3.257386    2.660133   -1.775368
    7          1             0       -3.321819    2.175473   -0.064788
    8          1             0       -3.740660    3.835645   -0.547987
 --------------------------------------------------------------------
     1 basis functions        1 primitive gaussians
     1 alpha electrons        1 beta electrons
 
 Harmonic frequencies (cm**-1), IR intensities (km*mol⁻¹),
 Raman scattering activities (A**4/amu), Raman depolarization ratios,
 reduced masses (AMU), force constants (mDyne/A) and normal coordinates:
                      1                      2                      3
                        a                      a                      a 
 Frequencies --   221.3937               426.4068               779.3686
 Red. masses --     2.6171                10.0327                 2.0273
 Frc consts  --     0.0000                 0.0000                 0.0000
 IR Inten    --     1.2392                 5.0455                 2.4258
 Raman Activ --     0.0000                 0.0000                 0.0000
 Depolar     --     0.0000                 0.0000                 0.0000
 Atom AN      X      Y      Z        X      Y      Z        X      Y      Z
   1   8    -0.07   0.17   0.18    -0.56  -0.17  -0.06     0.03  -0.07  -0.07
   2   6     0.07  -0.16  -0.17     0.20  -0.20   0.27    -0.06   0.15   0.15
   3   6    -0.00   0.01   0.01     0.32   0.27  -0.13    -0.05   0.11   0.12
   4   1    -0.01  -0.04  -0.19     0.11  -0.02   0.06    -0.28  -0.12  -0.29
   5   1     0.09  -0.17  -0.03     0.11  -0.02   0.06     0.39  -0.15   0.01
   6   1     0.05  -0.48   0.15     0.22   0.21  -0.10     0.51  -0.01  -0.04
   7   1    -0.15   0.36   0.38    -0.20   0.07  -0.15     0.05  -0.11  -0.12
   8   1     0.08   0.18  -0.46     0.23   0.20  -0.11    -0.41  -0.23  -0.20
                      4                      5                      6
                        a                      a                      a 
 Frequencies --   816.3106               996.5221              1137.1690
 Red. masses --     9.2760                 6.5576                 6.3603
 Frc consts  --     0.0000                 0.0000                 0.0000
 IR Inten    --    54.1050                47.2901                80.0657
 Raman Activ --     0.0000                 0.0000                 0.0000
 Depolar     --     0.0000                 0.0000                 0.0000
 Atom AN      X      Y      Z        X      Y      Z        X      Y      Z
   1   8     0.05   0.14  -0.11     0.22   0.17  -0.08    -0.05   0.11   0.12
   2   6     0.56   0.05   0.18    -0.42  -0.04  -0.12     0.16  -0.38  -0.40
   3   6    -0.55  -0.24   0.02     0.17  -0.26   0.32    -0.09   0.23   0.24
   4   1     0.14   0.07  -0.00    -0.03   0.05  -0.04     0.13  -0.02   0.35
   5   1     0.14   0.06  -0.01    -0.02   0.04  -0.06    -0.23   0.28  -0.08
   6   1    -0.05   0.05  -0.05     0.27   0.19  -0.04     0.34   0.03   0.00
   7   1    -0.43  -0.07  -0.10    -0.52  -0.08  -0.13     0.03  -0.08  -0.08
   8   1    -0.04   0.03  -0.06     0.29   0.16  -0.07    -0.30  -0.12  -0.10
                      7                      8                      9
                        a                      a                      a 
 Frequencies --  1235.7700              1294.0482              1340.9929
 Red. masses --    12.7073                 1.7909                 3.2114
 Frc consts  --     0.0000                 0.0000                 0.0000
 IR Inten    --   468.3928                 1.5678                18.9267
 Raman Activ --     0.0000                 0.0000                 0.0000
 Depolar     --     0.0000                 0.0000                 0.0000
 Atom AN      X      Y      Z        X      Y      Z        X      Y      Z
   1   8     0.14   0.47  -0.39     0.04  -0.11  -0.11    -0.03  -0.03   0.02
   2   6    -0.10  -0.54   0.47    -0.02   0.04   0.04     0.07   0.07  -0.04
   3   6     0.03   0.07  -0.06    -0.05   0.12   0.12     0.41   0.11   0.06
   4   1    -0.14  -0.04   0.05     0.46   0.41  -0.27    -0.08  -0.06   0.00
   5   1    -0.11  -0.10  -0.02    -0.44  -0.46   0.21    -0.09  -0.04   0.03
   6   1    -0.07  -0.07   0.03     0.13   0.01   0.01    -0.47  -0.10   0.11
   7   1     0.08   0.01   0.02     0.01  -0.02  -0.02    -0.50  -0.02  -0.18
   8   1    -0.08  -0.06   0.04    -0.12  -0.04  -0.04    -0.39  -0.29  -0.08
                     10                     11                     12
                        a                      a                      a 
 Frequencies --  1387.9299              1504.0018              1508.3228
 Red. masses --     2.8509                 1.6460                 1.7474
 Frc consts  --     0.0000                 0.0000                 0.0000
 IR Inten    --   187.2989                 5.2717               142.2858
 Raman Activ --     0.0000                 0.0000                 0.0000
 Depolar     --     0.0000                 0.0000                 0.0000
 Atom AN      X      Y      Z        X      Y      Z        X      Y      Z
   1   8     0.07  -0.03   0.05     0.00  -0.00  -0.00     0.01   0.10  -0.09
   2   6    -0.32  -0.18   0.05    -0.01   0.02   0.02    -0.08   0.12  -0.14
   3   6    -0.00   0.09  -0.09    -0.07   0.16   0.17    -0.03  -0.05   0.03
   4   1     0.53   0.33   0.00    -0.01  -0.00  -0.01     0.10  -0.14   0.65
   5   1     0.57   0.23  -0.10     0.02  -0.00   0.00     0.28  -0.58   0.19
   6   1    -0.14  -0.07   0.03    -0.18  -0.38   0.16    -0.05   0.09  -0.02
   7   1    -0.02   0.01  -0.02     0.20  -0.48  -0.51     0.03   0.00   0.01
   8   1    -0.13  -0.08   0.02     0.23   0.26  -0.29    -0.02   0.01  -0.10
                     13                     14                     15
                        a                      a                      a 
 Frequencies --  1521.7222              1981.7111              2237.1733
 Red. masses --     1.6676                 1.6360                 1.3626
 Frc consts  --     0.0000                 0.0000                 0.0000
 IR Inten    --    14.0723               737.0485               522.1380
 Raman Activ --     0.0000                 0.0000                 0.0000
 Depolar     --     0.0000                 0.0000                 0.0000
 Atom AN      X      Y      Z        X      Y      Z        X      Y      Z
   1   8     0.00  -0.01   0.01     0.00  -0.01  -0.01     0.03   0.09  -0.08
   2   6     0.01  -0.05   0.05     0.06  -0.16  -0.16    -0.09  -0.00  -0.03
   3   6     0.04  -0.16   0.17     0.01  -0.03  -0.03    -0.03  -0.01  -0.01
   4   1     0.01   0.04  -0.10    -0.42   0.54   0.04     0.33  -0.58  -0.20
   5   1    -0.02   0.10  -0.04     0.15   0.13   0.66    -0.00   0.24   0.65
   6   1    -0.31   0.55  -0.12    -0.03  -0.01  -0.01    -0.01  -0.00  -0.00
   7   1     0.28   0.00   0.11    -0.00   0.00   0.00     0.00   0.01  -0.01
   8   1    -0.11   0.06  -0.63     0.03  -0.00   0.00    -0.01  -0.00  -0.00
                     16                     17                     18
                        a                      a                      a 
 Frequencies --  2920.8850              2983.4118              2993.2330
 Red. masses --     1.7175                 1.9472                 1.4316
 Frc consts  --     0.0000                 0.0000                 0.0000
 IR Inten    --   177.0712               127.8128                72.5504
 Raman Activ --     0.0000                 0.0000                 0.0000
 Depolar     --     0.0000                 0.0000                 0.0000
 Atom AN      X      Y      Z        X      Y      Z        X      Y      Z
   1   8    -0.00   0.00  -0.00    -0.00   0.00   0.00    -0.00   0.00  -0.00
   2   6     0.00  -0.01   0.01     0.00  -0.01  -0.01     0.00  -0.00   0.01
   3   6    -0.04  -0.19   0.17     0.08  -0.19  -0.21     0.13  -0.09   0.12
   4   1    -0.01   0.01   0.00     0.00   0.01   0.00     0.00   0.00   0.00
   5   1    -0.00  -0.00  -0.02    -0.01   0.00   0.01     0.00   0.00  -0.00
   6   1    -0.01  -0.04  -0.00     0.11   0.19   0.66    -0.07  -0.22  -0.63
   7   1     0.18   0.72  -0.62     0.01  -0.03  -0.04     0.01  -0.04   0.04
   8   1    -0.02  -0.01   0.04    -0.39   0.52   0.10    -0.40   0.56   0.16
