      -----------------------------------------------------------      
     |                   =====================                   |     
     |                           x T B                           |     
     |                   =====================                   |     
     |                         S. Grimme                         |     
     |          Mulliken Center for Theoretical Chemistry        |     
     |                    University of Bonn                     |     
      -----------------------------------------------------------      

   * xtb version 6.7.1 (edcfbbe) compiled by 'albert@albert-system' on 2024-07-22

   xtb is free software: you can redistribute it and/or modify it under
   the terms of the GNU Lesser General Public License as published by
   the Free Software Foundation, either version 3 of the License, or
   (at your option) any later version.
   
   xtb is distributed in the hope that it will be useful,
   but WITHOUT ANY WARRANTY; without even the implied warranty of
   MERCHANTABILITY or FITNESS FOR A PARTICULAR PURPOSE.  See the
   GNU Lesser General Public License for more details.
   
   Cite this work as:
   * C. Bannwarth, E. Caldeweyher, S. Ehlert, A. Hansen, P. Pracht,
     J. Seibert, S. Spicher, S. Grimme, WIREs Comput. Mol. Sci., 2020, 11,
     e01493. DOI: 10.1002/wcms.1493
   
   for GFN2-xTB:
   * C. Bannwarth, S. Ehlert and S. Grimme., J. Chem. Theory Comput., 2019,
     15, 1652-1671. DOI: 10.1021/acs.jctc.8b01176
   for GFN1-xTB:
   * S. Grimme, C. Bannwarth, P. Shushkov, J. Chem. Theory Comput., 2017,
     13, 1989-2009. DOI: 10.1021/acs.jctc.7b00118
   for GFN0-xTB:
   * P. Pracht, E. Caldeweyher, S. Ehlert, S. Grimme, ChemRxiv, 2019, preprint.
     DOI: 10.26434/chemrxiv.8326202.v1
   for GFN-FF:
   * S. Spicher and S. Grimme, Angew. Chem. Int. Ed., 2020, 59, 15665-15673.
     DOI: 10.1002/anie.202004239
   
   for ALPB and GBSA implicit solvation:
   * S. Ehlert, M. Stahn, S. Spicher, S. Grimme, J. Chem. Theory Comput.,
     2021, 17, 4250-4261. DOI: 10.1021/acs.jctc.1c00471
   
   for ddCOSMO and CPCM-X implicit solvation:
   * M. Stahn, S. Ehlert, S. Grimme, J. Phys. Chem. A,
     2023, XX, XXXX-XXXX. DOI: 10.1021/acs.jpca.3c04382
   
   for DFT-D4:
   * E. Caldeweyher, C. Bannwarth and S. Grimme, J. Chem. Phys., 2017,
     147, 034112. DOI: 10.1063/1.4993215
   * E. Caldeweyher, S. Ehlert, A. Hansen, H. Neugebauer, S. Spicher,
     C. Bannwarth and S. Grimme, J. Chem. Phys., 2019, 150, 154122.
     DOI: 10.1063/1.5090222
   * E. Caldeweyher, J.-M. Mewes, S. Ehlert and S. Grimme, Phys. Chem. Chem. Phys.
     2020, 22, 8499-8512. DOI: 10.1039/D0CP00502A
   
   for sTDA-xTB:
   * S. Grimme and C. Bannwarth, J. Chem. Phys., 2016, 145, 054103.
     DOI: 10.1063/1.4959605
   
   in the mass-spec context:
   * V. Asgeirsson, C. Bauer and S. Grimme, Chem. Sci., 2017, 8, 4879.
     DOI: 10.1039/c7sc00601b
   * J. Koopman and S. Grimme, ACS Omega 2019, 4, 12, 15120-15133.
     DOI: 10.1021/acsomega.9b02011
   
   for metadynamics refer to:
   * S. Grimme, J. Chem. Theory Comput., 2019, 155, 2847-2862
     DOI: 10.1021/acs.jctc.9b00143
   
   for SPH calculations refer to:
   * S. Spicher and S. Grimme, J. Chem. Theory Comput., 2021, 17, 1701-1714
     DOI: 10.1021/acs.jctc.0c01306
   
   for ONIOM refer to:
   * C. Plett, A. Katbashev, S. Ehlert, S. Grimme, M. Bursch,
     Phys. Chem. Chem. Phys., 2023, 25, 17860-17868. DOI: 10.1039/D3CP02178E
   
   for DIPRO refer to:
   * J. Kohn, N. Gildemeister, S. Grimme, D. Fazzi, A. Hansen,
     J. Chem. Phys., 2023, just accepted.
   
   for PTB refer to:
   * S. Grimme, M. Mueller, A. Hansen, J. Chem. Phys., 2023, 158, 124111.
     DOI: 10.1063/5.0137838
   
   with help from (in alphabetical order)
   P. Atkinson, C. Bannwarth, F. Bohle, G. Brandenburg, E. Caldeweyher
   M. Checinski, S. Dohm, S. Ehlert, S. Ehrlich, I. Gerasimov, C. Hölzer
   A. Katbashev, J. Kohn, J. Koopman, C. Lavigne, S. Lehtola, F. März, M. Müller,
   F. Musil, H. Neugebauer, J. Pisarek, C. Plett, P. Pracht, F. Pultar,
   J. Seibert, P. Shushkov, S. Spicher, M. Stahn, M. Steiner, T. Strunk,
   J. Stückrath, T. Rose, and J. Unsleber
   
 * started run on 2025/10/17 at 22:47:43.496     
   ID    Z sym.   atoms
    1    8 O      1
    2    6 C      2, 3
    3    1 H      4-8

           -------------------------------------------------
          |                Calculation Setup                |
           -------------------------------------------------

          program call               : xtb xyz.xyz --charge -1 --ohess
          hostname                   : m003
          coordinate file            : xyz.xyz
          omp threads                :                     2


           -------------------------------------------------
          |                 G F N 2 - x T B                 |
           -------------------------------------------------

        Reference                      10.1021/acs.jctc.8b01176
      * Hamiltonian:
        H0-scaling (s, p, d)           1.850000    2.230000    2.230000
        zeta-weighting                 0.500000
      * Dispersion:
        s8                             2.700000
        a1                             0.520000
        a2                             5.000000
        s9                             5.000000
      * Repulsion:
        kExp                           1.500000    1.000000
        rExp                           1.000000
      * Coulomb:
        alpha                          2.000000
        third order                    shell-resolved
        anisotropic                    true
        a3                             3.000000
        a5                             4.000000
        cn-shift                       1.200000
        cn-exp                         4.000000
        max-rad                        5.000000


          ...................................................
          :                      SETUP                      :
          :.................................................:
          :  # basis functions                  17          :
          :  # atomic orbitals                  17          :
          :  # shells                           11          :
          :  # electrons                        20          :
          :  max. iterations                   250          :
          :  Hamiltonian                  GFN2-xTB          :
          :  restarted?                      false          :
          :  GBSA solvation                  false          :
          :  PC potential                    false          :
          :  electronic temp.          300.0000000     K    :
          :  accuracy                    1.0000000          :
          :  -> integral cutoff          0.2500000E+02      :
          :  -> integral neglect         0.1000000E-07      :
          :  -> SCF convergence          0.1000000E-05 Eh   :
          :  -> wf. convergence          0.1000000E-03 e    :
          :  Broyden damping             0.4000000          :
          :  net charge                         -1          :
          :  unpaired electrons                  0          :
          ...................................................

 iter      E             dE          RMSdq      gap      omega  full diag
   1    -11.0219690 -0.110220E+02  0.495E+00   13.43       0.0  T
   2    -11.1263081 -0.104339E+00  0.200E+00   10.85       1.0  T
   3    -11.1278495 -0.154142E-02  0.114E+00   10.51       1.0  T
   4    -11.1281971 -0.347631E-03  0.292E-01   10.23       1.0  T
   5    -11.1282604 -0.632927E-04  0.115E-01   10.33       1.0  T
   6    -11.1282776 -0.172277E-04  0.284E-02   10.36       1.2  T
   7    -11.1282783 -0.645887E-06  0.626E-03   10.36       5.7  T
   8    -11.1282783 -0.305212E-07  0.267E-03   10.36      13.3  T
   9    -11.1282783 -0.319277E-07  0.517E-04   10.36      68.4  T
  10    -11.1282783 -0.381679E-09  0.262E-04   10.36     135.1  T

   *** convergence criteria satisfied after 10 iterations ***

         #    Occupation            Energy/Eh            Energy/eV
      -------------------------------------------------------------
         1        2.0000           -0.4068658             -11.0714
       ...           ...                  ...                  ...
         4        2.0000           -0.3034253              -8.2566
         5        2.0000           -0.2966091              -8.0711
         6        2.0000           -0.2567535              -6.9866
         7        2.0000           -0.2426719              -6.6034
         8        2.0000           -0.2040858              -5.5535
         9        2.0000           -0.0791528              -2.1539
        10        2.0000           -0.0765618              -2.0834 (HOMO)
        11                          0.3042138               8.2781 (LUMO)
        12                          0.3200578               8.7092
        13                          0.3262765               8.8784
        14                          0.3460478               9.4164
        15                          0.3727263              10.1424
       ...                                ...                  ...
        17                          0.5157326              14.0338
      -------------------------------------------------------------
                  HL-Gap            0.3807756 Eh           10.3614 eV
             Fermi-level            0.1138260 Eh            3.0974 eV

 SCC (total)                   0 d,  0 h,  0 min,  0.025 sec
 SCC setup                      ...        0 min,  0.000 sec (  1.265%)
 Dispersion                     ...        0 min,  0.000 sec (  0.298%)
 classical contributions        ...        0 min,  0.000 sec (  0.225%)
 integral evaluation            ...        0 min,  0.000 sec (  1.285%)
 iterations                     ...        0 min,  0.023 sec ( 94.018%)
 molecular gradient             ...        0 min,  0.001 sec (  2.313%)
 printout                       ...        0 min,  0.000 sec (  0.433%)

         :::::::::::::::::::::::::::::::::::::::::::::::::::::
         ::                     SUMMARY                     ::
         :::::::::::::::::::::::::::::::::::::::::::::::::::::
         :: total energy             -11.036358821862 Eh    ::
         :: gradient norm              0.056322632675 Eh/a0 ::
         :: HOMO-LUMO gap             10.361432044402 eV    ::
         ::.................................................::
         :: SCC energy               -11.128278052420 Eh    ::
         :: -> isotropic ES            0.207031955440 Eh    ::
         :: -> anisotropic ES          0.008907180456 Eh    ::
         :: -> anisotropic XC         -0.001075742187 Eh    ::
         :: -> dispersion             -0.003487557171 Eh    ::
         :: repulsion energy           0.091919230559 Eh    ::
         :: add. restraining           0.000000000000 Eh    ::
         :: total charge              -1.000000000000 e     ::
         :::::::::::::::::::::::::::::::::::::::::::::::::::::

      ----------------------------------------------------------- 
     |                   =====================                   |
     |                        A N C O P T                        |
     |                   =====================                   |
     |               Approximate Normal Coordinate               |
     |                Rational Function Optimizer                |
      ----------------------------------------------------------- 
      ----------------------------------------------------------- 
     |                   =====================                   |
     |                        A N C O P T                        |
     |                   =====================                   |
     |               Approximate Normal Coordinate               |
     |                Rational Function Optimizer                |
      ----------------------------------------------------------- 

          ...................................................
          :                      SETUP                      :
          :.................................................:
          :   optimization level            normal          :
          :   max. optcycles                   200          :
          :   ANC micro-cycles                  20          :
          :   degrees of freedom                18          :
          :.................................................:
          :   RF solver                   davidson          :
          :   write xtbopt.log                true          :
          :   linear?                        false          :
          :   energy convergence         0.5000000E-05 Eh   :
          :   grad. convergence          0.1000000E-02 Eh/α :
          :   maxmium RF displ.          1.0000000          :
          :   Hlow (freq-cutoff)         0.1000000E-01      :
          :   Hmax (freq-cutoff)         5.0000000          :
          :   S6 in model hess.         20.0000000          :
          ...................................................

generating ANC from exact Hessian ...
Using Lindh-Hessian (1995)
 Shifting diagonal of input Hessian by   0.000000000000000E+000
 Lowest  eigenvalues of input Hessian
    0.000000    0.000000    0.000000    0.000000    0.000000    0.000000
    0.013557    0.031573    0.034716    0.048438    0.065930    0.069168
    0.103713    0.114211    0.128460    0.134559    0.169582    0.343263
 Highest eigenvalues
    0.614390    0.915499    1.054807    1.058632    1.092591    1.530353
 

........................................................................
.............................. CYCLE    1 ..............................
........................................................................

 iter      E             dE          RMSdq      gap      omega  full diag
   1    -11.1282783 -0.111283E+02  0.136E-05   10.36       0.0  T
   2    -11.1282783 -0.166978E-12  0.731E-06   10.36    4839.3  T
   3    -11.1282783 -0.532907E-14  0.244E-06   10.36   14460.3  T
     SCC iter.                  ...        0 min,  0.000 sec
     gradient                   ...        0 min,  0.000 sec
 * total energy  :   -11.0363588 Eh     change       -0.4171863E-09 Eh
   gradient norm :     0.0563273 Eh/α   predicted     0.0000000E+00 (-100.00%)
   displ. norm   :     0.0843437 α      lambda       -0.2954483E-02
   maximum displ.:     0.0479342 α      in ANC's #7, #12, #18, ...

........................................................................
.............................. CYCLE    2 ..............................
........................................................................

 iter      E             dE          RMSdq      gap      omega  full diag
   1    -11.1350669 -0.111351E+02  0.229E-01   10.54       0.0  T
   2    -11.1352198 -0.152843E-03  0.116E-01   10.61       1.0  T
   3    -11.1352312 -0.113989E-04  0.665E-02   10.62       1.0  T
   4    -11.1352322 -0.104003E-05  0.132E-02   10.64       2.7  T
   5    -11.1352325 -0.218747E-06  0.240E-03   10.63      14.7  T
   6    -11.1352325 -0.218608E-08  0.137E-03   10.63      25.8  T
   7    -11.1352325 -0.646752E-09  0.135E-04   10.63     262.8  T
   8    -11.1352325 -0.837908E-11  0.235E-05   10.63    1507.3  T
     SCC iter.                  ...        0 min,  0.001 sec
     gradient                   ...        0 min,  0.000 sec
 * total energy  :   -11.0383751 Eh     change       -0.2016235E-02 Eh
   gradient norm :     0.0322209 Eh/α   predicted    -0.1487750E-02 ( -26.21%)
   displ. norm   :     0.0543816 α      lambda       -0.1413515E-02
   maximum displ.:     0.0420471 α      in ANC's #18, #3, #13, ...

........................................................................
.............................. CYCLE    3 ..............................
........................................................................

 iter      E             dE          RMSdq      gap      omega  full diag
   1    -11.1393873 -0.111394E+02  0.227E-01   10.56       0.0  T
   2    -11.1396161 -0.228840E-03  0.860E-02   10.65       1.0  T
   3    -11.1396329 -0.167468E-04  0.506E-02   10.67       1.0  T
   4    -11.1396342 -0.134786E-05  0.233E-02   10.69       1.5  T
   5    -11.1396343 -0.770728E-07  0.269E-03   10.68      13.2  T
   6    -11.1396343 -0.415116E-08  0.527E-04   10.68      67.1  T
   7    -11.1396343 -0.901696E-10  0.581E-05   10.68     608.8  T
     SCC iter.                  ...        0 min,  0.001 sec
     gradient                   ...        0 min,  0.000 sec
 * total energy  :   -11.0391768 Eh     change       -0.8017377E-03 Eh
   gradient norm :     0.0091554 Eh/α   predicted    -0.7088485E-03 ( -11.59%)
   displ. norm   :     0.0339975 α      lambda       -0.2313886E-03
   maximum displ.:     0.0196665 α      in ANC's #3, #12, #6, ...

........................................................................
.............................. CYCLE    4 ..............................
........................................................................

 iter      E             dE          RMSdq      gap      omega  full diag
   1    -11.1384473 -0.111384E+02  0.911E-02   10.54       0.0  T
   2    -11.1384641 -0.167504E-04  0.419E-02   10.57       1.0  T
   3    -11.1384654 -0.132471E-05  0.200E-02   10.58       1.8  T
   4    -11.1384655 -0.144620E-06  0.753E-03   10.59       4.7  T
   5    -11.1384656 -0.368430E-07  0.122E-03   10.58      29.1  T
   6    -11.1384656 -0.107655E-08  0.532E-04   10.58      66.4  T
   7    -11.1384656 -0.134108E-09  0.103E-04   10.58     343.4  T
     SCC iter.                  ...        0 min,  0.001 sec
     gradient                   ...        0 min,  0.000 sec
 * total energy  :   -11.0393276 Eh     change       -0.1508302E-03 Eh
   gradient norm :     0.0036774 Eh/α   predicted    -0.1158291E-03 ( -23.21%)
   displ. norm   :     0.0176794 α      lambda       -0.4686446E-04
   maximum displ.:     0.0112756 α      in ANC's #12, #4, #3, ...

........................................................................
.............................. CYCLE    5 ..............................
........................................................................

 iter      E             dE          RMSdq      gap      omega  full diag
   1    -11.1372149 -0.111372E+02  0.395E-02   10.49       0.0  T
   2    -11.1372167 -0.179920E-05  0.207E-02   10.50       1.7  T
   3    -11.1372169 -0.168869E-06  0.687E-03   10.51       5.1  T
   4    -11.1372169 -0.938902E-08  0.215E-03   10.51      16.4  T
   5    -11.1372169 -0.307085E-08  0.487E-04   10.51      72.5  T
   6    -11.1372169 -0.183592E-09  0.264E-04   10.51     134.0  T
     SCC iter.                  ...        0 min,  0.001 sec
     gradient                   ...        0 min,  0.000 sec
 * total energy  :   -11.0393506 Eh     change       -0.2301936E-04 Eh
   gradient norm :     0.0006919 Eh/α   predicted    -0.2344086E-04 (   1.83%)
   displ. norm   :     0.0055516 α      lambda       -0.1564108E-05
   maximum displ.:     0.0031785 α      in ANC's #4, #9, #7, ...

........................................................................
.............................. CYCLE    6 ..............................
........................................................................

 iter      E             dE          RMSdq      gap      omega  full diag
   1    -11.1371359 -0.111371E+02  0.929E-03   10.52       0.0  T
   2    -11.1371359 -0.627564E-07  0.521E-03   10.52       6.8  T
   3    -11.1371359 -0.332278E-08  0.153E-03   10.52      23.1  T
   4    -11.1371359 -0.506734E-09  0.300E-04   10.52     118.0  T
   5    -11.1371359 -0.168930E-09  0.717E-05   10.52     493.0  T
     SCC iter.                  ...        0 min,  0.001 sec
     gradient                   ...        0 min,  0.000 sec
 * total energy  :   -11.0393511 Eh     change       -0.4805359E-06 Eh
   gradient norm :     0.0005774 Eh/α   predicted    -0.7813205E-06 (  62.59%)
   displ. norm   :     0.0026589 α      lambda       -0.7014727E-06
   maximum displ.:     0.0016536 α      in ANC's #4, #3, #7, ...

   *** GEOMETRY OPTIMIZATION CONVERGED AFTER 6 ITERATIONS ***

------------------------------------------------------------------------
 total energy gain   :        -0.0029923 Eh       -1.8777 kcal/mol
 total RMSD          :         0.0453823 a0        0.0240 Å
 total power (kW/mol):        -1.3093819 (step) -678.9120 (real)
------------------------------------------------------------------------

 ANCopt (total)                0 d,  0 h,  0 min,  0.012 sec
 optimizer setup                ...        0 min,  0.000 sec (  4.313%)
 model hessian                  ...        0 min,  0.001 sec ( 11.207%)
 ANC generation                 ...        0 min,  0.000 sec (  0.872%)
 coordinate transformation      ...        0 min,  0.000 sec (  0.520%)
 single point calculation       ...        0 min,  0.009 sec ( 75.588%)
 optimization log               ...        0 min,  0.000 sec (  2.252%)
 hessian update                 ...        0 min,  0.000 sec (  0.479%)
 rational function              ...        0 min,  0.000 sec (  2.304%)

================
 final structure:
================
8
 xtb: 6.7.1 (edcfbbe)
O           -1.19066683454326        4.41143377648794       -1.36728150621077
C           -1.57780676739992        3.44645435910382       -0.59498301529461
C           -3.08152829846146        2.99197051214768       -0.75218518288755
H           -0.97920256623393        2.45884588521925       -0.71770984235298
H           -1.47441523952874        3.66464525518241        0.54102603265874
H           -3.25739388144470        2.66011884383239       -1.77537460401893
H           -3.32182998137717        2.17545526426012       -0.06479582554072
H           -3.74067743101082        3.83562610376638       -0.54799305635318
 
 Bond Distances (Angstroems)
 ---------------------------
O1-C2=1.2952         C2-O1=1.2952         C2-C3=1.5787         C2-H4=1.1614         C2-H5=1.1614         C3-C2=1.5787         
C3-H6=1.0899         C3-H7=1.0941         C3-H8=1.0899         H4-C2=1.1614         H5-C2=1.1614         H6-C3=1.0899         
H7-C3=1.0941         H8-C3=1.0899         
 C  H  Rav=1.1193 sigma=0.0344  Rmin=1.0899  Rmax=1.1614     5
 C  C  Rav=1.5787 sigma=0.0000  Rmin=1.5787  Rmax=1.5787     1
 O  C  Rav=1.2952 sigma=0.0000  Rmin=1.2952  Rmax=1.2952     1
 
 selected bond angles (degree)
 --------------------
C3-C2-O1=116.09                H4-C2-O1=114.61                H4-C2-C3=103.63                H5-C2-O1=114.62                
H5-C2-C3=103.67                H5-C2-H4=102.55                H6-C3-C2=109.56                H7-C3-C2=111.19                
H7-C3-H6=109.10                H8-C3-C2=109.54                H8-C3-H6=108.30                H8-C3-H7=109.10                
 
 selected dihedral angles (degree)
 ---------------------------------
H6-C3-C2-O1= 59.31            H6-C3-C2-H4=292.73            H6-C3-C2-H5=185.93            H7-C3-C2-O1=179.98            
H7-C3-C2-H4= 53.40            H7-C3-C2-H5=306.60            H8-C3-C2-O1=300.64            H8-C3-C2-H4=174.06            
H8-C3-C2-H5= 67.27            
           -------------------------------------------------
          |                Final Singlepoint                |
           -------------------------------------------------

          ...................................................
          :                      SETUP                      :
          :.................................................:
          :  # basis functions                  17          :
          :  # atomic orbitals                  17          :
          :  # shells                           11          :
          :  # electrons                        20          :
          :  max. iterations                   250          :
          :  Hamiltonian                  GFN2-xTB          :
          :  restarted?                      false          :
          :  GBSA solvation                  false          :
          :  PC potential                    false          :
          :  electronic temp.          300.0000000     K    :
          :  accuracy                    1.0000000          :
          :  -> integral cutoff          0.2500000E+02      :
          :  -> integral neglect         0.1000000E-07      :
          :  -> SCF convergence          0.1000000E-05 Eh   :
          :  -> wf. convergence          0.1000000E-03 e    :
          :  Broyden damping             0.4000000          :
          :  net charge                         -1          :
          :  unpaired electrons                  0          :
          ...................................................

 iter      E             dE          RMSdq      gap      omega  full diag
   1    -11.1371359 -0.111371E+02  0.328E-05   10.52       0.0  T
   2    -11.1371359 -0.119016E-12  0.198E-05   10.52    1786.5  T
   3    -11.1371359 -0.603961E-13  0.199E-06   10.52   17793.5  T

   *** convergence criteria satisfied after 3 iterations ***

         #    Occupation            Energy/Eh            Energy/eV
      -------------------------------------------------------------
         1        2.0000           -0.4046074             -11.0099
       ...           ...                  ...                  ...
         4        2.0000           -0.3017842              -8.2120
         5        2.0000           -0.2956535              -8.0451
         6        2.0000           -0.2561502              -6.9702
         7        2.0000           -0.2457999              -6.6886
         8        2.0000           -0.2136514              -5.8138
         9        2.0000           -0.0908851              -2.4731
        10        2.0000           -0.0876573              -2.3853 (HOMO)
        11                          0.2990448               8.1374 (LUMO)
        12                          0.3060687               8.3286
        13                          0.3196020               8.6968
        14                          0.3537564               9.6262
        15                          0.3904975              10.6260
       ...                                ...                  ...
        17                          0.6248701              17.0036
      -------------------------------------------------------------
                  HL-Gap            0.3867020 Eh           10.5227 eV
             Fermi-level            0.1056938 Eh            2.8761 eV

 SCC (total)                   0 d,  0 h,  0 min,  0.001 sec
 SCC setup                      ...        0 min,  0.000 sec (  5.696%)
 Dispersion                     ...        0 min,  0.000 sec (  2.129%)
 classical contributions        ...        0 min,  0.000 sec (  0.750%)
 integral evaluation            ...        0 min,  0.000 sec ( 17.940%)
 iterations                     ...        0 min,  0.000 sec ( 27.975%)
 molecular gradient             ...        0 min,  0.000 sec ( 37.421%)
 printout                       ...        0 min,  0.000 sec (  6.021%)

         :::::::::::::::::::::::::::::::::::::::::::::::::::::
         ::                     SUMMARY                     ::
         :::::::::::::::::::::::::::::::::::::::::::::::::::::
         :: total energy             -11.039351125178 Eh    ::
         :: gradient norm              0.000577689757 Eh/a0 ::
         :: HOMO-LUMO gap             10.522697558552 eV    ::
         ::.................................................::
         :: SCC energy               -11.137135639143 Eh    ::
         :: -> isotropic ES            0.197654387182 Eh    ::
         :: -> anisotropic ES          0.007466181367 Eh    ::
         :: -> anisotropic XC         -0.001695262773 Eh    ::
         :: -> dispersion             -0.003602789326 Eh    ::
         :: repulsion energy           0.097784513965 Eh    ::
         :: add. restraining           0.000000000000 Eh    ::
         :: total charge              -1.000000000000 e     ::
         :::::::::::::::::::::::::::::::::::::::::::::::::::::

           ------------------------------------------------- 
          |                Numerical Hessian                |
           ------------------------------------------------- 
step length          :   0.00500
SCC accuracy         :   0.30000
Hessian scale factor :   1.00000
frozen atoms in %    :   0.00000    0
RMS gradient         :   0.00058
estimated CPU  time      0.00 min
estimated wall time      0.00 min

writing file <hessian>.

 projected vibrational frequencies (cm⁻¹)
eigval :       -0.00    -0.00     0.00     0.00     0.00     0.00
eigval :      221.39   426.41   779.37   816.31   996.52  1137.17
eigval :     1235.77  1294.05  1340.99  1387.93  1504.00  1508.32
eigval :     1521.72  1981.71  2237.17  2920.88  2983.41  2993.23
           -------------------------------------------------
          |                Property Printout                |
           -------------------------------------------------

    * Orbital Energies and Occupations

         #    Occupation            Energy/Eh            Energy/eV
      -------------------------------------------------------------
         1        2.0000           -0.4046074             -11.0099
         2        2.0000           -0.3813759             -10.3778
         3        2.0000           -0.3375664              -9.1856
         4        2.0000           -0.3017842              -8.2120
         5        2.0000           -0.2956535              -8.0451
         6        2.0000           -0.2561502              -6.9702
         7        2.0000           -0.2457999              -6.6886
         8        2.0000           -0.2136514              -5.8138
         9        2.0000           -0.0908851              -2.4731
        10        2.0000           -0.0876572              -2.3853 (HOMO)
        11                          0.2990448               8.1374 (LUMO)
        12                          0.3060687               8.3286
        13                          0.3196020               8.6968
        14                          0.3537564               9.6262
        15                          0.3904975              10.6260
        16                          0.4205052              11.4425
        17                          0.6248701              17.0036
      -------------------------------------------------------------
                  HL-Gap            0.3867020 Eh           10.5227 eV
             Fermi-level            0.1056938 Eh            2.8761 eV

     #   Z          covCN         q      C6AA      α(0)
     1   8 O        0.855    -0.765    30.552     7.411
     2   6 C        3.639     0.204    17.713     6.053
     3   6 C        3.742    -0.093    22.349     6.745
     4   1 H        0.908    -0.141     7.271     4.218
     5   1 H        0.908    -0.141     7.270     4.218
     6   1 H        0.925    -0.011     3.265     2.826
     7   1 H        0.924    -0.040     3.850     3.069
     8   1 H        0.925    -0.012     3.265     2.826

 Mol. C6AA /au·bohr⁶  :        642.975788
 Mol. C8AA /au·bohr⁸  :      12259.901146
 Mol. α(0) /au        :         37.365157


Wiberg/Mayer (AO) data.
largest (>0.10) Wiberg bond orders for each atom

 ---------------------------------------------------------------------------
     #   Z sym  total        # sym  WBO       # sym  WBO       # sym  WBO
 ---------------------------------------------------------------------------
     1   8 O    1.444 --     2 C    1.236
     2   6 C    3.974 --     1 O    1.236     3 C    0.926     5 H    0.906
                             4 H    0.906
     3   6 C    3.975 --     8 H    0.992     6 H    0.992     7 H    0.990
                             2 C    0.926
     4   1 H    0.980 --     2 C    0.906
     5   1 H    0.980 --     2 C    0.906
     6   1 H    1.000 --     3 C    0.992
     7   1 H    0.998 --     3 C    0.990
     8   1 H    1.000 --     3 C    0.992
 ---------------------------------------------------------------------------

Topologies differ in total number of bonds
Writing topology from bond orders to xtbtopo.mol

molecular dipole:
                 x           y           z       tot (Debye)
 q only:        2.712      -7.519       1.983
   full:        2.495      -7.857       2.221      21.700
molecular quadrupole (traceless):
                xx          xy          yy          xz          yz          zz
 q only:       22.881      29.056     -51.433      -7.258      23.892      28.552
  q+dip:       27.219      27.830     -56.766      -7.503      27.968      29.547
   full:       27.246      28.022     -56.717      -7.571      27.737      29.471

           -------------------------------------------------
          |                Geometry Summary                 |
           -------------------------------------------------

      molecular mass/u    :       45.0605805
   center of mass at/Å    :       -1.9504021       3.6134269      -0.9019273
  moments of inertia/u·Å² :        0.1276388E+02   0.5291928E+02   0.5922684E+02
rotational constants/cm⁻¹ :        0.1320730E+01   0.3185537E+00   0.2846283E+00

 * 3 selected distances

     #   Z          #   Z                                           value/Å
     3   6 C        6   1 H                                       1.0899408
     3   6 C        7   1 H                                       1.0940505 (max)
     3   6 C        8   1 H                                       1.0899206 (min)

 * 1 distinct bonds (by element types)

   Z      Z             #   av. dist./Å        max./Å        min./Å
   1 H    6 C           3     1.0913040     1.0940505     1.0899206

           -------------------------------------------------
          |               Frequency Printout                |
           -------------------------------------------------
 projected vibrational frequencies (cm⁻¹)
eigval :       -0.00    -0.00     0.00     0.00     0.00     0.00
eigval :      221.39   426.41   779.37   816.31   996.52  1137.17
eigval :     1235.77  1294.05  1340.99  1387.93  1504.00  1508.32
eigval :     1521.72  1981.71  2237.17  2920.88  2983.41  2993.23
 reduced masses (amu)
   1: 11.62   2:  7.96   3: 13.13   4: 10.43   5:  7.96   6: 13.49   7:  2.62   8: 10.03
   9:  2.03  10:  9.28  11:  6.56  12:  6.36  13: 12.71  14:  1.79  15:  3.21  16:  2.85
  17:  1.65  18:  1.75  19:  1.67  20:  1.64  21:  1.36  22:  1.72  23:  1.95  24:  1.43
 IR intensities (km·mol⁻¹)
   1: 19.13   2:  5.14   3: 29.18   4:  7.33   5:  1.84   6: 29.83   7:  1.24   8:  5.05
   9:  2.43  10: 54.11  11: 47.29  12: 80.07  13:468.39  14:  1.57  15: 18.93  16:187.30
  17:  5.27  18:142.29  19: 14.07  20:737.05  21:522.14  22:177.07  23:127.81  24: 72.55
 Raman intensities (Ä⁴*amu⁻¹)
   1:  0.00   2:  0.00   3:  0.00   4:  0.00   5:  0.00   6:  0.00   7:  0.00   8:  0.00
   9:  0.00  10:  0.00  11:  0.00  12:  0.00  13:  0.00  14:  0.00  15:  0.00  16:  0.00
  17:  0.00  18:  0.00  19:  0.00  20:  0.00  21:  0.00  22:  0.00  23:  0.00  24:  0.00
 output can be read by thermo (or use thermo option).
 writing <g98.out> molden fake output.
 recommended (thermochemical) frequency scaling factor: 1.0
           -------------------------------------------------
          |             Thermodynamic Functions             |
           -------------------------------------------------

Refinement of some symmetry elements was terminated before convergence was reached.
Some symmetry elements may remain unidentified.
Molecule has the following symmetry elements: (sigma) 
It seems to be the Cs point group
cs  symmetry found (for desy threshold:  0.10E+00) used in thermo

          ...................................................
          :                      SETUP                      :
          :.................................................:
          :  # frequencies                          18      :
          :  # imaginary freq.                       0      :
          :  linear?                             false      :
          :  only rotor calc.                    false      :
          :  symmetry                               cs      :
          :  rotational number                       1      :
          :  scaling factor                  1.0000000      :
          :  rotor cutoff                   50.0000000 cm⁻¹ :
          :  imag. cutoff                  -20.0000000 cm⁻¹ :
          :.................................................:

    mode    ω/cm⁻¹     T·S(HO)/kcal·mol⁻¹    T·S(FR)/kcal·mol⁻¹   T·S(vib)
   ------------------------------------------------------------------------
       1    221.39    -0.58070 ( 99.74%)    -0.61522 (  0.26%)    -0.58078
   ------------------------------------------------------------------------

   temp. (K)  partition function   enthalpy   heat capacity  entropy
                                   cal/mol     cal/K/mol   cal/K/mol   J/K/mol
 298.15  VIB   1.86                  682.723      5.967      3.528
         ROT  0.153E+05              888.752      2.981     22.127
         INT  0.285E+05             1571.475      8.948     25.654
         TR   0.293E+27             1481.254      4.968     37.325
         TOT                        3052.7291    13.9159    62.9790   263.5043

       T/K    H(0)-H(T)+PV         H(T)/Eh          T*S/Eh         G(T)/Eh
   ------------------------------------------------------------------------
    298.15    0.486483E-02    0.670278E-01    0.299234E-01    0.371044E-01
   ------------------------------------------------------------------------

         :::::::::::::::::::::::::::::::::::::::::::::::::::::
         ::                  THERMODYNAMIC                  ::
         :::::::::::::::::::::::::::::::::::::::::::::::::::::
         :: total free energy         -11.002246729754 Eh   ::
         ::.................................................::
         :: total energy              -11.039351125178 Eh   ::
         :: zero point energy           0.062162931160 Eh   ::
         :: G(RRHO) w/o ZPVE           -0.025058535737 Eh   ::
         :: G(RRHO) contrib.            0.037104395424 Eh   ::
         :::::::::::::::::::::::::::::::::::::::::::::::::::::

optimized geometry written to: xtbopt.xyz


           -------------------------------------------------
          | TOTAL ENERGY              -11.039351125178 Eh   |
          | TOTAL ENTHALPY            -10.972323360493 Eh   |
          | TOTAL FREE ENERGY         -11.002246729754 Eh   |
          | GRADIENT NORM               0.000577682522 Eh/α |
          | HOMO-LUMO GAP              10.522697255294 eV   |
           -------------------------------------------------

------------------------------------------------------------------------
 * finished run on 2025/10/17 at 22:47:44.101     
------------------------------------------------------------------------
 total:
 * wall-time:     0 d,  0 h,  0 min,  0.604 sec
 *  cpu-time:     0 d,  0 h,  0 min,  0.549 sec
 * ratio c/w:     0.909 speedup
 SCF:
 * wall-time:     0 d,  0 h,  0 min,  0.025 sec
 *  cpu-time:     0 d,  0 h,  0 min,  0.031 sec
 * ratio c/w:     1.263 speedup
 ANC optimizer:
 * wall-time:     0 d,  0 h,  0 min,  0.133 sec
 *  cpu-time:     0 d,  0 h,  0 min,  0.147 sec
 * ratio c/w:     1.104 speedup
 analytical hessian:
 * wall-time:     0 d,  0 h,  0 min,  0.109 sec
 *  cpu-time:     0 d,  0 h,  0 min,  0.150 sec
 * ratio c/w:     1.372 speedup

