8
 energy: -11.039351125178 gnorm: 0.000577689757 xtb: 6.7.1 (edcfbbe)
O           -1.19064850905863        4.41143762440630       -1.36728504939346
C           -1.57779079868481        3.44646158199786       -0.59498352290308
C           -3.08151525812619        2.99198533414950       -0.75217964829252
H           -0.97919219702910        2.45884975964759       -0.71771071578139
H           -1.47439416294212        3.66465391940541        0.54102478332215
H           -3.25738615028940        2.66013280088557       -1.77536787633898
H           -3.32181881684822        2.17547254419923       -0.06478802705186
H           -3.74065926053043        3.83564473343090       -0.54798669335196
