8
 energy: -11.036358822279 gnorm: 0.056327260949 xtb: 6.7.1 (edcfbbe)
O           -1.20284800000000        4.43637500000000       -1.39673000000000
C           -1.58743500000000        3.42241900000000       -0.57615700000000
C           -3.06407100000000        2.99146100000000       -0.74462800000000
H           -0.98234100000000        2.46831300000000       -0.70200600000000
H           -1.46888600000000        3.65075200000000        0.53107000000000
H           -3.24469400000000        2.66279400000000       -1.78226900000000
H           -3.34160200000000        2.16567100000000       -0.06396800000000
H           -3.73164400000000        3.84676500000000       -0.54460900000000
8
 energy: -11.038375057333 gnorm: 0.032220952332 xtb: 6.7.1 (edcfbbe)
O           -1.20085081161264        4.41392875986734       -1.37427878528873
C           -1.58713258241900        3.42359064203260       -0.57686479217728
C           -3.07155074650365        2.99120991180135       -0.74747678284159
H           -0.97494215238647        2.47120382467173       -0.71940799101086
H           -1.46739773539456        3.66987145996253        0.53088854519894
H           -3.24931621464621        2.66495460923310       -1.77580671066932
H           -3.34001623505624        2.17050919452479       -0.06786857408806
H           -3.73231452198122        3.83928159790656       -0.54848190912309
8
 energy: -11.039176795077 gnorm: 0.009155446373 xtb: 6.7.1 (edcfbbe)
O           -1.19484444389496        4.40623437621064       -1.36422041094054
C           -1.58333603869486        3.43808121346126       -0.58950119059349
C           -3.07830460451667        2.99039326338612       -0.74926351347773
H           -0.97991222358254        2.46824824369174       -0.72169935941456
H           -1.47384124884601        3.66943454135391        0.53147910344019
H           -3.24990035392132        2.66379501649307       -1.77148182794197
H           -3.33164259583931        2.17325773549168       -0.06682734715747
H           -3.73173949070434        3.83510560991157       -0.54778245391445
8
 energy: -11.039327625268 gnorm: 0.003677451644 xtb: 6.7.1 (edcfbbe)
O           -1.19264848924862        4.40911125260557       -1.36600276144299
C           -1.57910691991143        3.44410797255996       -0.59335778252398
C           -3.08063181774037        2.99184430856422       -0.75166497796104
H           -0.98040508482470        2.46219879181115       -0.71848534357762
H           -1.47473604937410        3.66549861862275        0.53728677295388
H           -3.25464406357760        2.66143100927978       -1.77368170751577
H           -3.32401217355141        2.17521352565102       -0.06559275584332
H           -3.73733640177178        3.83514452090555       -0.54779844408917
8
 energy: -11.039350644631 gnorm: 0.000691858692 xtb: 6.7.1 (edcfbbe)
O           -1.18911890624479        4.41194832794359       -1.36713389961100
C           -1.57783857207831        3.44663605835345       -0.59559484246841
C           -3.08209554110213        2.99182895027470       -0.75210836730954
H           -0.97891488215018        2.45987332506972       -0.71680511508506
H           -1.47425257354218        3.66388932989910        0.53980322255076
H           -3.25774498041116        2.65995637194756       -1.77503862038995
H           -3.32248482319186        2.17514105805930       -0.06466852567235
H           -3.74107072127939        3.83527657845258       -0.54775085201444
8
 energy: -11.039351125167 gnorm: 0.000577419356 xtb: 6.7.1 (edcfbbe)
O           -1.19066683454326        4.41143377648794       -1.36728150621077
C           -1.57780676739992        3.44645435910382       -0.59498301529461
C           -3.08152829846146        2.99197051214768       -0.75218518288755
H           -0.97920256623393        2.45884588521925       -0.71770984235298
H           -1.47441523952874        3.66464525518241        0.54102603265874
H           -3.25739388144470        2.66011884383239       -1.77537460401893
H           -3.32182998137717        2.17545526426012       -0.06479582554072
H           -3.74067743101082        3.83562610376638       -0.54799305635318
