 Entering Gaussian System
 *********************************************
 Gaussian 98:
 frequency output generated by the xtb code
 *********************************************
                         Standard orientation:
 --------------------------------------------------------------------
  Center     Atomic     Atomic              Coordinates (Angstroms)
  Number     Number      Type              X           Y           Z
 --------------------------------------------------------------------
    1          6             0       -4.881193   -2.738136    2.254705
    2          6             0       -6.047447   -3.206186    3.071403
    3          1             0       -4.756743   -1.651099    2.303495
    4          1             0       -3.941839   -3.196880    2.580379
    5          1             0       -5.065256   -3.018799    1.218322
    6          6             0       -7.125062   -3.832064    2.541229
    7          1             0       -6.007350   -3.019696    4.139105
    8          1             0       -8.209215   -3.649165    4.408746
    9          6             0       -8.232464   -4.275603    3.513768
   10          1             0       -9.195982   -4.138857    3.013380
   11          6             0       -8.060760   -5.743011    3.894213
   12          8             0       -7.301314   -4.111723    1.288524
   13          1             0       -7.113194   -5.880716    4.411142
   14          1             0       -8.873067   -6.079602    4.536437
   15          1             0       -8.047253   -6.347314    2.988945
 --------------------------------------------------------------------
     1 basis functions        1 primitive gaussians
     1 alpha electrons        1 beta electrons
 
 Harmonic frequencies (cm**-1), IR intensities (km*mol⁻¹),
 Raman scattering activities (A**4/amu), Raman depolarization ratios,
 reduced masses (AMU), force constants (mDyne/A) and normal coordinates:
                      1                      2                      3
                        a                      a                      a 
 Frequencies --    32.7377               142.1551               162.6714
 Red. masses --     9.2718                 3.1307                 7.2878
 Frc consts  --     0.0000                 0.0000                 0.0000
 IR Inten    --     5.6637                 1.7768                 1.1931
 Raman Activ --     0.0000                 0.0000                 0.0000
 Depolar     --     0.0000                 0.0000                 0.0000
 Atom AN      X      Y      Z        X      Y      Z        X      Y      Z
   1   6    -0.04   0.18  -0.17    -0.07   0.24  -0.05     0.07  -0.30   0.06
   2   6     0.05   0.22  -0.02     0.08  -0.08  -0.02    -0.24   0.36  -0.01
   3   1    -0.05   0.06  -0.12     0.20   0.02   0.42     0.32  -0.13   0.16
   4   1     0.01   0.11  -0.02    -0.05  -0.25  -0.38    -0.09  -0.39  -0.08
   5   1    -0.01  -0.03  -0.03    -0.25   0.52  -0.09    -0.09   0.09  -0.01
   6   6     0.11  -0.02   0.14     0.10  -0.12  -0.02    -0.14   0.15   0.04
   7   1     0.02   0.13  -0.02     0.05  -0.08   0.00    -0.09   0.16  -0.01
   8   1     0.17  -0.07   0.13     0.01   0.02  -0.03    -0.02  -0.01   0.04
   9   6     0.15   0.08   0.23     0.04  -0.03  -0.04    -0.07   0.08   0.06
  10   1     0.03   0.18   0.14     0.03   0.01  -0.03    -0.04  -0.01   0.05
  11   6    -0.35  -0.12  -0.34    -0.20  -0.00   0.15     0.30   0.04  -0.24
  12   8     0.14  -0.36   0.23     0.11  -0.07  -0.04    -0.02  -0.21   0.12
  13   1    -0.10  -0.19  -0.15    -0.08  -0.02   0.07     0.10   0.05  -0.09
  14   1    -0.11  -0.02  -0.11    -0.09   0.06   0.04     0.12  -0.10  -0.09
  15   1    -0.20   0.07  -0.17    -0.07  -0.04   0.07     0.13   0.08  -0.11
                      4                      5                      6
                        a                      a                      a 
 Frequencies --   203.0320               243.0652               281.8935
 Red. masses --     3.1336                 8.9939                 9.6587
 Frc consts  --     0.0000                 0.0000                 0.0000
 IR Inten    --     2.4265                18.8692                14.9538
 Raman Activ --     0.0000                 0.0000                 0.0000
 Depolar     --     0.0000                 0.0000                 0.0000
 Atom AN      X      Y      Z        X      Y      Z        X      Y      Z
   1   6     0.11   0.08   0.24     0.25   0.20   0.28     0.20  -0.06   0.01
   2   6    -0.09  -0.00  -0.09     0.03  -0.12  -0.22    -0.17   0.49  -0.18
   3   1     0.03   0.02   0.13     0.02   0.06   0.19     0.19  -0.03  -0.05
   4   1     0.00   0.01   0.13     0.05   0.08   0.17    -0.03  -0.12   0.12
   5   1     0.12   0.07   0.04     0.22   0.14   0.03     0.12  -0.06   0.01
   6   6    -0.04  -0.04  -0.15    -0.04  -0.05  -0.16     0.06  -0.01  -0.08
   7   1    -0.07  -0.02  -0.02    -0.04  -0.06  -0.05    -0.03   0.09  -0.04
   8   1     0.11   0.01   0.00     0.11   0.02   0.04     0.08  -0.07   0.00
   9   6     0.07   0.03   0.02     0.13   0.12   0.12     0.19  -0.27   0.02
  10   1    -0.02   0.04   0.08     0.01   0.07   0.09     0.05  -0.05   0.02
  11   6     0.03   0.03   0.03     0.05   0.07  -0.04    -0.23  -0.29   0.26
  12   8    -0.11  -0.12  -0.15    -0.46  -0.28  -0.08    -0.05   0.25  -0.13
  13   1     0.23  -0.07  -0.42    -0.10   0.03   0.20    -0.13  -0.14   0.18
  14   1     0.27   0.16   0.41    -0.12  -0.06  -0.23    -0.16   0.03   0.02
  15   1    -0.48  -0.06   0.05     0.25   0.09  -0.05    -0.05  -0.14   0.11
                      7                      8                      9
                        a                      a                      a 
 Frequencies --   410.2042               553.0603               615.2796
 Red. masses --     9.3349                10.3069                 8.0190
 Frc consts  --     0.0000                 0.0000                 0.0000
 IR Inten    --     8.5072                15.1795                13.7026
 Raman Activ --     0.0000                 0.0000                 0.0000
 Depolar     --     0.0000                 0.0000                 0.0000
 Atom AN      X      Y      Z        X      Y      Z        X      Y      Z
   1   6    -0.32  -0.15   0.11     0.21   0.07  -0.11     0.09   0.06  -0.08
   2   6    -0.25  -0.12   0.08     0.11  -0.24  -0.24    -0.17   0.19  -0.24
   3   1    -0.09  -0.04   0.01     0.00   0.02   0.09     0.03   0.01   0.01
   4   1    -0.09  -0.04   0.01     0.05   0.04   0.02    -0.02   0.00   0.09
   5   1    -0.12  -0.06   0.04     0.17   0.11  -0.07     0.15   0.04  -0.05
   6   6    -0.09  -0.07  -0.21    -0.38   0.34  -0.01     0.06  -0.50   0.14
   7   1    -0.10  -0.05   0.02    -0.04   0.21  -0.11     0.26  -0.44   0.01
   8   1     0.35   0.01   0.08    -0.03  -0.06   0.10    -0.03   0.05   0.03
   9   6     0.26   0.13   0.24    -0.32  -0.08   0.25    -0.32   0.05   0.20
  10   1    -0.03   0.16   0.30    -0.15  -0.04   0.18    -0.08   0.05   0.05
  11   6     0.05   0.07   0.05    -0.04  -0.17   0.10    -0.01   0.09  -0.02
  12   8     0.32   0.10  -0.35     0.36   0.04  -0.05     0.18   0.15  -0.01
  13   1    -0.03  -0.03   0.09     0.00  -0.01   0.01     0.05   0.11  -0.07
  14   1    -0.05   0.00  -0.08     0.01  -0.12   0.02     0.08  -0.17   0.00
  15   1     0.08   0.07  -0.02     0.02  -0.02   0.01     0.05   0.11  -0.07
                     10                     11                     12
                        a                      a                      a 
 Frequencies --   682.5532               816.2696               836.8948
 Red. masses --     5.5256                 2.9384                 8.6282
 Frc consts  --     0.0000                 0.0000                 0.0000
 IR Inten    --     2.3108                 1.6627                12.9580
 Raman Activ --     0.0000                 0.0000                 0.0000
 Depolar     --     0.0000                 0.0000                 0.0000
 Atom AN      X      Y      Z        X      Y      Z        X      Y      Z
   1   6    -0.02   0.02   0.01     0.10   0.05  -0.01    -0.18  -0.10  -0.06
   2   6    -0.01   0.11   0.05     0.06   0.06   0.13    -0.15  -0.13  -0.31
   3   1     0.03   0.01  -0.06     0.04   0.01  -0.06    -0.10  -0.03   0.20
   4   1    -0.02  -0.01   0.01     0.05   0.02  -0.07    -0.13  -0.02   0.21
   5   1    -0.03  -0.04   0.02    -0.06  -0.02   0.02     0.26   0.11  -0.10
   6   6    -0.18   0.50  -0.10     0.04  -0.02  -0.00    -0.22  -0.04   0.24
   7   1     0.33  -0.68   0.12     0.02   0.01   0.04     0.09   0.01  -0.10
   8   1    -0.00  -0.03   0.01     0.36  -0.26   0.10     0.13  -0.07  -0.03
   9   6     0.08  -0.02  -0.06    -0.20  -0.09  -0.24     0.27  -0.04  -0.25
  10   1    -0.00  -0.05   0.02    -0.15   0.37   0.23     0.07   0.05  -0.04
  11   6     0.00  -0.07   0.02    -0.07  -0.04  -0.10     0.07   0.12  -0.13
  12   8     0.06  -0.24   0.02    -0.08  -0.03   0.03     0.13   0.11   0.37
  13   1    -0.03  -0.07   0.04     0.01   0.43   0.04    -0.03   0.03   0.06
  14   1    -0.04   0.07   0.00     0.09   0.02   0.12    -0.06   0.28  -0.01
  15   1    -0.03  -0.06   0.04     0.16  -0.33   0.20    -0.01  -0.15   0.09
                     13                     14                     15
                        a                      a                      a 
 Frequencies --   994.4964              1043.6619              1046.6524
 Red. masses --     5.7822                 4.2917                 4.7468
 Frc consts  --     0.0000                 0.0000                 0.0000
 IR Inten    --    41.1424                 2.6484                18.1075
 Raman Activ --     0.0000                 0.0000                 0.0000
 Depolar     --     0.0000                 0.0000                 0.0000
 Atom AN      X      Y      Z        X      Y      Z        X      Y      Z
   1   6     0.35   0.13  -0.02     0.11  -0.38   0.01     0.09   0.06  -0.07
   2   6    -0.14  -0.03   0.10    -0.08   0.26   0.03    -0.06  -0.04   0.11
   3   1     0.08   0.04  -0.17    -0.53  -0.04   0.31     0.07   0.01  -0.04
   4   1     0.18   0.06  -0.23     0.30   0.32  -0.22     0.01  -0.01  -0.00
   5   1    -0.15  -0.05   0.05     0.01   0.20  -0.07     0.05   0.01  -0.02
   6   6    -0.25  -0.21   0.10     0.07   0.01  -0.01    -0.15  -0.01   0.04
   7   1    -0.13  -0.06   0.05     0.10   0.02   0.01     0.04   0.03   0.03
   8   1     0.07  -0.04  -0.01     0.02   0.04  -0.01     0.41   0.34  -0.35
   9   6    -0.04  -0.16  -0.04    -0.08   0.15  -0.05     0.01   0.04  -0.39
  10   1    -0.15  -0.23   0.20    -0.07  -0.01   0.06    -0.12   0.03   0.14
  11   6     0.19   0.25  -0.12     0.07  -0.14   0.02    -0.03  -0.13   0.24
  12   8     0.03   0.03   0.01    -0.03  -0.01  -0.03    -0.02   0.02   0.19
  13   1    -0.06  -0.21   0.09    -0.01  -0.11   0.04     0.05  -0.15  -0.08
  14   1    -0.15   0.40  -0.10    -0.03   0.03  -0.01     0.03  -0.31  -0.04
  15   1    -0.11   0.00   0.01    -0.02  -0.06   0.02    -0.00   0.26  -0.14
                     16                     17                     18
                        a                      a                      a 
 Frequencies --  1061.7404              1083.0864              1117.9256
 Red. masses --     6.1270                 8.3016                 9.0978
 Frc consts  --     0.0000                 0.0000                 0.0000
 IR Inten    --    35.9327                 3.5763                34.6878
 Raman Activ --     0.0000                 0.0000                 0.0000
 Depolar     --     0.0000                 0.0000                 0.0000
 Atom AN      X      Y      Z        X      Y      Z        X      Y      Z
   1   6     0.14   0.02   0.24     0.08  -0.11   0.01     0.27   0.07  -0.32
   2   6    -0.10  -0.06  -0.39    -0.05   0.05  -0.01    -0.32  -0.09   0.43
   3   1    -0.04   0.02  -0.15    -0.15  -0.01   0.07     0.04   0.01   0.02
   4   1     0.17   0.06  -0.26     0.11   0.10  -0.10     0.05   0.05  -0.01
   5   1    -0.34  -0.11   0.15    -0.03   0.05  -0.01     0.22   0.10  -0.13
   6   6    -0.17  -0.02   0.03    -0.06   0.11  -0.03    -0.28  -0.08   0.12
   7   1    -0.32  -0.17  -0.06    -0.02  -0.01   0.00    -0.05  -0.01   0.11
   8   1    -0.05   0.06  -0.01     0.05  -0.10  -0.02    -0.12   0.02   0.03
   9   6     0.16   0.19  -0.01     0.22  -0.56   0.06     0.25   0.16   0.07
  10   1     0.16   0.17  -0.20     0.09  -0.08  -0.04     0.21   0.14  -0.25
  11   6    -0.06  -0.19   0.02    -0.26   0.43   0.03    -0.07  -0.11  -0.03
  12   8     0.10   0.08   0.22     0.01  -0.01   0.02     0.00  -0.03  -0.20
  13   1     0.03   0.09  -0.03     0.04   0.29  -0.14     0.02   0.13  -0.02
  14   1     0.06  -0.14   0.06     0.08  -0.20   0.02     0.05  -0.06   0.06
  15   1     0.06  -0.07   0.02     0.05   0.28  -0.11     0.06  -0.09   0.03
                     19                     20                     21
                        a                      a                      a 
 Frequencies --  1197.7002              1242.3686              1300.5016
 Red. masses --     6.7641                 3.5793                 4.8157
 Frc consts  --     0.0000                 0.0000                 0.0000
 IR Inten    --   116.6079                 8.7877                 2.0847
 Raman Activ --     0.0000                 0.0000                 0.0000
 Depolar     --     0.0000                 0.0000                 0.0000
 Atom AN      X      Y      Z        X      Y      Z        X      Y      Z
   1   6     0.04  -0.01  -0.25    -0.01  -0.00  -0.00     0.01   0.02   0.02
   2   6    -0.17  -0.07   0.08    -0.00  -0.00   0.02    -0.01  -0.01  -0.01
   3   1    -0.00  -0.01   0.06     0.01  -0.00  -0.01     0.02   0.00  -0.02
   4   1    -0.03   0.01   0.06     0.00   0.00  -0.00     0.00  -0.01  -0.01
   5   1     0.19   0.07  -0.11     0.02   0.01  -0.01    -0.01  -0.01   0.01
   6   6     0.32   0.09  -0.34     0.04  -0.01  -0.11    -0.05  -0.10   0.08
   7   1    -0.58  -0.27   0.07     0.01   0.01   0.00     0.07   0.03  -0.01
   8   1    -0.05  -0.10   0.07     0.02   0.44  -0.25    -0.20  -0.41   0.28
   9   6    -0.07   0.00  -0.02     0.14   0.07   0.22     0.27   0.34  -0.31
  10   1    -0.08  -0.02   0.11    -0.11  -0.49   0.19    -0.19  -0.41   0.28
  11   6     0.02   0.03   0.04    -0.20  -0.09  -0.29    -0.17   0.02   0.11
  12   8     0.03   0.07   0.36     0.00   0.02   0.10     0.00   0.01  -0.02
  13   1    -0.01  -0.06   0.01    -0.04   0.32   0.01     0.03   0.02  -0.08
  14   1    -0.00  -0.02  -0.01     0.07   0.03   0.11     0.06  -0.24   0.03
  15   1    -0.02   0.02  -0.00     0.11  -0.28   0.11     0.07   0.05  -0.01
                     22                     23                     24
                        a                      a                      a 
 Frequencies --  1351.1288              1387.9859              1401.9893
 Red. masses --     6.1751                 3.0987                 5.2336
 Frc consts  --     0.0000                 0.0000                 0.0000
 IR Inten    --   239.6722                 3.6523                72.1017
 Raman Activ --     0.0000                 0.0000                 0.0000
 Depolar     --     0.0000                 0.0000                 0.0000
 Atom AN      X      Y      Z        X      Y      Z        X      Y      Z
   1   6    -0.10  -0.02   0.20    -0.11  -0.04   0.07    -0.32  -0.14   0.15
   2   6    -0.25  -0.12   0.06     0.03   0.02  -0.00     0.24   0.11  -0.03
   3   1     0.21   0.00  -0.26     0.12  -0.01  -0.10     0.27  -0.03  -0.20
   4   1     0.17   0.10  -0.29     0.07   0.07  -0.12     0.16   0.18  -0.24
   5   1     0.23   0.11  -0.05     0.16   0.08  -0.05     0.40   0.18  -0.12
   6   6     0.02  -0.05  -0.45     0.01  -0.01   0.01    -0.06   0.02   0.31
   7   1     0.41   0.20  -0.05    -0.03  -0.02   0.00    -0.31  -0.15   0.04
   8   1    -0.05  -0.07   0.06    -0.09  -0.01   0.01     0.06   0.04  -0.04
   9   6    -0.02   0.00   0.05     0.03   0.02  -0.04    -0.00  -0.01  -0.02
  10   1     0.05   0.05  -0.08    -0.04   0.01   0.08    -0.00  -0.02   0.01
  11   6     0.02   0.07  -0.00     0.03  -0.39   0.11    -0.02   0.12  -0.04
  12   8     0.04   0.06   0.29     0.00   0.00  -0.01    -0.02  -0.04  -0.20
  13   1    -0.02  -0.09   0.02     0.11   0.47  -0.05    -0.03  -0.14   0.00
  14   1     0.02  -0.07  -0.01    -0.20   0.43  -0.00     0.06  -0.13   0.01
  15   1    -0.02  -0.06   0.04    -0.03   0.41  -0.28     0.03  -0.12   0.09
                     25                     26                     27
                        a                      a                      a 
 Frequencies --  1481.0482              1490.7133              1501.4562
 Red. masses --     1.9521                 1.5450                 1.6344
 Frc consts  --     0.0000                 0.0000                 0.0000
 IR Inten    --     5.7576                 0.3642                 3.5024
 Raman Activ --     0.0000                 0.0000                 0.0000
 Depolar     --     0.0000                 0.0000                 0.0000
 Atom AN      X      Y      Z        X      Y      Z        X      Y      Z
   1   6     0.00  -0.00   0.01    -0.01  -0.00  -0.01     0.07  -0.22  -0.01
   2   6     0.01   0.00  -0.01     0.00   0.00   0.00     0.02  -0.02   0.01
   3   1    -0.00   0.00  -0.01     0.01  -0.00   0.02     0.16  -0.00  -0.34
   4   1    -0.00   0.00   0.00     0.00   0.01   0.00    -0.02   0.28   0.47
   5   1    -0.01   0.01   0.00    -0.00  -0.01   0.00    -0.40   0.58  -0.09
   6   6    -0.02  -0.02   0.01    -0.00  -0.00  -0.01    -0.02  -0.02  -0.02
   7   1     0.03   0.02  -0.01    -0.01  -0.01   0.00     0.00   0.01  -0.00
   8   1    -0.61   0.23  -0.15     0.05   0.01   0.00     0.01  -0.01   0.01
   9   6     0.21  -0.18  -0.09    -0.00   0.03   0.05    -0.00   0.01   0.00
  10   1    -0.17   0.46   0.46     0.02  -0.07  -0.04     0.00  -0.01  -0.01
  11   6     0.01   0.05   0.00     0.09   0.05   0.19    -0.00  -0.00   0.00
  12   8     0.00  -0.00  -0.00     0.00   0.00   0.00     0.00   0.00   0.01
  13   1     0.02  -0.06  -0.06     0.26   0.21  -0.40     0.00  -0.00  -0.00
  14   1    -0.02  -0.04  -0.05    -0.40  -0.13  -0.57    -0.00   0.00   0.00
  15   1     0.02  -0.08   0.05    -0.23  -0.28   0.20     0.01   0.00  -0.00
                     28                     29                     30
                        a                      a                      a 
 Frequencies --  1506.0445              1509.6999              1668.7426
 Red. masses --     1.7841                 1.6153                11.4504
 Frc consts  --     0.0000                 0.0000                 0.0000
 IR Inten    --    38.3135                 0.5796               434.7413
 Raman Activ --     0.0000                 0.0000                 0.0000
 Depolar     --     0.0000                 0.0000                 0.0000
 Atom AN      X      Y      Z        X      Y      Z        X      Y      Z
   1   6     0.14   0.03   0.17    -0.00  -0.00   0.00     0.06   0.03   0.00
   2   6    -0.03  -0.02  -0.00     0.01   0.00  -0.00    -0.52  -0.29  -0.15
   3   1    -0.51   0.07  -0.47     0.00   0.00  -0.01     0.13  -0.02  -0.03
   4   1    -0.21  -0.51  -0.12     0.00   0.00   0.00     0.07   0.10  -0.05
   5   1     0.17   0.30  -0.10     0.00   0.01  -0.00    -0.04  -0.02   0.02
   6   6     0.07   0.05   0.08    -0.01  -0.00   0.03     0.50   0.31   0.41
   7   1    -0.02  -0.01  -0.00    -0.01  -0.01   0.00     0.09   0.03  -0.08
   8   1     0.02   0.01  -0.01    -0.04  -0.01   0.00     0.04   0.04  -0.03
   9   6    -0.01  -0.00  -0.00     0.05   0.01  -0.03    -0.05  -0.02  -0.02
  10   1    -0.01  -0.01   0.01    -0.01  -0.00   0.04    -0.04  -0.03   0.06
  11   6     0.00   0.00   0.00     0.20  -0.01  -0.09    -0.00  -0.00   0.00
  12   8    -0.01  -0.01  -0.04     0.00  -0.00  -0.01    -0.04  -0.05  -0.18
  13   1     0.01   0.00  -0.01    -0.21   0.30   0.48     0.00   0.00  -0.00
  14   1    -0.01  -0.00  -0.01     0.08  -0.31  -0.08    -0.00  -0.00  -0.00
  15   1    -0.00  -0.01   0.01    -0.68   0.03  -0.04    -0.00  -0.01   0.00
                     31                     32                     33
                        a                      a                      a 
 Frequencies --  2877.7415              2915.6694              2930.7785
 Red. masses --     1.9166                 1.4791                 1.9744
 Frc consts  --     0.0000                 0.0000                 0.0000
 IR Inten    --   184.1362               264.2883               149.8355
 Raman Activ --     0.0000                 0.0000                 0.0000
 Depolar     --     0.0000                 0.0000                 0.0000
 Atom AN      X      Y      Z        X      Y      Z        X      Y      Z
   1   6    -0.12   0.26  -0.04    -0.16  -0.08  -0.09    -0.01  -0.00  -0.00
   2   6     0.00   0.00  -0.00    -0.02  -0.01   0.02    -0.00  -0.00  -0.01
   3   1    -0.09  -0.71  -0.06     0.02   0.64   0.02     0.00   0.03   0.00
   4   1     0.55  -0.24   0.21     0.60  -0.35   0.22     0.02  -0.01   0.01
   5   1    -0.03   0.05  -0.02    -0.01   0.01   0.06     0.00   0.00   0.00
   6   6    -0.00   0.00  -0.00     0.01   0.01   0.01     0.01   0.00   0.01
   7   1     0.00  -0.00   0.00    -0.00  -0.02  -0.09    -0.00   0.00   0.03
   8   1     0.00  -0.00  -0.00    -0.00  -0.01  -0.02     0.00  -0.35  -0.48
   9   6     0.00  -0.00   0.00    -0.01   0.00  -0.00     0.18   0.07   0.22
  10   1    -0.01   0.00  -0.00     0.05  -0.01   0.03    -0.66   0.10  -0.33
  11   6     0.00  -0.00  -0.00    -0.00  -0.00   0.00    -0.01  -0.00  -0.01
  12   8     0.00  -0.00   0.00    -0.00  -0.00  -0.01    -0.00  -0.00  -0.00
  13   1     0.00  -0.00   0.00    -0.00   0.00  -0.00     0.04  -0.01   0.02
  14   1    -0.00  -0.00   0.00     0.01   0.00  -0.01     0.01   0.00  -0.01
  15   1    -0.00   0.00   0.00    -0.00   0.00   0.00    -0.00   0.03   0.03
                     34                     35                     36
                        a                      a                      a 
 Frequencies --  2946.9938              2974.4545              2993.4269
 Red. masses --     1.4639                 1.7827                 1.7974
 Frc consts  --     0.0000                 0.0000                 0.0000
 IR Inten    --    93.6108               355.4801               139.0801
 Raman Activ --     0.0000                 0.0000                 0.0000
 Depolar     --     0.0000                 0.0000                 0.0000
 Atom AN      X      Y      Z        X      Y      Z        X      Y      Z
   1   6    -0.01  -0.00  -0.01     0.02   0.01   0.02     0.00   0.00   0.01
   2   6     0.00   0.01   0.04     0.02   0.05   0.25     0.00   0.00   0.01
   3   1     0.00   0.03   0.00    -0.00  -0.06   0.00    -0.00  -0.01   0.00
   4   1     0.02  -0.01   0.01    -0.06   0.03  -0.02    -0.01   0.01  -0.00
   5   1     0.00   0.00   0.02    -0.01  -0.01  -0.02    -0.00  -0.00  -0.02
   6   6     0.00  -0.00  -0.00    -0.02  -0.01   0.01     0.00  -0.00  -0.00
   7   1    -0.00  -0.02  -0.13    -0.03  -0.16  -0.93    -0.00  -0.01  -0.05
   8   1     0.06   0.42   0.62    -0.01  -0.07  -0.10    -0.00  -0.04  -0.05
   9   6     0.13  -0.13  -0.08    -0.01   0.02   0.02    -0.02   0.01   0.01
  10   1    -0.52   0.05  -0.31     0.04  -0.00   0.03     0.05  -0.01   0.03
  11   6    -0.01  -0.01   0.01     0.01   0.01  -0.01    -0.21  -0.05   0.16
  12   8     0.00   0.00  -0.00     0.00   0.00   0.00     0.00   0.00   0.00
  13   1     0.00  -0.00   0.01     0.00   0.00  -0.00     0.04  -0.01   0.07
  14   1     0.06   0.02  -0.05    -0.05  -0.02   0.04     0.71   0.28  -0.56
  15   1    -0.00  -0.02  -0.01     0.00   0.00  -0.00    -0.03  -0.07  -0.08
                     37                     38                     39
                        a                      a                      a 
 Frequencies --  3006.3976              3013.9130              3023.2636
 Red. masses --     1.6437                 1.9434                 1.3776
 Frc consts  --     0.0000                 0.0000                 0.0000
 IR Inten    --    71.0614                98.1533                47.5080
 Raman Activ --     0.0000                 0.0000                 0.0000
 Depolar     --     0.0000                 0.0000                 0.0000
 Atom AN      X      Y      Z        X      Y      Z        X      Y      Z
   1   6     0.04   0.06   0.23    -0.00  -0.00  -0.00    -0.00  -0.00  -0.01
   2   6    -0.00  -0.00   0.00    -0.00  -0.00  -0.00     0.00   0.00   0.00
   3   1     0.01   0.06   0.04    -0.00   0.00  -0.00    -0.00  -0.00  -0.00
   4   1     0.05  -0.01   0.05     0.00  -0.00   0.00    -0.00   0.00  -0.00
   5   1    -0.17  -0.25  -0.91     0.00   0.00   0.00     0.00   0.01   0.03
   6   6     0.00   0.00   0.00     0.00   0.00   0.00     0.00  -0.00  -0.00
   7   1    -0.00   0.00   0.02    -0.00  -0.00   0.00    -0.00  -0.00  -0.01
   8   1     0.00   0.01   0.01    -0.00  -0.02  -0.04     0.00  -0.00   0.00
   9   6     0.00  -0.00  -0.00     0.01   0.01   0.02     0.00  -0.01   0.00
  10   1    -0.01   0.00  -0.01    -0.03   0.00  -0.02    -0.00  -0.00  -0.00
  11   6     0.01  -0.00  -0.00     0.16   0.08   0.23     0.13  -0.12  -0.04
  12   8    -0.00  -0.00  -0.00    -0.00  -0.00  -0.00    -0.00   0.00   0.00
  13   1    -0.02   0.00  -0.01    -0.59   0.09  -0.30    -0.60   0.06  -0.35
  14   1    -0.01  -0.00   0.01     0.00   0.00   0.05     0.13   0.03  -0.09
  15   1     0.00   0.01   0.01     0.03  -0.38  -0.57     0.01   0.36   0.57
