      -----------------------------------------------------------      
     |                   =====================                   |     
     |                           x T B                           |     
     |                   =====================                   |     
     |                         S. Grimme                         |     
     |          Mulliken Center for Theoretical Chemistry        |     
     |                    University of Bonn                     |     
      -----------------------------------------------------------      

   * xtb version 6.7.1 (edcfbbe) compiled by 'albert@albert-system' on 2024-07-22

   xtb is free software: you can redistribute it and/or modify it under
   the terms of the GNU Lesser General Public License as published by
   the Free Software Foundation, either version 3 of the License, or
   (at your option) any later version.
   
   xtb is distributed in the hope that it will be useful,
   but WITHOUT ANY WARRANTY; without even the implied warranty of
   MERCHANTABILITY or FITNESS FOR A PARTICULAR PURPOSE.  See the
   GNU Lesser General Public License for more details.
   
   Cite this work as:
   * C. Bannwarth, E. Caldeweyher, S. Ehlert, A. Hansen, P. Pracht,
     J. Seibert, S. Spicher, S. Grimme, WIREs Comput. Mol. Sci., 2020, 11,
     e01493. DOI: 10.1002/wcms.1493
   
   for GFN2-xTB:
   * C. Bannwarth, S. Ehlert and S. Grimme., J. Chem. Theory Comput., 2019,
     15, 1652-1671. DOI: 10.1021/acs.jctc.8b01176
   for GFN1-xTB:
   * S. Grimme, C. Bannwarth, P. Shushkov, J. Chem. Theory Comput., 2017,
     13, 1989-2009. DOI: 10.1021/acs.jctc.7b00118
   for GFN0-xTB:
   * P. Pracht, E. Caldeweyher, S. Ehlert, S. Grimme, ChemRxiv, 2019, preprint.
     DOI: 10.26434/chemrxiv.8326202.v1
   for GFN-FF:
   * S. Spicher and S. Grimme, Angew. Chem. Int. Ed., 2020, 59, 15665-15673.
     DOI: 10.1002/anie.202004239
   
   for ALPB and GBSA implicit solvation:
   * S. Ehlert, M. Stahn, S. Spicher, S. Grimme, J. Chem. Theory Comput.,
     2021, 17, 4250-4261. DOI: 10.1021/acs.jctc.1c00471
   
   for ddCOSMO and CPCM-X implicit solvation:
   * M. Stahn, S. Ehlert, S. Grimme, J. Phys. Chem. A,
     2023, XX, XXXX-XXXX. DOI: 10.1021/acs.jpca.3c04382
   
   for DFT-D4:
   * E. Caldeweyher, C. Bannwarth and S. Grimme, J. Chem. Phys., 2017,
     147, 034112. DOI: 10.1063/1.4993215
   * E. Caldeweyher, S. Ehlert, A. Hansen, H. Neugebauer, S. Spicher,
     C. Bannwarth and S. Grimme, J. Chem. Phys., 2019, 150, 154122.
     DOI: 10.1063/1.5090222
   * E. Caldeweyher, J.-M. Mewes, S. Ehlert and S. Grimme, Phys. Chem. Chem. Phys.
     2020, 22, 8499-8512. DOI: 10.1039/D0CP00502A
   
   for sTDA-xTB:
   * S. Grimme and C. Bannwarth, J. Chem. Phys., 2016, 145, 054103.
     DOI: 10.1063/1.4959605
   
   in the mass-spec context:
   * V. Asgeirsson, C. Bauer and S. Grimme, Chem. Sci., 2017, 8, 4879.
     DOI: 10.1039/c7sc00601b
   * J. Koopman and S. Grimme, ACS Omega 2019, 4, 12, 15120-15133.
     DOI: 10.1021/acsomega.9b02011
   
   for metadynamics refer to:
   * S. Grimme, J. Chem. Theory Comput., 2019, 155, 2847-2862
     DOI: 10.1021/acs.jctc.9b00143
   
   for SPH calculations refer to:
   * S. Spicher and S. Grimme, J. Chem. Theory Comput., 2021, 17, 1701-1714
     DOI: 10.1021/acs.jctc.0c01306
   
   for ONIOM refer to:
   * C. Plett, A. Katbashev, S. Ehlert, S. Grimme, M. Bursch,
     Phys. Chem. Chem. Phys., 2023, 25, 17860-17868. DOI: 10.1039/D3CP02178E
   
   for DIPRO refer to:
   * J. Kohn, N. Gildemeister, S. Grimme, D. Fazzi, A. Hansen,
     J. Chem. Phys., 2023, just accepted.
   
   for PTB refer to:
   * S. Grimme, M. Mueller, A. Hansen, J. Chem. Phys., 2023, 158, 124111.
     DOI: 10.1063/5.0137838
   
   with help from (in alphabetical order)
   P. Atkinson, C. Bannwarth, F. Bohle, G. Brandenburg, E. Caldeweyher
   M. Checinski, S. Dohm, S. Ehlert, S. Ehrlich, I. Gerasimov, C. Hölzer
   A. Katbashev, J. Kohn, J. Koopman, C. Lavigne, S. Lehtola, F. März, M. Müller,
   F. Musil, H. Neugebauer, J. Pisarek, C. Plett, P. Pracht, F. Pultar,
   J. Seibert, P. Shushkov, S. Spicher, M. Stahn, M. Steiner, T. Strunk,
   J. Stückrath, T. Rose, and J. Unsleber
   
 * started run on 2025/10/18 at 03:58:41.957     
   ID    Z sym.   atoms
    1    6 C      1, 2, 6, 9, 11
    2    1 H      3-5, 7, 8, 10, 13-15
    3    8 O      12

           -------------------------------------------------
          |                Calculation Setup                |
           -------------------------------------------------

          program call               : xtb xyz.xyz --alpb water --charge -1 --ohess
          hostname                   : m003
          coordinate file            : xyz.xyz
          omp threads                :                     2


           -------------------------------------------------
          |                 G F N 2 - x T B                 |
           -------------------------------------------------

        Reference                      10.1021/acs.jctc.8b01176
      * Hamiltonian:
        H0-scaling (s, p, d)           1.850000    2.230000    2.230000
        zeta-weighting                 0.500000
      * Dispersion:
        s8                             2.700000
        a1                             0.520000
        a2                             5.000000
        s9                             5.000000
      * Repulsion:
        kExp                           1.500000    1.000000
        rExp                           1.000000
      * Coulomb:
        alpha                          2.000000
        third order                    shell-resolved
        anisotropic                    true
        a3                             3.000000
        a5                             4.000000
        cn-shift                       1.200000
        cn-exp                         4.000000
        max-rad                        5.000000

      * Solvation model:               ALPB
        Solvent                        water
        Parameter file                 internal GFN2-xTB/ALPB
        Dielectric constant                8.0200E+01
        Reference state                gsolv [1 M gas/solution]
        Free energy shift                  1.0808E-03 Eh       6.7819E-01 kcal/mol
        Temperature                        2.9815E+02 K
        Density                            1.0000E+00 kg/L
        Solvent mass                       1.8000E+01 g/mol
        Interaction kernel             P16
        Born radius scaling (c1)           1.4744E+00
        Born radii integrator          GBOBC
        Born offset                        0.0000E+00 a0       0.0000E+00 AA
        H-bond correction              true
        Ion screening                  false
        Surface tension                    1.0000E-05 Eh       1.5569E+01 dyn/cm
        Grid points                               230 per atom

          ...................................................
          :                      SETUP                      :
          :.................................................:
          :  # basis functions                  33          :
          :  # atomic orbitals                  33          :
          :  # shells                           21          :
          :  # electrons                        36          :
          :  max. iterations                   250          :
          :  Hamiltonian                  GFN2-xTB          :
          :  restarted?                      false          :
          :  GBSA solvation                   true          :
          :  PC potential                    false          :
          :  electronic temp.          300.0000000     K    :
          :  accuracy                    1.0000000          :
          :  -> integral cutoff          0.2500000E+02      :
          :  -> integral neglect         0.1000000E-07      :
          :  -> SCF convergence          0.1000000E-05 Eh   :
          :  -> wf. convergence          0.1000000E-03 e    :
          :  Broyden damping             0.4000000          :
          :  net charge                         -1          :
          :  unpaired electrons                  0          :
          ...................................................

 iter      E             dE          RMSdq      gap      omega  full diag
   1    -19.7752281 -0.197752E+02  0.411E+00    4.26       0.0  T
   2    -19.8490278 -0.737996E-01  0.185E+00    3.93       1.0  T
   3    -19.8494752 -0.447411E-03  0.972E-01    4.09       1.0  T
   4    -19.8510224 -0.154723E-02  0.549E-01    3.86       1.0  T
   5    -19.8528300 -0.180763E-02  0.126E-01    3.96       1.0  T
   6    -19.8528519 -0.218591E-04  0.509E-02    3.94       1.0  T
   7    -19.8528556 -0.372682E-05  0.152E-02    3.95       1.7  T
   8    -19.8528560 -0.344156E-06  0.369E-03    3.95       7.0  T
   9    -19.8528560 -0.305764E-07  0.187E-03    3.95      13.8  T
  10    -19.8528560 -0.359850E-08  0.402E-04    3.95      64.3  T
  11    -19.8528560 -0.559702E-09  0.148E-04    3.95     174.7  T

   *** convergence criteria satisfied after 11 iterations ***

         #    Occupation            Energy/Eh            Energy/eV
      -------------------------------------------------------------
         1        2.0000           -0.6132352             -16.6870
       ...           ...                  ...                  ...
        12        2.0000           -0.4374648             -11.9040
        13        2.0000           -0.4285323             -11.6610
        14        2.0000           -0.4121885             -11.2162
        15        2.0000           -0.4053508             -11.0302
        16        2.0000           -0.3931182             -10.6973
        17        2.0000           -0.3121877              -8.4951
        18        2.0000           -0.2692252              -7.3260 (HOMO)
        19                         -0.1241135              -3.3773 (LUMO)
        20                          0.1184977               3.2245
        21                          0.1467296               3.9927
        22                          0.1524839               4.1493
        23                          0.1611619               4.3854
       ...                                ...                  ...
        33                          0.6085904              16.5606
      -------------------------------------------------------------
                  HL-Gap            0.1451117 Eh            3.9487 eV
             Fermi-level           -0.1966694 Eh           -5.3516 eV

 SCC (total)                   0 d,  0 h,  0 min,  0.041 sec
 SCC setup                      ...        0 min,  0.000 sec (  0.763%)
 Dispersion                     ...        0 min,  0.000 sec (  0.208%)
 classical contributions        ...        0 min,  0.000 sec (  0.054%)
 integral evaluation            ...        0 min,  0.001 sec (  1.624%)
 iterations                     ...        0 min,  0.039 sec ( 93.376%)
 molecular gradient             ...        0 min,  0.002 sec (  3.726%)
 printout                       ...        0 min,  0.000 sec (  0.195%)

         :::::::::::::::::::::::::::::::::::::::::::::::::::::
         ::                     SUMMARY                     ::
         :::::::::::::::::::::::::::::::::::::::::::::::::::::
         :: total energy             -19.606797589206 Eh    ::
         :: total w/o Gsasa/hb       -19.607127162480 Eh    ::
         :: gradient norm              0.128000718427 Eh/a0 ::
         :: HOMO-LUMO gap              3.948690832333 eV    ::
         ::.................................................::
         :: SCC energy               -19.852844727668 Eh    ::
         :: -> isotropic ES            0.192744509803 Eh    ::
         :: -> anisotropic ES          0.014914651156 Eh    ::
         :: -> anisotropic XC          0.005588998402 Eh    ::
         :: -> dispersion             -0.009355932842 Eh    ::
         :: -> Gsolv                  -0.102154082569 Eh    ::
         ::    -> Gelec               -0.102483655843 Eh    ::
         ::    -> Gsasa                0.001077111610 Eh    ::
         ::    -> Ghb                 -0.001828298035 Eh    ::
         ::    -> Gshift               0.001080759698 Eh    ::
         :: repulsion energy           0.246047138462 Eh    ::
         :: add. restraining           0.000000000000 Eh    ::
         :: total charge              -1.000000000000 e     ::
         :::::::::::::::::::::::::::::::::::::::::::::::::::::

      ----------------------------------------------------------- 
     |                   =====================                   |
     |                        A N C O P T                        |
     |                   =====================                   |
     |               Approximate Normal Coordinate               |
     |                Rational Function Optimizer                |
      ----------------------------------------------------------- 
      ----------------------------------------------------------- 
     |                   =====================                   |
     |                        A N C O P T                        |
     |                   =====================                   |
     |               Approximate Normal Coordinate               |
     |                Rational Function Optimizer                |
      ----------------------------------------------------------- 

          ...................................................
          :                      SETUP                      :
          :.................................................:
          :   optimization level            normal          :
          :   max. optcycles                   200          :
          :   ANC micro-cycles                  20          :
          :   degrees of freedom                39          :
          :.................................................:
          :   RF solver                   davidson          :
          :   write xtbopt.log                true          :
          :   linear?                        false          :
          :   energy convergence         0.5000000E-05 Eh   :
          :   grad. convergence          0.1000000E-02 Eh/α :
          :   maxmium RF displ.          1.0000000          :
          :   Hlow (freq-cutoff)         0.1000000E-01      :
          :   Hmax (freq-cutoff)         5.0000000          :
          :   S6 in model hess.         20.0000000          :
          ...................................................

generating ANC from exact Hessian ...
Using Lindh-Hessian (1995)
 Shifting diagonal of input Hessian by   7.492521795584640E-003
 Lowest  eigenvalues of input Hessian
    0.000000    0.000000    0.000000    0.000000    0.000000    0.000000
    0.010000    0.011315    0.014379    0.018722    0.022480    0.024033
    0.035227    0.047139    0.051727    0.058975    0.065900    0.072758
 Highest eigenvalues
    1.133111    1.154707    1.214931    1.299228    1.625366    2.010090
 

........................................................................
.............................. CYCLE    1 ..............................
........................................................................

 iter      E             dE          RMSdq      gap      omega  full diag
   1    -19.8528560 -0.198529E+02  0.363E-05    3.95       0.0  T
   2    -19.8528560 -0.900968E-11  0.117E-05    3.95    2214.3  T
   3    -19.8528560 -0.177636E-12  0.781E-06    3.95    3307.7  T
     SCC iter.                  ...        0 min,  0.001 sec
     gradient                   ...        0 min,  0.001 sec
 * total energy  :   -19.6067976 Eh     change       -0.2383871E-10 Eh
   gradient norm :     0.1279999 Eh/α   predicted     0.0000000E+00 (-100.00%)
   displ. norm   :     0.2537376 α      lambda       -0.1545044E-01
   maximum displ.:     0.1013234 α      in ANC's #7, #16, #24, ...

........................................................................
.............................. CYCLE    2 ..............................
........................................................................

 iter      E             dE          RMSdq      gap      omega  full diag
   1    -19.8629991 -0.198630E+02  0.560E-01    4.25       0.0  T
   2    -19.8640334 -0.103430E-02  0.399E-01    4.35       1.0  T
   3    -19.8649899 -0.956504E-03  0.182E-01    4.28       1.0  T
   4    -19.8650060 -0.161309E-04  0.335E-02    4.30       1.0  T
   5    -19.8650130 -0.697238E-05  0.876E-03    4.29       2.9  T
   6    -19.8650131 -0.126978E-06  0.343E-03    4.29       7.5  T
   7    -19.8650131 -0.170909E-07  0.170E-03    4.29      15.2  T
   8    -19.8650131 -0.409664E-08  0.333E-04    4.29      77.6  T
   9    -19.8650131 -0.279687E-09  0.117E-04    4.29     220.5  T
     SCC iter.                  ...        0 min,  0.002 sec
     gradient                   ...        0 min,  0.001 sec
 * total energy  :   -19.6169339 Eh     change       -0.1013628E-01 Eh
   gradient norm :     0.0492339 Eh/α   predicted    -0.8222589E-02 ( -18.88%)
   displ. norm   :     0.1927460 α      lambda       -0.3461827E-02
   maximum displ.:     0.0919962 α      in ANC's #7, #5, #1, ...

........................................................................
.............................. CYCLE    3 ..............................
........................................................................

 iter      E             dE          RMSdq      gap      omega  full diag
   1    -19.8730823 -0.198731E+02  0.257E-01    4.55       0.0  T
   2    -19.8733779 -0.295685E-03  0.174E-01    4.58       1.0  T
   3    -19.8735369 -0.158938E-03  0.816E-02    4.56       1.0  T
   4    -19.8735384 -0.149919E-05  0.204E-02    4.56       1.3  T
   5    -19.8735410 -0.263447E-05  0.432E-03    4.56       6.0  T
   6    -19.8735410 -0.310889E-07  0.159E-03    4.56      16.2  T
   7    -19.8735410 -0.348971E-08  0.721E-04    4.56      35.8  T
   8    -19.8735410 -0.596636E-09  0.206E-04    4.56     125.2  T
     SCC iter.                  ...        0 min,  0.002 sec
     gradient                   ...        0 min,  0.001 sec
 * total energy  :   -19.6186216 Eh     change       -0.1687683E-02 Eh
   gradient norm :     0.0116946 Eh/α   predicted    -0.1795217E-02 (   6.37%)
   displ. norm   :     0.1148323 α      lambda       -0.3162877E-03
   maximum displ.:     0.0916544 α      in ANC's #1, #4, #6, ...

........................................................................
.............................. CYCLE    4 ..............................
........................................................................

 iter      E             dE          RMSdq      gap      omega  full diag
   1    -19.8726846 -0.198727E+02  0.415E-02    4.53       0.0  T
   2    -19.8726864 -0.183902E-05  0.250E-02    4.53       1.0  T
   3    -19.8726863  0.143421E-06  0.907E-03    4.53       2.8  T
   4    -19.8726865 -0.238014E-06  0.260E-03    4.53       9.9  T
   5    -19.8726866 -0.690129E-07  0.718E-04    4.53      36.0  T
   6    -19.8726866 -0.373781E-09  0.318E-04    4.53      81.1  T
     SCC iter.                  ...        0 min,  0.001 sec
     gradient                   ...        0 min,  0.001 sec
 * total energy  :   -19.6188567 Eh     change       -0.2351042E-03 Eh
   gradient norm :     0.0065436 Eh/α   predicted    -0.1602296E-03 ( -31.85%)
   displ. norm   :     0.1827695 α      lambda       -0.2879472E-03
   maximum displ.:     0.1269039 α      in ANC's #1, #4, #6, ...

........................................................................
.............................. CYCLE    5 ..............................
........................................................................

 iter      E             dE          RMSdq      gap      omega  full diag
   1    -19.8723233 -0.198723E+02  0.597E-02    4.52       0.0  T
   2    -19.8723278 -0.457613E-05  0.353E-02    4.52       1.0  T
   3    -19.8723285 -0.675047E-06  0.217E-02    4.52       1.2  T
   4    -19.8723302 -0.168099E-05  0.296E-03    4.52       8.7  T
   5    -19.8723303 -0.601522E-07  0.106E-03    4.52      24.4  T
   6    -19.8723303 -0.620695E-09  0.416E-04    4.52      62.1  T
   7    -19.8723303 -0.146692E-09  0.996E-05    4.52     259.1  T
     SCC iter.                  ...        0 min,  0.002 sec
     gradient                   ...        0 min,  0.001 sec
 * total energy  :   -19.6190654 Eh     change       -0.2087815E-03 Eh
   gradient norm :     0.0049566 Eh/α   predicted    -0.1487846E-03 ( -28.74%)
   displ. norm   :     0.2303213 α      lambda       -0.2321613E-03
   maximum displ.:     0.1405094 α      in ANC's #1, #4, #6, ...

........................................................................
.............................. CYCLE    6 ..............................
........................................................................

 iter      E             dE          RMSdq      gap      omega  full diag
   1    -19.8721280 -0.198721E+02  0.679E-02    4.53       0.0  T
   2    -19.8721302 -0.218548E-05  0.403E-02    4.53       1.0  T
   3    -19.8721284  0.175143E-05  0.227E-02    4.54       1.1  T
   4    -19.8721317 -0.332267E-05  0.230E-03    4.53      11.2  T
   5    -19.8721318 -0.156680E-07  0.115E-03    4.53      22.5  T
   6    -19.8721318 -0.825366E-09  0.277E-04    4.53      93.1  T
   7    -19.8721318 -0.690967E-10  0.113E-04    4.53     229.0  T
     SCC iter.                  ...        0 min,  0.002 sec
     gradient                   ...        0 min,  0.001 sec
 * total energy  :   -19.6192387 Eh     change       -0.1732165E-03 Eh
   gradient norm :     0.0059234 Eh/α   predicted    -0.1222419E-03 ( -29.43%)
   displ. norm   :     0.2821633 α      lambda       -0.2521348E-03
   maximum displ.:     0.1977841 α      in ANC's #4, #1, #6, ...

........................................................................
.............................. CYCLE    7 ..............................
........................................................................

 iter      E             dE          RMSdq      gap      omega  full diag
   1    -19.8716831 -0.198717E+02  0.893E-02    4.55       0.0  T
   2    -19.8716855 -0.240739E-05  0.529E-02    4.54       1.0  T
   3    -19.8716816  0.393759E-05  0.277E-02    4.55       1.0  T
   4    -19.8716875 -0.594647E-05  0.278E-03    4.54       9.3  T
   5    -19.8716875 -0.111426E-07  0.108E-03    4.54      23.8  T
   6    -19.8716875 -0.107198E-08  0.345E-04    4.54      74.8  T
   7    -19.8716875 -0.113552E-09  0.617E-05    4.54     418.8  T
     SCC iter.                  ...        0 min,  0.002 sec
     gradient                   ...        0 min,  0.001 sec
 * total energy  :   -19.6194250 Eh     change       -0.1863012E-03 Eh
   gradient norm :     0.0064317 Eh/α   predicted    -0.1361066E-03 ( -26.94%)
   displ. norm   :     0.2872427 α      lambda       -0.2952344E-03
   maximum displ.:     0.2318313 α      in ANC's #4, #6, #5, ...

........................................................................
.............................. CYCLE    8 ..............................
........................................................................

 iter      E             dE          RMSdq      gap      omega  full diag
   1    -19.8718765 -0.198719E+02  0.972E-02    4.56       0.0  T
   2    -19.8718777 -0.125120E-05  0.577E-02    4.56       1.0  T
   3    -19.8718766  0.115424E-05  0.124E-02    4.56       2.1  T
   4    -19.8718782 -0.164479E-05  0.297E-03    4.56       8.7  T
   5    -19.8718783 -0.218773E-07  0.147E-03    4.56      17.6  T
   6    -19.8718783 -0.120449E-08  0.352E-04    4.56      73.4  T
   7    -19.8718783 -0.127887E-09  0.142E-04    4.56     182.3  T
     SCC iter.                  ...        0 min,  0.002 sec
     gradient                   ...        0 min,  0.001 sec
 * total energy  :   -19.6196442 Eh     change       -0.2192315E-03 Eh
   gradient norm :     0.0075094 Eh/α   predicted    -0.1597973E-03 ( -27.11%)
   displ. norm   :     0.2695885 α      lambda       -0.4035965E-03
   maximum displ.:     0.2280206 α      in ANC's #4, #6, #5, ...

........................................................................
.............................. CYCLE    9 ..............................
........................................................................

 iter      E             dE          RMSdq      gap      omega  full diag
   1    -19.8742249 -0.198742E+02  0.103E-01    4.57       0.0  T
   2    -19.8742267 -0.185180E-05  0.614E-02    4.57       1.0  T
   3    -19.8742269 -0.189289E-06  0.528E-03    4.57       4.9  T
   4    -19.8742271 -0.124923E-06  0.243E-03    4.57      10.6  T
   5    -19.8742271 -0.737230E-08  0.142E-03    4.57      18.2  T
   6    -19.8742271 -0.626737E-08  0.341E-04    4.57      75.8  T
   7    -19.8742271 -0.339092E-09  0.911E-05    4.57     283.3  T
     SCC iter.                  ...        0 min,  0.002 sec
     gradient                   ...        0 min,  0.001 sec
 * total energy  :   -19.6199338 Eh     change       -0.2896105E-03 Eh
   gradient norm :     0.0088489 Eh/α   predicted    -0.2164657E-03 ( -25.26%)
   displ. norm   :     0.3539518 α      lambda       -0.3818606E-03
   maximum displ.:     0.3080698 α      in ANC's #4, #6, #5, ...

........................................................................
.............................. CYCLE   10 ..............................
........................................................................

 iter      E             dE          RMSdq      gap      omega  full diag
   1    -19.8723452 -0.198723E+02  0.141E-01    4.55       0.0  T
   2    -19.8723561 -0.108919E-04  0.851E-02    4.56       1.0  T
   3    -19.8723492  0.698183E-05  0.473E-02    4.55       1.0  T
   4    -19.8723632 -0.140289E-04  0.414E-03    4.55       6.2  T
   5    -19.8723633 -0.628060E-07  0.214E-03    4.55      12.1  T
   6    -19.8723633 -0.194249E-08  0.575E-04    4.55      44.9  T
   7    -19.8723633 -0.332541E-09  0.156E-04    4.55     165.5  T
     SCC iter.                  ...        0 min,  0.002 sec
     gradient                   ...        0 min,  0.001 sec
 * total energy  :   -19.6201868 Eh     change       -0.2530420E-03 Eh
   gradient norm :     0.0131203 Eh/α   predicted    -0.2148465E-03 ( -15.09%)
   displ. norm   :     0.3551391 α      lambda       -0.6903517E-03
   maximum displ.:     0.2268630 α      in ANC's #1, #4, #3, ...

........................................................................
.............................. CYCLE   11 ..............................
........................................................................

 iter      E             dE          RMSdq      gap      omega  full diag
   1    -19.8766966 -0.198767E+02  0.147E-01    4.55       0.0  T
   2    -19.8767032 -0.662884E-05  0.856E-02    4.55       1.0  T
   3    -19.8767038 -0.589846E-06  0.995E-03    4.55       2.6  T
   4    -19.8767039 -0.923832E-07  0.345E-03    4.55       7.5  T
   5    -19.8767039 -0.492033E-08  0.122E-03    4.55      21.2  T
   6    -19.8767039 -0.113241E-08  0.377E-04    4.55      68.6  T
   7    -19.8767039 -0.178908E-09  0.217E-04    4.55     118.8  T
     SCC iter.                  ...        0 min,  0.002 sec
     gradient                   ...        0 min,  0.001 sec
 * total energy  :   -19.6204673 Eh     change       -0.2804922E-03 Eh
   gradient norm :     0.0111247 Eh/α   predicted    -0.3887112E-03 (  38.58%)
   displ. norm   :     0.3450878 α      lambda       -0.4280338E-03
   maximum displ.:     0.2921514 α      in ANC's #4, #1, #6, ...

........................................................................
.............................. CYCLE   12 ..............................
........................................................................

 iter      E             dE          RMSdq      gap      omega  full diag
   1    -19.8712443 -0.198712E+02  0.142E-01    4.53       0.0  T
   2    -19.8712476 -0.338419E-05  0.838E-02    4.53       1.0  T
   3    -19.8712483 -0.665567E-06  0.751E-03    4.53       3.4  T
   4    -19.8712484 -0.128103E-06  0.428E-03    4.53       6.0  T
   5    -19.8712485 -0.150525E-07  0.216E-03    4.53      11.9  T
   6    -19.8712485 -0.192627E-07  0.649E-04    4.53      39.8  T
   7    -19.8712485 -0.909239E-09  0.296E-04    4.53      87.3  T
     SCC iter.                  ...        0 min,  0.002 sec
     gradient                   ...        0 min,  0.001 sec
 * total energy  :   -19.6206334 Eh     change       -0.1660884E-03 Eh
   gradient norm :     0.0123435 Eh/α   predicted    -0.2395089E-03 (  44.21%)
   displ. norm   :     0.1030282 α      lambda       -0.2740330E-03
   maximum displ.:     0.0906920 α      in ANC's #4, #5, #2, ...

........................................................................
.............................. CYCLE   13 ..............................
........................................................................

 iter      E             dE          RMSdq      gap      omega  full diag
   1    -19.8754291 -0.198754E+02  0.632E-02    4.59       0.0  T
   2    -19.8754314 -0.227089E-05  0.367E-02    4.59       1.0  T
   3    -19.8754314  0.544471E-08  0.789E-03    4.59       3.3  T
   4    -19.8754316 -0.209019E-06  0.206E-03    4.59      12.5  T
   5    -19.8754316 -0.148426E-07  0.131E-03    4.59      19.8  T
   6    -19.8754316 -0.368735E-08  0.484E-04    4.59      53.4  T
   7    -19.8754316 -0.442860E-09  0.147E-04    4.59     175.2  T
     SCC iter.                  ...        0 min,  0.002 sec
     gradient                   ...        0 min,  0.001 sec
 * total energy  :   -19.6207729 Eh     change       -0.1394288E-03 Eh
   gradient norm :     0.0058352 Eh/α   predicted    -0.1384709E-03 (  -0.69%)
   displ. norm   :     0.1244546 α      lambda       -0.1007949E-03
   maximum displ.:     0.0832671 α      in ANC's #1, #4, #5, ...

........................................................................
.............................. CYCLE   14 ..............................
........................................................................

 iter      E             dE          RMSdq      gap      omega  full diag
   1    -19.8753292 -0.198753E+02  0.446E-02    4.58       0.0  T
   2    -19.8753298 -0.618509E-06  0.264E-02    4.58       1.0  T
   3    -19.8753292  0.638694E-06  0.917E-03    4.58       2.8  T
   4    -19.8753300 -0.831109E-06  0.163E-03    4.58      15.8  T
   5    -19.8753301 -0.102608E-07  0.783E-04    4.58      33.0  T
   6    -19.8753301 -0.378062E-09  0.205E-04    4.58     125.7  T
     SCC iter.                  ...        0 min,  0.001 sec
     gradient                   ...        0 min,  0.001 sec
 * total energy  :   -19.6208444 Eh     change       -0.7157202E-04 Eh
   gradient norm :     0.0047302 Eh/α   predicted    -0.5117650E-04 ( -28.50%)
   displ. norm   :     0.1801195 α      lambda       -0.9416867E-04
   maximum displ.:     0.1190388 α      in ANC's #1, #4, #3, ...

........................................................................
.............................. CYCLE   15 ..............................
........................................................................

 iter      E             dE          RMSdq      gap      omega  full diag
   1    -19.8749647 -0.198750E+02  0.646E-02    4.59       0.0  T
   2    -19.8749712 -0.644696E-05  0.399E-02    4.58       1.0  T
   3    -19.8749741 -0.291583E-05  0.234E-02    4.59       1.1  T
   4    -19.8749756 -0.154656E-05  0.285E-03    4.58       9.0  T
   5    -19.8749757 -0.391630E-07  0.107E-03    4.58      24.2  T
   6    -19.8749757 -0.120648E-08  0.321E-04    4.58      80.5  T
   7    -19.8749757 -0.482672E-10  0.148E-04    4.58     174.6  T
     SCC iter.                  ...        0 min,  0.002 sec
     gradient                   ...        0 min,  0.001 sec
 * total energy  :   -19.6208975 Eh     change       -0.5304801E-04 Eh
   gradient norm :     0.0031016 Eh/α   predicted    -0.4861269E-04 (  -8.36%)
   displ. norm   :     0.1201828 α      lambda       -0.4595756E-04
   maximum displ.:     0.0741045 α      in ANC's #4, #1, #5, ...

........................................................................
.............................. CYCLE   16 ..............................
........................................................................

 iter      E             dE          RMSdq      gap      omega  full diag
   1    -19.8743417 -0.198743E+02  0.422E-02    4.58       0.0  T
   2    -19.8743430 -0.133142E-05  0.248E-02    4.58       1.0  T
   3    -19.8743429  0.161320E-06  0.154E-02    4.58       1.7  T
   4    -19.8743440 -0.117535E-05  0.131E-03    4.58      19.7  T
   5    -19.8743440 -0.403646E-08  0.712E-04    4.58      36.3  T
   6    -19.8743440 -0.235666E-09  0.176E-04    4.58     146.7  T
     SCC iter.                  ...        0 min,  0.001 sec
     gradient                   ...        0 min,  0.001 sec
 * total energy  :   -19.6209162 Eh     change       -0.1868101E-04 Eh
   gradient norm :     0.0027175 Eh/α   predicted    -0.2331013E-04 (  24.78%)
   displ. norm   :     0.0250910 α      lambda       -0.2037292E-04
   maximum displ.:     0.0180619 α      in ANC's #4, #2, #1, ...

........................................................................
.............................. CYCLE   17 ..............................
........................................................................

 iter      E             dE          RMSdq      gap      omega  full diag
   1    -19.8756509 -0.198757E+02  0.193E-02    4.59       0.0  T
   2    -19.8756518 -0.876944E-06  0.122E-02    4.59       2.1  T
   3    -19.8756524 -0.637374E-06  0.688E-03    4.59       3.8  T
   4    -19.8756525 -0.849849E-07  0.710E-04    4.59      36.4  T
   5    -19.8756525 -0.284558E-09  0.427E-04    4.59      60.5  T
     SCC iter.                  ...        0 min,  0.001 sec
     gradient                   ...        0 min,  0.001 sec
 * total energy  :   -19.6209251 Eh     change       -0.8941602E-05 Eh
   gradient norm :     0.0008108 Eh/α   predicted    -0.1019285E-04 (  13.99%)
   displ. norm   :     0.0344394 α      lambda       -0.4420022E-05
   maximum displ.:     0.0250744 α      in ANC's #4, #6, #2, ...

........................................................................
.............................. CYCLE   18 ..............................
........................................................................

 iter      E             dE          RMSdq      gap      omega  full diag
   1    -19.8754690 -0.198755E+02  0.147E-02    4.59       0.0  T
   2    -19.8754691 -0.133217E-06  0.860E-03    4.59       3.0  T
   3    -19.8754690  0.655783E-07  0.376E-03    4.59       6.9  T
   4    -19.8754691 -0.951736E-07  0.672E-04    4.59      38.4  T
   5    -19.8754691 -0.306413E-08  0.259E-04    4.59      99.5  T
     SCC iter.                  ...        0 min,  0.001 sec
     gradient                   ...        0 min,  0.001 sec
 * total energy  :   -19.6209265 Eh     change       -0.1395887E-05 Eh
   gradient norm :     0.0013583 Eh/α   predicted    -0.2209580E-05 (  58.29%)
   displ. norm   :     0.0143487 α      lambda       -0.3277022E-05
   maximum displ.:     0.0115643 α      in ANC's #1, #2, #6, ...

........................................................................
.............................. CYCLE   19 ..............................
........................................................................

 iter      E             dE          RMSdq      gap      omega  full diag
   1    -19.8755214 -0.198755E+02  0.914E-03    4.59       0.0  T
   2    -19.8755217 -0.245530E-06  0.596E-03    4.59       4.3  T
   3    -19.8755218 -0.147766E-06  0.308E-03    4.59       8.4  T
   4    -19.8755218 -0.124346E-07  0.638E-04    4.59      40.5  T
   5    -19.8755218 -0.142874E-08  0.205E-04    4.59     126.0  T
     SCC iter.                  ...        0 min,  0.001 sec
     gradient                   ...        0 min,  0.001 sec
 * total energy  :   -19.6209282 Eh     change       -0.1711162E-05 Eh
   gradient norm :     0.0010574 Eh/α   predicted    -0.1639957E-05 (  -4.16%)
   displ. norm   :     0.0065644 α      lambda       -0.1959314E-05
   maximum displ.:     0.0033640 α      in ANC's #1, #3, #7, ...

........................................................................
.............................. CYCLE   20 ..............................
........................................................................

 iter      E             dE          RMSdq      gap      omega  full diag
   1    -19.8756957 -0.198757E+02  0.729E-03    4.59       0.0  T
   2    -19.8756959 -0.171352E-06  0.463E-03    4.59       5.6  T
   3    -19.8756960 -0.117082E-06  0.227E-03    4.59      11.4  T
   4    -19.8756960 -0.705039E-08  0.537E-04    4.59      48.1  T
   5    -19.8756960 -0.873154E-09  0.201E-04    4.59     128.2  T
     SCC iter.                  ...        0 min,  0.001 sec
     gradient                   ...        0 min,  0.001 sec
 * total energy  :   -19.6209295 Eh     change       -0.1248947E-05 Eh
   gradient norm :     0.0004981 Eh/α   predicted    -0.9778988E-06 ( -21.70%)
   displ. norm   :     0.0103198 α      lambda       -0.8279122E-06
   maximum displ.:     0.0057776 α      in ANC's #2, #4, #6, ...

   *** GEOMETRY OPTIMIZATION CONVERGED AFTER 20 ITERATIONS ***

------------------------------------------------------------------------
 total energy gain   :        -0.0141319 Eh       -8.8679 kcal/mol
 total RMSD          :         0.6032655 a0        0.3192 Å
 total power (kW/mol):        -1.8551599 (step) -451.5091 (real)
------------------------------------------------------------------------

 ANCopt (total)                0 d,  0 h,  0 min,  0.082 sec
 optimizer setup                ...        0 min,  0.000 sec (  0.253%)
 model hessian                  ...        0 min,  0.002 sec (  2.581%)
 ANC generation                 ...        0 min,  0.000 sec (  0.309%)
 coordinate transformation      ...        0 min,  0.000 sec (  0.153%)
 single point calculation       ...        0 min,  0.076 sec ( 92.052%)
 optimization log               ...        0 min,  0.001 sec (  1.275%)
 hessian update                 ...        0 min,  0.000 sec (  0.158%)
 rational function              ...        0 min,  0.002 sec (  2.399%)

================
 final structure:
================
15
 xtb: 6.7.1 (edcfbbe)
C           -4.88118617122289       -2.73816563340442        2.25468257578652
C           -6.04744023703749       -3.20622318727854        3.07137599141309
H           -4.75674216140121       -1.65112826124220        2.30347559214974
H           -3.94183095959685       -3.19690504037842        2.58035958970831
H           -5.06524367307018       -3.01882722174756        1.21829937628831
C           -7.12505054647525       -3.83210528720285        2.54119721257885
H           -6.00734815745231       -3.01973396737034        4.13907856364781
H           -8.20921038515408       -3.64921569757901        4.40871068388785
C           -8.23245345187348       -4.27565192453903        3.51373161481698
H           -9.19597016920522       -4.13891014702405        3.01334031451710
C           -8.06074279016843       -5.74305987134014        3.89417439407872
O           -7.30129609300687       -4.11176353982623        1.28849092786124
H           -7.11317747821907       -5.88076021105662        4.41110634675098
H           -8.87305057843905       -6.07965595436025        4.53639472326922
H           -8.04722914767756       -6.34736105565035        2.98890509324530
 
 Bond Distances (Angstroems)
 ---------------------------
C1-C2=1.4987         C1-H3=1.0952         C1-H4=1.0949         C1-H5=1.0894         C2-C1=1.4987         C2-C6=1.3543         
C2-H7=1.0846         H3-C1=1.0952         H4-C1=1.0949         H5-C1=1.0894         C6-C2=1.3543         C6-C9=1.5391         
C6-O12=1.2956        H7-C2=1.0846         H8-C9=1.0927         C9-C6=1.5391         C9-H8=1.0927         C9-H10=1.0943        
C9-C11=1.5256        H10-C9=1.0943        C11-C9=1.5256        C11-H13=1.0881       C11-H14=1.0888       C11-H15=1.0885       
O12-C6=1.2956        H13-C11=1.0881       H14-C11=1.0888       H15-C11=1.0885       
 C  H  Rav=1.0907 sigma=0.0035  Rmin=1.0846  Rmax=1.0952     9
 C  C  Rav=1.4794 sigma=0.0737  Rmin=1.3543  Rmax=1.5391     4
 O  C  Rav=1.2956 sigma=0.0000  Rmin=1.2956  Rmax=1.2956     1
 
 selected bond angles (degree)
 --------------------
H3-C1-C2=111.97                H4-C1-C2=112.00                H4-C1-H3=107.76                H5-C1-C2=107.85                
H5-C1-H3=108.50                H5-C1-H4=108.66                C6-C2-C1=123.38                H7-C2-C1=117.00                
H7-C2-C6=119.62                C9-C6-C2=117.28                O12-C6-C2=125.91               O12-C6-C9=116.80               
H8-C9-C6=109.70                H10-C9-C6=107.97               H10-C9-H8=108.76               C11-C9-C6=110.72               
C11-C9-H8=110.17               C11-C9-H10=109.47              
 
 selected dihedral angles (degree)
 ---------------------------------
C6-C2-C1-H3=117.76            C6-C2-C1-H4=238.95            C6-C2-C1-H5=358.47            H7-C2-C1-H3=298.05            
H7-C2-C1-H4= 59.24            H7-C2-C1-H5=178.75            C9-C6-C2-C1=178.93            C9-C6-C2-H7=358.64            
O12-C6-C2-C1=  0.09           O12-C6-C2-H7=179.79           H8-C9-C6-C2= 25.22            H8-C9-C6-O12=204.18           
H10-C9-C6-C2=143.60           H10-C9-C6-O12=322.56          C11-C9-C6-C2=263.42           C11-C9-C6-O12= 82.38          
           -------------------------------------------------
          |                Final Singlepoint                |
           -------------------------------------------------

          ...................................................
          :                      SETUP                      :
          :.................................................:
          :  # basis functions                  33          :
          :  # atomic orbitals                  33          :
          :  # shells                           21          :
          :  # electrons                        36          :
          :  max. iterations                   250          :
          :  Hamiltonian                  GFN2-xTB          :
          :  restarted?                      false          :
          :  GBSA solvation                   true          :
          :  PC potential                    false          :
          :  electronic temp.          300.0000000     K    :
          :  accuracy                    1.0000000          :
          :  -> integral cutoff          0.2500000E+02      :
          :  -> integral neglect         0.1000000E-07      :
          :  -> SCF convergence          0.1000000E-05 Eh   :
          :  -> wf. convergence          0.1000000E-03 e    :
          :  Broyden damping             0.4000000          :
          :  net charge                         -1          :
          :  unpaired electrons                  0          :
          ...................................................

 iter      E             dE          RMSdq      gap      omega  full diag
   1    -19.8756960 -0.198757E+02  0.605E-05    4.59       0.0  T
   2    -19.8756960 -0.322231E-11  0.394E-05    4.59     654.6  T
   3    -19.8756960  0.571987E-12  0.229E-05    4.59    1126.7  T

   *** convergence criteria satisfied after 3 iterations ***

         #    Occupation            Energy/Eh            Energy/eV
      -------------------------------------------------------------
         1        2.0000           -0.6037591             -16.4291
       ...           ...                  ...                  ...
        12        2.0000           -0.4396661             -11.9639
        13        2.0000           -0.4238717             -11.5341
        14        2.0000           -0.4082112             -11.1080
        15        2.0000           -0.3987863             -10.8515
        16        2.0000           -0.3971011             -10.8057
        17        2.0000           -0.3114796              -8.4758
        18        2.0000           -0.2849083              -7.7527 (HOMO)
        19                         -0.1162509              -3.1633 (LUMO)
        20                          0.1113146               3.0290
        21                          0.1499482               4.0803
        22                          0.1618984               4.4055
        23                          0.1707440               4.6462
       ...                                ...                  ...
        33                          0.6508580              17.7107
      -------------------------------------------------------------
                  HL-Gap            0.1686574 Eh            4.5894 eV
             Fermi-level           -0.2005796 Eh           -5.4580 eV

 SCC (total)                   0 d,  0 h,  0 min,  0.003 sec
 SCC setup                      ...        0 min,  0.000 sec (  5.932%)
 Dispersion                     ...        0 min,  0.000 sec (  1.252%)
 classical contributions        ...        0 min,  0.000 sec (  0.361%)
 integral evaluation            ...        0 min,  0.001 sec ( 18.594%)
 iterations                     ...        0 min,  0.001 sec ( 24.172%)
 molecular gradient             ...        0 min,  0.001 sec ( 46.792%)
 printout                       ...        0 min,  0.000 sec (  2.159%)

         :::::::::::::::::::::::::::::::::::::::::::::::::::::
         ::                     SUMMARY                     ::
         :::::::::::::::::::::::::::::::::::::::::::::::::::::
         :: total energy             -19.620929450671 Eh    ::
         :: total w/o Gsasa/hb       -19.621127885829 Eh    ::
         :: gradient norm              0.000497059318 Eh/a0 ::
         :: HOMO-LUMO gap              4.589400864869 eV    ::
         ::.................................................::
         :: SCC energy               -19.875685158241 Eh    ::
         :: -> isotropic ES            0.200541509378 Eh    ::
         :: -> anisotropic ES          0.014228452949 Eh    ::
         :: -> anisotropic XC          0.006123044587 Eh    ::
         :: -> dispersion             -0.009352041415 Eh    ::
         :: -> Gsolv                  -0.104268968977 Eh    ::
         ::    -> Gelec               -0.104467404134 Eh    ::
         ::    -> Gsasa                0.001000465073 Eh    ::
         ::    -> Ghb                 -0.001882789614 Eh    ::
         ::    -> Gshift               0.001080759698 Eh    ::
         :: repulsion energy           0.254755707570 Eh    ::
         :: add. restraining           0.000000000000 Eh    ::
         :: total charge              -1.000000000000 e     ::
         :::::::::::::::::::::::::::::::::::::::::::::::::::::

           ------------------------------------------------- 
          |                Numerical Hessian                |
           ------------------------------------------------- 
step length          :   0.00500
SCC accuracy         :   0.30000
Hessian scale factor :   1.00000
frozen atoms in %    :   0.00000    0
RMS gradient         :   0.00050
estimated CPU  time      0.02 min
estimated wall time      0.01 min

writing file <hessian>.

 projected vibrational frequencies (cm⁻¹)
eigval :       -0.00    -0.00    -0.00    -0.00     0.00     0.00
eigval :       32.74   142.16   162.67   203.03   243.07   281.89
eigval :      410.20   553.06   615.28   682.55   816.27   836.89
eigval :      994.50  1043.66  1046.65  1061.74  1083.09  1117.93
eigval :     1197.70  1242.37  1300.50  1351.13  1387.99  1401.99
eigval :     1481.05  1490.71  1501.46  1506.04  1509.70  1668.74
eigval :     2877.74  2915.67  2930.78  2946.99  2974.45  2993.43
eigval :     3006.40  3013.91  3023.26
           -------------------------------------------------
          |                Property Printout                |
           -------------------------------------------------

    * Orbital Energies and Occupations

         #    Occupation            Energy/Eh            Energy/eV
      -------------------------------------------------------------
         1        2.0000           -0.6037592             -16.4291
       ...           ...                  ...                  ...
         6        2.0000           -0.4994877             -13.5918
         7        2.0000           -0.4856432             -13.2150
         8        2.0000           -0.4790648             -13.0360
         9        2.0000           -0.4634040             -12.6099
        10        2.0000           -0.4575935             -12.4518
        11        2.0000           -0.4478003             -12.1853
        12        2.0000           -0.4396660             -11.9639
        13        2.0000           -0.4238717             -11.5341
        14        2.0000           -0.4082111             -11.1080
        15        2.0000           -0.3987863             -10.8515
        16        2.0000           -0.3971011             -10.8057
        17        2.0000           -0.3114796              -8.4758
        18        2.0000           -0.2849081              -7.7527 (HOMO)
        19                         -0.1162509              -3.1633 (LUMO)
        20                          0.1113146               3.0290
        21                          0.1499483               4.0803
        22                          0.1618984               4.4055
        23                          0.1707440               4.6462
        24                          0.1857211               5.0537
        25                          0.1915680               5.2128
        26                          0.2038784               5.5478
        27                          0.2326502               6.3307
        28                          0.2381526               6.4805
        29                          0.2515084               6.8439
       ...                                ...                  ...
        33                          0.6508580              17.7107
      -------------------------------------------------------------
                  HL-Gap            0.1686572 Eh            4.5894 eV
             Fermi-level           -0.2005795 Eh           -5.4580 eV

     #   Z          covCN         q      C6AA      α(0)
     1   6 C        3.753    -0.069    21.886     6.671
     2   6 C        2.890    -0.173    32.503     9.347
     3   1 H        0.924    -0.003     3.111     2.758
     4   1 H        0.924    -0.002     3.089     2.749
     5   1 H        0.925     0.006     2.956     2.688
     6   6 C        2.815     0.137    25.009     8.194
     7   1 H        0.925    -0.058     4.300     3.243
     8   1 H        0.924    -0.003     3.112     2.759
     9   6 C        3.803    -0.068    21.793     6.646
    10   1 H        0.924     0.003     3.011     2.714
    11   6 C        3.752    -0.090    22.275     6.731
    12   8 O        0.856    -0.762    30.458     7.399
    13   1 H        0.925     0.024     2.666     2.554
    14   1 H        0.925     0.034     2.530     2.487
    15   1 H        0.925     0.024     2.674     2.557

 Mol. C6AA /au·bohr⁶  :       2101.878057
 Mol. C8AA /au·bohr⁸  :      44935.772859
 Mol. α(0) /au        :         69.496852


Wiberg/Mayer (AO) data.
largest (>0.10) Wiberg bond orders for each atom

 ---------------------------------------------------------------------------
     #   Z sym  total        # sym  WBO       # sym  WBO       # sym  WBO
 ---------------------------------------------------------------------------
     1   6 C    3.996 --     2 C    1.026     5 H    0.987     4 H    0.980
                             3 H    0.979
     2   6 C    3.883 --     6 C    1.640     1 C    1.026     7 H    0.969
                            12 O    0.213
     3   1 H    1.000 --     1 C    0.979
     4   1 H    1.000 --     1 C    0.980
     5   1 H    1.000 --     1 C    0.987
     6   6 C    3.964 --     2 C    1.640    12 O    1.323     9 C    0.955
     7   1 H    0.997 --     2 C    0.969
     8   1 H    1.000 --     9 C    0.980
     9   6 C    3.992 --    11 C    1.011     8 H    0.980    10 H    0.979
                             6 C    0.955
    10   1 H    1.000 --     9 C    0.979
    11   6 C    3.998 --     9 C    1.011    13 H    0.989    15 H    0.989
                            14 H    0.987
    12   8 O    1.622 --     6 C    1.323     2 C    0.213
    13   1 H    0.999 --    11 C    0.989
    14   1 H    0.998 --    11 C    0.987
    15   1 H    0.999 --    11 C    0.989
 ---------------------------------------------------------------------------

Topologies differ in total number of bonds
Writing topology from bond orders to xtbtopo.mol

molecular dipole:
                 x           y           z       tot (Debye)
 q only:       13.091       7.227      -3.451
   full:       13.113       7.270      -3.295      39.018
molecular quadrupole (traceless):
                xx          xy          yy          xz          yz          zz
 q only:     -139.707    -143.999      41.526      65.518      35.263      98.182
  q+dip:     -139.523    -144.457      39.734      62.724      34.318      99.789
   full:     -139.897    -144.839      40.158      62.476      34.035      99.739

           -------------------------------------------------
          |                Geometry Summary                 |
           -------------------------------------------------

      molecular mass/u    :       85.1245512
   center of mass at/Å    :       -6.9432906      -4.0037034       2.7479548
  moments of inertia/u·Å² :        0.7545209E+02   0.2330414E+03   0.2708158E+03
rotational constants/cm⁻¹ :        0.2234217E+00   0.7233750E-01   0.6224760E-01

 * 11 selected distances

     #   Z          #   Z                                           value/Å
     1   6 C        3   1 H                                       1.0952249
     1   6 C        4   1 H                                       1.0949410
     1   6 C        5   1 H                                       1.0893753
     2   6 C        6   6 C                                       1.3542755
     2   6 C        7   1 H                                       1.0846080 (min)
     8   1 H        9   6 C                                       1.0926803
     9   6 C       10   1 H                                       1.0942826
     9   6 C       11   6 C                                       1.5256172 (max)
    11   6 C       13   1 H                                       1.0881453
    11   6 C       14   1 H                                       1.0888471
    11   6 C       15   1 H                                       1.0885198

 * 2 distinct bonds (by element types)

   Z      Z             #   av. dist./Å        max./Å        min./Å
   1 H    6 C           9     1.0907360     1.0952249     1.0846080
   6 C    6 C           2     1.4399464     1.5256172     1.3542755

           -------------------------------------------------
          |               Frequency Printout                |
           -------------------------------------------------
 projected vibrational frequencies (cm⁻¹)
eigval :       -0.00    -0.00    -0.00    -0.00     0.00     0.00
eigval :       32.74   142.16   162.67   203.03   243.07   281.89
eigval :      410.20   553.06   615.28   682.55   816.27   836.89
eigval :      994.50  1043.66  1046.65  1061.74  1083.09  1117.93
eigval :     1197.70  1242.37  1300.50  1351.13  1387.99  1401.99
eigval :     1481.05  1490.71  1501.46  1506.04  1509.70  1668.74
eigval :     2877.74  2915.67  2930.78  2946.99  2974.45  2993.43
eigval :     3006.40  3013.91  3023.26
 reduced masses (amu)
   1: 11.20   2: 10.40   3:  9.84   4: 10.20   5: 12.04   6: 12.09   7:  9.27   8:  3.13
   9:  7.29  10:  3.13  11:  8.99  12:  9.66  13:  9.33  14: 10.31  15:  8.02  16:  5.53
  17:  2.94  18:  8.63  19:  5.78  20:  4.29  21:  4.75  22:  6.13  23:  8.30  24:  9.10
  25:  6.76  26:  3.58  27:  4.82  28:  6.18  29:  3.10  30:  5.23  31:  1.95  32:  1.54
  33:  1.63  34:  1.78  35:  1.62  36: 11.45  37:  1.92  38:  1.48  39:  1.97  40:  1.46
  41:  1.78  42:  1.80  43:  1.64  44:  1.94  45:  1.38
 IR intensities (km·mol⁻¹)
   1:  7.84   2:  4.84   3:  0.81   4:  6.03   5: 16.17   6: 14.11   7:  5.66   8:  1.78
   9:  1.19  10:  2.43  11: 18.87  12: 14.95  13:  8.51  14: 15.18  15: 13.70  16:  2.31
  17:  1.66  18: 12.96  19: 41.14  20:  2.65  21: 18.11  22: 35.93  23:  3.58  24: 34.69
  25:116.61  26:  8.79  27:  2.08  28:239.67  29:  3.65  30: 72.10  31:  5.76  32:  0.36
  33:  3.50  34: 38.31  35:  0.58  36:434.74  37:184.14  38:264.29  39:149.84  40: 93.61
  41:355.48  42:139.08  43: 71.06  44: 98.15  45: 47.51
 Raman intensities (Ä⁴*amu⁻¹)
   1:  0.00   2:  0.00   3:  0.00   4:  0.00   5:  0.00   6:  0.00   7:  0.00   8:  0.00
   9:  0.00  10:  0.00  11:  0.00  12:  0.00  13:  0.00  14:  0.00  15:  0.00  16:  0.00
  17:  0.00  18:  0.00  19:  0.00  20:  0.00  21:  0.00  22:  0.00  23:  0.00  24:  0.00
  25:  0.00  26:  0.00  27:  0.00  28:  0.00  29:  0.00  30:  0.00  31:  0.00  32:  0.00
  33:  0.00  34:  0.00  35:  0.00  36:  0.00  37:  0.00  38:  0.00  39:  0.00  40:  0.00
  41:  0.00  42:  0.00  43:  0.00  44:  0.00  45:  0.00
 output can be read by thermo (or use thermo option).
 writing <g98.out> molden fake output.
 recommended (thermochemical) frequency scaling factor: 1.0
           -------------------------------------------------
          |             Thermodynamic Functions             |
           -------------------------------------------------

Refinement of some symmetry elements was terminated before convergence was reached.
Some symmetry elements may remain unidentified.
Molecule has no symmetry elements
It seems to be the C1 point group
c1  symmetry found (for desy threshold:  0.10E+00) used in thermo

          ...................................................
          :                      SETUP                      :
          :.................................................:
          :  # frequencies                          39      :
          :  # imaginary freq.                       0      :
          :  linear?                             false      :
          :  only rotor calc.                    false      :
          :  symmetry                               c1      :
          :  rotational number                       1      :
          :  scaling factor                  1.0000000      :
          :  rotor cutoff                   50.0000000 cm⁻¹ :
          :  imag. cutoff                  -20.0000000 cm⁻¹ :
          :.................................................:

    mode    ω/cm⁻¹     T·S(HO)/kcal·mol⁻¹    T·S(FR)/kcal·mol⁻¹   T·S(vib)
   ------------------------------------------------------------------------
       1     32.74    -1.68640 ( 15.53%)    -1.18122 ( 84.47%)    -1.25965
       2    142.16    -0.82726 ( 98.49%)    -0.74683 (  1.51%)    -0.82605
       3    162.67    -0.75089 ( 99.12%)    -0.70691 (  0.88%)    -0.75050
       4    203.03    -0.62774 ( 99.63%)    -0.64129 (  0.37%)    -0.62779
       5    243.07    -0.53080 ( 99.82%)    -0.58799 (  0.18%)    -0.53091
       6    281.89    -0.45383 ( 99.90%)    -0.54411 (  0.10%)    -0.45392
   ------------------------------------------------------------------------

   temp. (K)  partition function   enthalpy   heat capacity  entropy
                                   cal/mol     cal/K/mol   cal/K/mol   J/K/mol
 298.15  VIB   118.                 3024.077     19.109     18.188
         ROT  0.167E+06              888.752      2.981     26.876
         INT  0.197E+08             3912.829     22.090     45.064
         TR   0.760E+27             1481.254      4.968     39.220
         TOT                        5394.0834    27.0580    84.2838   352.6436

       T/K    H(0)-H(T)+PV         H(T)/Eh          T*S/Eh         G(T)/Eh
   ------------------------------------------------------------------------
    298.15    0.859602E-02    0.134008E+00    0.400460E-01    0.939618E-01
   ------------------------------------------------------------------------

         :::::::::::::::::::::::::::::::::::::::::::::::::::::
         ::                  THERMODYNAMIC                  ::
         :::::::::::::::::::::::::::::::::::::::::::::::::::::
         :: total free energy         -19.526967645180 Eh   ::
         ::.................................................::
         :: total energy              -19.620929450290 Eh   ::
         :: zero point energy           0.125411756153 Eh   ::
         :: G(RRHO) w/o ZPVE           -0.031449951043 Eh   ::
         :: G(RRHO) contrib.            0.093961805110 Eh   ::
         :::::::::::::::::::::::::::::::::::::::::::::::::::::

optimized geometry written to: xtbopt.xyz


           -------------------------------------------------
          | TOTAL ENERGY              -19.620929450290 Eh   |
          | TOTAL ENTHALPY            -19.486921675133 Eh   |
          | TOTAL FREE ENERGY         -19.526967645180 Eh   |
          | GRADIENT NORM               0.000496815511 Eh/α |
          | HOMO-LUMO GAP               4.589396521534 eV   |
           -------------------------------------------------

------------------------------------------------------------------------
 * finished run on 2025/10/18 at 03:58:42.549     
------------------------------------------------------------------------
 total:
 * wall-time:     0 d,  0 h,  0 min,  0.592 sec
 *  cpu-time:     0 d,  0 h,  0 min,  0.937 sec
 * ratio c/w:     1.585 speedup
 SCF:
 * wall-time:     0 d,  0 h,  0 min,  0.042 sec
 *  cpu-time:     0 d,  0 h,  0 min,  0.050 sec
 * ratio c/w:     1.210 speedup
 ANC optimizer:
 * wall-time:     0 d,  0 h,  0 min,  0.147 sec
 *  cpu-time:     0 d,  0 h,  0 min,  0.233 sec
 * ratio c/w:     1.588 speedup
 analytical hessian:
 * wall-time:     0 d,  0 h,  0 min,  0.276 sec
 *  cpu-time:     0 d,  0 h,  0 min,  0.521 sec
 * ratio c/w:     1.892 speedup

