15
 energy: -19.606797589230 gnorm: 0.127999933965 xtb: 6.7.1 (edcfbbe)
C           -4.85196200000000       -2.75824100000000        2.22392800000000
C           -5.92088700000000       -3.38432500000000        3.05430100000000
H           -5.11375500000000       -1.72701900000000        1.96636000000000
H           -3.91519200000000       -2.73189300000000        2.79098400000000
H           -4.66163400000000       -3.32484400000000        1.30693400000000
C           -7.21495100000000       -3.76652200000000        2.56198400000000
H           -5.74138500000000       -3.49611300000000        4.11660500000000
H           -8.37028000000000       -3.63823900000000        4.34770500000000
C           -8.29802600000000       -4.28167600000000        3.46124700000000
H           -9.28245000000000       -4.23548400000000        2.97569200000000
C           -8.04770900000000       -5.71658200000000        3.91170700000000
O           -7.47095700000000       -3.57619800000000        1.35252600000000
H           -7.10900200000000       -5.80289100000000        4.46901400000000
H           -8.85770900000000       -6.05063200000000        4.56789800000000
H           -8.00207300000000       -6.39880800000000        3.05643800000000
15
 energy: -19.616933872571 gnorm: 0.049234504630 xtb: 6.7.1 (edcfbbe)
C           -4.87118358766602       -2.77401962089622        2.24228467799373
C           -5.95882385802053       -3.39237384943114        3.06713179428902
H           -5.11432929595190       -1.74281244015115        1.95596863495931
H           -3.93138232276528       -2.75090000797621        2.80057662353629
H           -4.70047599534631       -3.32758672597463        1.31402458068715
C           -7.19963466297280       -3.72057886920818        2.54916493513593
H           -5.77890866248176       -3.51113015833788        4.13120069475757
H           -8.34949783080024       -3.63519427372971        4.36484230740932
C           -8.26970074961496       -4.27516831025412        3.47718659413666
H           -9.23434588632516       -4.22509049465574        2.95496420839362
C           -8.03782275080329       -5.71763263156427        3.91966399667948
O           -7.47619631192173       -3.58560375831583        1.30233334240787
H           -7.09768530078487       -5.79768005045020        4.46359241421776
H           -8.84926838911467       -6.05609216212446        4.56749452273953
H           -7.98871639543048       -6.37760364693026        3.05289367265677
15
 energy: -19.618621555274 gnorm: 0.011694964062 xtb: 6.7.1 (edcfbbe)
C           -4.87950273034228       -2.78376564520633        2.25724402602841
C           -5.98857072962634       -3.38826317108632        3.07019252288099
H           -5.11482109987706       -1.75379094707470        1.95636469113740
H           -3.94203153103275       -2.77053593125773        2.81449542135482
H           -4.73185085382996       -3.34535871769426        1.32987685425754
C           -7.18148754485103       -3.72468963020762        2.53942292528311
H           -5.81731611663777       -3.49806556640263        4.13520035491012
H           -8.32196998721726       -3.62806582372585        4.37171578125541
C           -8.26111415713075       -4.26933860614120        3.48584401490673
H           -9.21697844557788       -4.20407379027767        2.95147850244811
C           -8.02188013715721       -5.71410137468016        3.91555136768275
O           -7.49336501661115       -3.60427464969024        1.28424350946702
H           -7.07888956536276       -5.79460865521652        4.44987011752796
H           -8.83077556925764       -6.05161362217404        4.56181141749589
H           -7.97741851548815       -6.35892086916471        3.04001149336373
15
 energy: -19.618856659454 gnorm: 0.006544041845 xtb: 6.7.1 (edcfbbe)
C           -4.87568009909187       -2.79014859569735        2.26061595006164
C           -5.99592822226507       -3.37674573520007        3.07303857567823
H           -5.09921244888641       -1.75771886595716        1.96183672799223
H           -3.93934394428654       -2.79141787850251        2.81781808330067
H           -4.74153580477076       -3.35782445434244        1.33511242224533
C           -7.19112760881969       -3.71563282054494        2.53732371351305
H           -5.83225914087381       -3.48176993003186        4.13924113205296
H           -8.32490708757050       -3.62716097010931        4.37225290512319
C           -8.26969098104331       -4.26711114315463        3.48601222001856
H           -9.22639638624566       -4.20591748939314        2.95708596632884
C           -8.01348694564462       -5.70997501073307        3.91075251389679
O           -7.50400801506911       -3.61576672001332        1.27997177145241
H           -7.06568702093443       -5.78156291402588        4.43889272942400
H           -8.81333182637232       -6.06069014066998        4.56139404076235
H           -7.96537646812588       -6.35002433162434        3.03197424814971
15
 energy: -19.619065440934 gnorm: 0.004957033304 xtb: 6.7.1 (edcfbbe)
C           -4.87337728316831       -2.79830026781805        2.26490998259155
C           -6.00925133512626       -3.36077161922233        3.07507300015303
H           -5.06956614062775       -1.75914957148625        1.97324554308834
H           -3.93873213101244       -2.82954554312359        2.82260039718868
H           -4.75852795192498       -3.36972331039527        1.34003025759154
C           -7.20103373968190       -3.71355083504415        2.53223479132796
H           -5.86286138909933       -3.45002720781751        4.14484759824654
H           -8.32528871038359       -3.62436256065913        4.37566084094253
C           -8.27957860587937       -4.26266362647824        3.48856214063366
H           -9.23835729083624       -4.20540628213970        2.96794077540497
C           -8.00185305111783       -5.70393333226008        3.90301858226553
O           -7.51507980653724       -3.63841406379560        1.27495644543525
H           -7.04642216134257       -5.76263166486783        4.42051210151743
H           -8.78769945950066       -6.07435610627728        4.56066444086696
H           -7.95034294376152       -6.33663100861500        3.01906610274600
15
 energy: -19.619238657433 gnorm: 0.005923731499 xtb: 6.7.1 (edcfbbe)
C           -4.87318288197153       -2.80767346999217        2.26940581487322
C           -6.02666297351924       -3.34069437422401        3.07577129143028
H           -5.02818396709511       -1.75693057906370        1.99249412766416
H           -3.93832867809358       -2.88351990084179        2.82528100835613
H           -4.78488435163481       -3.37559471141255        1.33990222212017
C           -7.21177617608596       -3.71010245117542        2.52814174967483
H           -5.89997568237416       -3.40470464134864        4.15020649002978
H           -8.32760440149598       -3.62230575526860        4.38142091364246
C           -8.28787378745642       -4.25763922269294        3.49278587444333
H           -9.25004922793410       -4.20570027700525        2.98004316711520
C           -7.98828179606092       -5.69774580570371        3.89479523632822
O           -7.52065540211709       -3.67193526055691        1.26950487537807
H           -7.02599167341874       -5.74447280425472        4.40153483298992
H           -8.76025018863351       -6.08897510462721        4.55758150009012
H           -7.93427081210883       -6.32147264183241        3.00445389586404
15
 energy: -19.619424958637 gnorm: 0.006432953276 xtb: 6.7.1 (edcfbbe)
C           -4.87568340097583       -2.81674886860656        2.27434976137750
C           -6.04530877640485       -3.31748061877127        3.07576560670973
H           -4.97598924866976       -1.75016954484742        2.02476181649863
H           -3.93873946175640       -2.95362420869659        2.82209640986015
H           -4.82420299339676       -3.36897210550965        1.33222217037331
C           -7.22037983781078       -3.71228141262202        2.52401134646402
H           -5.93994406286661       -3.34175307175391        4.15575639585749
H           -8.32816089479715       -3.62127893894528        4.38834298026559
C           -8.29314215380483       -4.25309694487424        3.49747943520336
H           -9.26043667404966       -4.20582333775144        2.99314968495711
C           -7.97531954146555       -5.69237372688216        3.88661339757150
O           -7.51772595824563       -3.71823830737280        1.26386227372666
H           -7.00755651393983       -5.72963638903256        4.38319658239142
H           -8.73488888499883       -6.10168266281904        4.55234275405068
H           -7.92049359681751       -6.30630686151507        2.98937238469276
15
 energy: -19.619644190170 gnorm: 0.007515636478 xtb: 6.7.1 (edcfbbe)
C           -4.88032803764823       -2.82203112060421        2.27821790521595
C           -6.05941960860104       -3.29567228547155        3.07536639039797
H           -4.92540251786975       -1.74083126490173        2.06671563047155
H           -3.94071488385229       -3.02282459648380        2.80859163762601
H           -4.86923158346871       -3.34411756846544        1.31646676953069
C           -7.22242009075681       -3.72014158355881        2.52284983503450
H           -5.97093970007996       -3.27335730797301        4.15878055561469
H           -8.32471496379672       -3.62151651488973        4.39469367566382
C           -8.29274268404918       -4.25048836083928        3.50173227015445
H           -9.26514721693230       -4.20416361239386        3.00383384922785
C           -7.96885835027148       -5.69048824281170        3.88093033734179
O           -7.50130916753393       -3.77335852215731        1.26038152740120
H           -6.99863330379207       -5.72548485141072        4.37084044619637
H           -8.72202261592011       -6.10886627137783        4.54603648857729
H           -7.91608727542737       -6.29612489666102        2.97788568154579
15
 energy: -19.619933800636 gnorm: 0.008857117377 xtb: 6.7.1 (edcfbbe)
C           -4.88600272270542       -2.81909835991175        2.27913094569336
C           -6.06437276358941       -3.27754533853604        3.07538916855495
H           -4.88850584283185       -1.73094269553278        2.10872670904577
H           -3.94502792872676       -3.07174068034051        2.78230295409820
H           -4.90949163249348       -3.30015721614338        1.29634108787372
C           -7.21376449094620       -3.73596468774902        2.52625325025909
H           -5.98322121055532       -3.21099714108422        4.15746131789936
H           -8.31324410453160       -3.62408430831112        4.39971423379294
C           -8.28445042300974       -4.25135762373650        3.50478425434611
H           -9.26055703668375       -4.19757584260969        3.00973673245128
C           -7.97468020303668       -5.69520044318192        3.87973932013884
O           -7.46877835273395       -3.83034878830224        1.26171003705179
H           -7.00545287713621       -5.74054972181689        4.36802307865594
H           -8.73138509913520       -6.10788960588612        4.54083127470505
H           -7.92903731188439       -6.29601454685782        2.97317863543353
15
 energy: -19.620186842604 gnorm: 0.013129753288 xtb: 6.7.1 (edcfbbe)
C           -4.88864296401636       -2.80767262668393        2.27855266380170
C           -6.07133025196879       -3.24523698225501        3.07821410699093
H           -4.83771705115869       -1.71067977403707        2.15974122819097
H           -3.94442435275628       -3.13251910428099        2.74309859600185
H           -4.96274213396638       -3.24421300397227        1.27438888116732
C           -7.20105595763394       -3.75404573262001        2.53083836645026
H           -5.99791575216854       -3.13570168207176        4.15640345246011
H           -8.29415650402110       -3.62831835678165        4.40432527699230
C           -8.27495781301724       -4.25442354677989        3.50775137762979
H           -9.25278303863019       -4.18738628329896        3.01523135424416
C           -7.98640784629750       -5.70498183878824        3.87944165821034
O           -7.42888444342986       -3.90757035212850        1.26148245516029
H           -7.01663194794560       -5.76703510998301        4.36548645703273
H           -8.74968738358191       -6.10804882077022        4.53877070844465
H           -7.95063455940759       -6.30163378554850        2.96959641722252
15
 energy: -19.620467334772 gnorm: 0.011130263131 xtb: 6.7.1 (edcfbbe)
C           -4.88719758137359       -2.78135817824122        2.26967633459420
C           -6.06248848979657       -3.22006235030285        3.08169981631567
H           -4.81968506258948       -1.69489373067699        2.18538393245640
H           -3.94695124184963       -3.13753317463044        2.69040809627870
H           -4.98783398611591       -3.17937715648882        1.26043870864224
C           -7.17261830182935       -3.77843298684862        2.54212482991997
H           -5.98439647616132       -3.08667791462265        4.14988456545472
H           -8.26105293062371       -3.63920054339803        4.40609916460606
C           -8.25588757351878       -4.26459026623922        3.50772781969718
H           -9.23051205654295       -4.16953258922148        3.01207576099382
C           -8.01804873801847       -5.72696874205913        3.88569458116916
O           -7.37700533286051       -3.96099884371363        1.27285000538026
H           -7.05252637672040       -5.82481061299920        4.37912590085021
H           -8.80384319884139       -6.09699903274347        4.54183146285645
H           -7.99792465315790       -6.32803087781424        2.97830202078493
15
 energy: -19.620633423168 gnorm: 0.012350243203 xtb: 6.7.1 (edcfbbe)
C           -4.88550512316371       -2.76528745142208        2.26467057126743
C           -6.06329255639559       -3.19703376768824        3.07956136770031
H           -4.77208833663529       -1.67057153004008        2.23976146166554
H           -3.94624791222164       -3.19292102241376        2.64893740736350
H           -5.03785068864116       -3.11795503587420        1.23718467685679
C           -7.15437928935249       -3.80134766475008        2.54273467921505
H           -6.00471132410338       -3.01895424335219        4.14899642419017
H           -8.23605519037233       -3.64694784415149        4.40745329808072
C           -8.24638447068825       -4.27069103465971        3.50836780663242
H           -9.21923661692261       -4.15959689382689        3.01539444241648
C           -8.03307036445475       -5.73751595696488        3.88644202596410
O           -7.34098692777737       -4.02646240869245        1.27647293293872
H           -7.07065868858212       -5.85118400277884        4.38374789610970
H           -8.82654979822433       -6.09274825455054        4.54311151292029
H           -8.02095471246494       -6.34024988883458        2.98048649667878
15
 energy: -19.620772851978 gnorm: 0.005844151135 xtb: 6.7.1 (edcfbbe)
C           -4.88241995665063       -2.76413484817833        2.26262760812318
C           -6.05839958390043       -3.21338562471331        3.07449459603338
H           -4.78613967846213       -1.67075511737711        2.23264280191805
H           -3.94618946034419       -3.17325246544839        2.65664301149188
H           -5.02261785089673       -3.12437982601712        1.24154429616516
C           -7.15472378040717       -3.79637416852350        2.53964078124759
H           -6.00440111999324       -3.05185672991921        4.14659393294182
H           -8.23934483753401       -3.64666297380533        4.40681541428989
C           -8.24894432029991       -4.26990649066200        3.50905989778020
H           -9.21803971320223       -4.16170239239330        3.01398397299914
C           -8.03161681196508       -5.73318454364437        3.88710423952358
O           -7.35263563287915       -4.01271798613759        1.27563248706832
H           -7.07289515541277       -5.84303833074389        4.38912709416218
H           -8.82358994953986       -6.08918630456107        4.54395552844939
H           -8.01601414851243       -6.33892919787549        2.98345733780624
15
 energy: -19.620844423996 gnorm: 0.004732239624 xtb: 6.7.1 (edcfbbe)
C           -4.88092228937505       -2.75472562215011        2.26029235302666
C           -6.05482452391049       -3.20929506195682        3.07434264749218
H           -4.77976855572200       -1.66370002553032        2.24894765281070
H           -3.94479295913596       -3.17624584895454        2.63752190332305
H           -5.03356443478790       -3.09668288295596        1.23576592483988
C           -7.14469019581546       -3.80776143651500        2.53940208970429
H           -6.00577065284118       -3.04482063086760        4.14499488720923
H           -8.22877245270323       -3.64787649987999        4.40883563015141
C           -8.24391350077856       -4.27140809318393        3.51177623325713
H           -9.21058916114949       -4.15329208425748        3.01489617345403
C           -8.04069154952774       -5.73625477962936        3.88862071907762
O           -7.33807588560474       -4.04358915486729        1.27695275137606
H           -7.08445127738879       -5.85636214946277        4.39349226868745
H           -8.83781265513593       -6.08549147681742        4.54316530048895
H           -8.02933190612348       -6.34196125297142        2.98431646510137
15
 energy: -19.620897472007 gnorm: 0.003115340786 xtb: 6.7.1 (edcfbbe)
C           -4.87958021565865       -2.74217989466574        2.25672609650711
C           -6.04919094267378       -3.20669345854107        3.07251195825997
H           -4.76793050390620       -1.65179037296890        2.27910279514056
H           -3.94102313330887       -3.18688609729741        2.60622329046311
H           -5.05167431519954       -3.05227300547483        1.22414616211791
C           -7.13156374977181       -3.82296574760721        2.53890640945628
H           -6.00648102565812       -3.03585740826959        4.14129411730405
H           -8.21658508990688       -3.65003934203034        4.40671332803130
C           -8.23700886942696       -4.27575813663898        3.51184888955139
H           -9.20050078736707       -4.14475295228258        3.01143781954927
C           -8.05373076971880       -5.74111446871988        3.89337409537483
O           -7.31805735291258       -4.07728542125141        1.28258138578457
H           -7.10188936782539       -5.87189129829445        4.40475877389340
H           -8.85955374861219       -6.08104657870581        4.54315835831658
H           -8.04320212805314       -6.34893281725182        2.99053952024970
15
 energy: -19.620916153013 gnorm: 0.002724184595 xtb: 6.7.1 (edcfbbe)
C           -4.88001249588434       -2.73701855232308        2.25469736528336
C           -6.04613339670161       -3.20610783020303        3.07182497445118
H           -4.76072177647111       -1.64810826357180        2.29706700401946
H           -3.94012712847147       -3.19172172796993        2.58520139578337
H           -5.06114961831838       -3.02586372681465        1.21869247205843
C           -7.12432402524893       -3.83135043879687        2.54032598414648
H           -6.00819631825019       -3.01988242834894        4.14164909857866
H           -8.20744172922039       -3.65024051225807        4.40886563906927
C           -8.23223110489558       -4.27664853085281        3.51408654599021
H           -9.19514355902872       -4.13723281201347        3.01314071644665
C           -8.06178063283402       -5.74407711924440        3.89420023209125
O           -7.30341571567153       -4.10775808574558        1.28585782558760
H           -7.11188073945395       -5.88356110871795        4.40763484888510
H           -8.87225781240866       -6.07976609831155        4.54037500672536
H           -8.05315594714108       -6.35012976482789        2.98970389088364
15
 energy: -19.620925094614 gnorm: 0.000812388263 xtb: 6.7.1 (edcfbbe)
C           -4.88084037551480       -2.73719052307243        2.25518457904905
C           -6.04541944087347       -3.20935119988013        3.07147250021963
H           -4.76377611047029       -1.64908725812996        2.29781962903814
H           -3.93968850645110       -3.18818543550590        2.58431457806413
H           -5.05983021554249       -3.02414515707981        1.21940486433307
C           -7.12500570358186       -3.83144413102858        2.54020435361914
H           -6.00381682727096       -3.02825268074639        4.13990324356042
H           -8.20929143218215       -3.64907449661255        4.40778682619849
C           -8.23236257508531       -4.27638456426703        3.51332587266267
H           -9.19539152027219       -4.13874067888994        3.01199839923010
C           -8.06167553155183       -5.74312842556762        3.89481211176203
O           -7.30405289769748       -4.10543800340069        1.28692306821295
H           -7.11305705206591       -5.88118926644085        4.41004711503638
H           -8.87299322363172       -6.07837222604264        4.53940089360659
H           -8.05077058780843       -6.34948295333549        2.99072496540726
15
 energy: -19.620926490501 gnorm: 0.001372314586 xtb: 6.7.1 (edcfbbe)
C           -4.88111271748234       -2.73678956095610        2.25498001483573
C           -6.04623068915782       -3.20813410149266        3.07085400028969
H           -4.75861434830715       -1.64835312699750        2.30508930855612
H           -3.94041158961561       -3.19496088580188        2.58009907666431
H           -5.06561150008135       -3.01703027288745        1.21710440114377
C           -7.12411069742190       -3.83293586328543        2.54055449992280
H           -6.00552493839011       -3.02347887474193        4.13851291962212
H           -8.20842322511923       -3.64935924712929        4.40791843532528
C           -8.23196794965908       -4.27622046996740        3.51317099022757
H           -9.19502623321928       -4.13922568166591        3.01245168765761
C           -8.06186272564225       -5.74316863318792        3.89463096322548
O           -7.30058301267697       -4.11188905847289        1.28776837532898
H           -7.11451610966514       -5.88142467339857        4.41151280633484
H           -8.87406964432371       -6.07736730759425        4.53818547019260
H           -8.04990661923802       -6.34912924242083        2.99049005067312
15
 energy: -19.620928201663 gnorm: 0.001058122847 xtb: 6.7.1 (edcfbbe)
C           -4.88113335658476       -2.73798188383181        2.25483081386925
C           -6.04709327379374       -3.20713396822093        3.07111461694143
H           -4.75740277782015       -1.65030299228658        2.30389066860003
H           -3.94127018849120       -3.19632246776560        2.58071109050788
H           -5.06534315461375       -3.01893334075510        1.21816496907167
C           -7.12468619199567       -3.83321913560251        2.54053695366868
H           -6.00751685791945       -3.01915723162835        4.13943285040328
H           -8.20818524791407       -3.64952677149840        4.40857410626363
C           -8.23223371933800       -4.27589678930989        3.51341962737227
H           -9.19580912331942       -4.13912344812516        3.01360760772476
C           -8.06097621537603       -5.74311038312587        3.89401754625151
O           -7.30142566898627       -4.11137683356876        1.28815955359015
H           -7.11346031900801       -5.88107286849585        4.41062596570899
H           -8.87284916067094       -6.07842687745985        4.53718100946078
H           -8.04858674416850       -6.34788200832535        2.98905562056573
15
 energy: -19.620929450610 gnorm: 0.000498778004 xtb: 6.7.1 (edcfbbe)
C           -4.88118617122289       -2.73816563340442        2.25468257578652
C           -6.04744023703749       -3.20622318727854        3.07137599141309
H           -4.75674216140121       -1.65112826124220        2.30347559214974
H           -3.94183095959685       -3.19690504037842        2.58035958970831
H           -5.06524367307018       -3.01882722174756        1.21829937628831
C           -7.12505054647525       -3.83210528720285        2.54119721257885
H           -6.00734815745231       -3.01973396737034        4.13907856364781
H           -8.20921038515408       -3.64921569757901        4.40871068388785
C           -8.23245345187348       -4.27565192453903        3.51373161481698
H           -9.19597016920522       -4.13891014702405        3.01334031451710
C           -8.06074279016843       -5.74305987134014        3.89417439407872
O           -7.30129609300687       -4.11176353982623        1.28849092786124
H           -7.11317747821907       -5.88076021105662        4.41110634675098
H           -8.87305057843905       -6.07965595436025        4.53639472326922
H           -8.04722914767756       -6.34736105565035        2.98890509324530
