
                                 *****************
                                 * O   R   C   A *
                                 *****************

                                            #,                                       
                                            ###                                      
                                            ####                                     
                                            #####                                    
                                            ######                                   
                                           ########,                                 
                                     ,,################,,,,,                         
                               ,,#################################,,                 
                          ,,##########################################,,             
                       ,#########################################, ''#####,          
                    ,#############################################,,   '####,        
                  ,##################################################,,,,####,       
                ,###########''''           ''''###############################       
              ,#####''   ,,,,##########,,,,          '''####'''          '####       
            ,##' ,,,,###########################,,,                        '##       
           ' ,,###''''                  '''############,,,                           
         ,,##''                                '''############,,,,        ,,,,,,###''
      ,#''                                            '''#######################'''  
     '                                                          ''''####''''         
             ,#######,   #######,   ,#######,      ##                                
            ,#'     '#,  ##    ##  ,#'     '#,    #''#        ######   ,####,        
            ##       ##  ##   ,#'  ##            #'  '#       #        #'  '#        
            ##       ##  #######   ##           ,######,      #####,   #    #        
            '#,     ,#'  ##    ##  '#,     ,#' ,#      #,         ##   #,  ,#        
             '#######'   ##     ##  '#######'  #'      '#     #####' # '####'        



                  #######################################################
                  #                        -***-                        #
                  #          Department of theory and spectroscopy      #
                  #    Directorship and core code : Frank Neese         #
                  #        Max Planck Institute fuer Kohlenforschung    #
                  #                Kaiser Wilhelm Platz 1               #
                  #                 D-45470 Muelheim/Ruhr               #
                  #                      Germany                        #
                  #                                                     #
                  #                  All rights reserved                #
                  #                        -***-                        #
                  #######################################################


                         Program Version 5.0.4 -  RELEASE  -


 With contributions from (in alphabetic order):
   Daniel Aravena         : Magnetic Suceptibility
   Michael Atanasov       : Ab Initio Ligand Field Theory (pilot matlab implementation)
   Alexander A. Auer      : GIAO ZORA, VPT2 properties, NMR spectrum
   Ute Becker             : Parallelization
   Giovanni Bistoni       : ED, misc. LED, open-shell LED, HFLD
   Martin Brehm           : Molecular dynamics
   Dmytro Bykov           : SCF Hessian
   Vijay G. Chilkuri      : MRCI spin determinant printing, contributions to CSF-ICE
   Dipayan Datta          : RHF DLPNO-CCSD density
   Achintya Kumar Dutta   : EOM-CC, STEOM-CC
   Dmitry Ganyushin       : Spin-Orbit,Spin-Spin,Magnetic field MRCI
   Miquel Garcia          : C-PCM and meta-GGA Hessian, CC/C-PCM, Gaussian charge scheme
   Yang Guo               : DLPNO-NEVPT2, F12-NEVPT2, CIM, IAO-localization
   Andreas Hansen         : Spin unrestricted coupled pair/coupled cluster methods
   Benjamin Helmich-Paris : MC-RPA, TRAH-SCF, COSX integrals
   Lee Huntington         : MR-EOM, pCC
   Robert Izsak           : Overlap fitted RIJCOSX, COSX-SCS-MP3, EOM
   Marcus Kettner         : VPT2
   Christian Kollmar      : KDIIS, OOCD, Brueckner-CCSD(T), CCSD density, CASPT2, CASPT2-K
   Simone Kossmann        : Meta GGA functionals, TD-DFT gradient, OOMP2, MP2 Hessian
   Martin Krupicka        : Initial AUTO-CI
   Lucas Lang             : DCDCAS
   Marvin Lechner         : AUTO-CI (C++ implementation), FIC-MRCC
   Dagmar Lenk            : GEPOL surface, SMD
   Dimitrios Liakos       : Extrapolation schemes; Compound Job, initial MDCI parallelization
   Dimitrios Manganas     : Further ROCIS development; embedding schemes
   Dimitrios Pantazis     : SARC Basis sets
   Anastasios Papadopoulos: AUTO-CI, single reference methods and gradients
   Taras Petrenko         : DFT Hessian,TD-DFT gradient, ASA, ECA, R-Raman, ABS, FL, XAS/XES, NRVS
   Peter Pinski           : DLPNO-MP2, DLPNO-MP2 Gradient
   Christoph Reimann      : Effective Core Potentials
   Marius Retegan         : Local ZFS, SOC
   Christoph Riplinger    : Optimizer, TS searches, QM/MM, DLPNO-CCSD(T), (RO)-DLPNO pert. Triples
   Tobias Risthaus        : Range-separated hybrids, TD-DFT gradient, RPA, STAB
   Michael Roemelt        : Original ROCIS implementation
   Masaaki Saitow         : Open-shell DLPNO-CCSD energy and density
   Barbara Sandhoefer     : DKH picture change effects
   Avijit Sen             : IP-ROCIS
   Kantharuban Sivalingam : CASSCF convergence, NEVPT2, FIC-MRCI
   Bernardo de Souza      : ESD, SOC TD-DFT
   Georgi Stoychev        : AutoAux, RI-MP2 NMR, DLPNO-MP2 response
   Willem Van den Heuvel  : Paramagnetic NMR
   Boris Wezisla          : Elementary symmetry handling
   Frank Wennmohs         : Technical directorship


 We gratefully acknowledge several colleagues who have allowed us to
 interface, adapt or use parts of their codes:
   Stefan Grimme, W. Hujo, H. Kruse, P. Pracht,  : VdW corrections, initial TS optimization,
                  C. Bannwarth, S. Ehlert          DFT functionals, gCP, sTDA/sTD-DF
   Ed Valeev, F. Pavosevic, A. Kumar             : LibInt (2-el integral package), F12 methods
   Garnet Chan, S. Sharma, J. Yang, R. Olivares  : DMRG
   Ulf Ekstrom                                   : XCFun DFT Library
   Mihaly Kallay                                 : mrcc  (arbitrary order and MRCC methods)
   Jiri Pittner, Ondrej Demel                    : Mk-CCSD
   Frank Weinhold                                : gennbo (NPA and NBO analysis)
   Christopher J. Cramer and Donald G. Truhlar   : smd solvation model
   Lars Goerigk                                  : TD-DFT with DH, B97 family of functionals
   V. Asgeirsson, H. Jonsson                     : NEB implementation
   FAccTs GmbH                                   : IRC, NEB, NEB-TS, DLPNO-Multilevel, CI-OPT
                                                   MM, QMMM, 2- and 3-layer-ONIOM, Crystal-QMMM,
                                                   LR-CPCM, SF, NACMEs, symmetry and pop. for TD-DFT,
                                                   nearIR, NL-DFT gradient (VV10), updates on ESD,
                                                   ML-optimized integration grids
   S Lehtola, MJT Oliveira, MAL Marques          : LibXC Library
   Liviu Ungur et al                             : ANISO software


 Your calculation uses the libint2 library for the computation of 2-el integrals
 For citations please refer to: http://libint.valeyev.net

 Your ORCA version has been built with support for libXC version: 5.1.0
 For citations please refer to: https://tddft.org/programs/libxc/

 This ORCA versions uses:
   CBLAS   interface :  Fast vector & matrix operations
   LAPACKE interface :  Fast linear algebra routines
   SCALAPACK package :  Parallel linear algebra routines
   Shared memory     :  Shared parallel matrices
   BLAS/LAPACK       :  OpenBLAS 0.3.15  USE64BITINT DYNAMIC_ARCH NO_AFFINITY Haswell SINGLE_THREADED
        Core in use  :  Haswell
   Copyright (c) 2011-2014, The OpenBLAS Project


Your calculation utilizes the atom-pairwise dispersion correction
with the Becke-Johnson damping scheme (D3BJ)
Cite in your paper:
S.Grimme, S.Ehrlich, L.Goerigk, J Comput Chem, (2011), 32, 1456–1465 
S.Grimme, J.Antony, S.Ehrlich and H.Krieg, J.Chem.Phys., 132, (2010), 154104 
   

================================================================================

----- Orbital basis set information -----
Your calculation utilizes the basis: def2-TZVP
   F. Weigend and R. Ahlrichs, Phys. Chem. Chem. Phys. 7, 3297 (2005).

----- AuxJ basis set information -----
Your calculation utilizes the auxiliary basis: def2/J
   F. Weigend, Phys. Chem. Chem. Phys. 8, 1057 (2006).

================================================================================
                                        WARNINGS
                       Please study these warnings very carefully!
================================================================================


WARNING: Geometry Optimization
  ===> : Switching off AutoStart
         For restart on a previous wavefunction, please use MOREAD

INFO   : the flag for use of the SHARK integral package has been found!

================================================================================
                                       INPUT FILE
================================================================================
NAME = inp.inp
|  1> !OPT PBE D3BJ def2-TZVP CPCM(water)
|  2> 
|  3> *xyz -1 1
|  4> C     -3.790873   -3.915288   -2.859790
|  5> C     -4.268123   -2.451639   -2.934392
|  6> O     -3.212619   -1.688049   -2.704699
|  7> H     -4.635407   -4.599774   -3.003980
|  8> C     -5.317258   -2.207753   -1.819293
|  9> H     -4.809351   -2.368257   -3.888180
| 10> H     -3.055097   -4.138511   -3.643244
| 11> C     -6.020514   -0.856422   -1.930185
| 12> H     -3.335487   -4.159480   -1.890841
| 13> H     -6.088612   -2.987090   -1.883029
| 14> H     -4.871821   -2.300455   -0.818569
| 15> H     -6.490114   -0.738839   -2.912056
| 16> H     -6.804092   -0.778997   -1.169471
| 17> H     -5.324476   -0.025998   -1.777232
| 18> *
| 19> 
| 20>                          ****END OF INPUT****
================================================================================

                       *****************************
                       * Geometry Optimization Run *
                       *****************************

Geometry optimization settings:
Update method            Update   .... BFGS
Choice of coordinates    CoordSys .... Z-matrix Internals
Initial Hessian          InHess   .... Almoef's Model

Convergence Tolerances:
Energy Change            TolE     ....  5.0000e-06 Eh
Max. Gradient            TolMAXG  ....  3.0000e-04 Eh/bohr
RMS Gradient             TolRMSG  ....  1.0000e-04 Eh/bohr
Max. Displacement        TolMAXD  ....  4.0000e-03 bohr
RMS Displacement         TolRMSD  ....  2.0000e-03 bohr
Strict Convergence                ....  False
------------------------------------------------------------------------------
                        ORCA OPTIMIZATION COORDINATE SETUP
------------------------------------------------------------------------------

The optimization will be done in new redundant internal coordinates
Making redundant internal coordinates   ...  (new redundants) done
Evaluating the initial hessian          ...  (Almloef) done
Evaluating the coordinates              ...  done
Calculating the B-matrix                .... done
Calculating the G-matrix                .... done
Diagonalizing the G-matrix              .... done
The first mode is                       ....   28
The number of degrees of freedom        ....   36

    -----------------------------------------------------------------
                    Redundant Internal Coordinates


    -----------------------------------------------------------------
         Definition                    Initial Value    Approx d2E/dq
    -----------------------------------------------------------------
      1. B(C   1,C   0)                  1.5413         0.358386   
      2. B(O   2,C   1)                  1.3228         0.716173   
      3. B(H   3,C   0)                  1.0966         0.351463   
      4. B(C   4,C   1)                  1.5504         0.346655   
      5. B(H   5,C   1)                  1.0998         0.347348   
      6. B(H   6,C   0)                  1.0977         0.350027   
      7. B(C   7,C   4)                  1.5274         0.377155   
      8. B(H   8,C   0)                  1.0981         0.349516   
      9. B(H   9,C   4)                  1.0984         0.349197   
     10. B(H  10,C   4)                  1.0993         0.348007   
     11. B(H  11,C   7)                  1.0947         0.353905   
     12. B(H  12,C   7)                  1.0948         0.353754   
     13. B(H  13,C   7)                  1.0943         0.354471   
     14. A(H   3,C   0,H   8)          107.2529         0.288383   
     15. A(H   3,C   0,H   6)          107.1832         0.288449   
     16. A(H   6,C   0,H   8)          107.8530         0.288198   
     17. A(C   1,C   0,H   8)          112.4753         0.320550   
     18. A(C   1,C   0,H   3)          110.3595         0.320841   
     19. A(C   1,C   0,H   6)          111.4757         0.320626   
     20. A(C   4,C   1,H   5)          106.1896         0.318489   
     21. A(O   2,C   1,H   5)          119.9652         0.357223   
     22. A(C   0,C   1,C   4)          108.9115         0.356224   
     23. A(C   0,C   1,O   2)          107.0187         0.401328   
     24. A(O   2,C   1,C   4)          108.9204         0.398984   
     25. A(C   0,C   1,H   5)          105.4471         0.320224   
     26. A(C   7,C   4,H   9)          107.4690         0.323192   
     27. A(C   1,C   4,H   9)          108.7765         0.318764   
     28. A(C   1,C   4,C   7)          113.4863         0.359329   
     29. A(H   9,C   4,H  10)          106.1141         0.287896   
     30. A(C   7,C   4,H  10)          109.1028         0.323011   
     31. A(C   1,C   4,H  10)          111.5486         0.318587   
     32. A(H  12,C   7,H  13)          107.7250         0.289313   
     33. A(H  11,C   7,H  13)          108.4638         0.289333   
     34. A(C   4,C   7,H  13)          111.6160         0.323988   
     35. A(H  11,C   7,H  12)          107.9738         0.289241   
     36. A(C   4,C   7,H  12)          109.9773         0.323880   
     37. A(C   4,C   7,H  11)          110.9561         0.323903   
     38. D(C   4,C   1,C   0,H   8)    -59.5556         0.010311   
     39. D(H   5,C   1,C   0,H   6)     65.5540         0.010311   
     40. D(O   2,C   1,C   0,H   6)    -63.2388         0.010311   
     41. D(H   5,C   1,C   0,H   3)    -53.4336         0.010311   
     42. D(O   2,C   1,C   0,H   3)    177.7737         0.010311   
     43. D(C   4,C   1,C   0,H   6)    179.1597         0.010311   
     44. D(H   5,C   1,C   0,H   8)   -173.1614         0.010311   
     45. D(C   4,C   1,C   0,H   3)     60.1722         0.010311   
     46. D(O   2,C   1,C   0,H   8)     58.0458         0.010311   
     47. D(H   9,C   4,C   1,O   2)   -167.8674         0.009697   
     48. D(C   7,C   4,C   1,H   5)    -57.9242         0.009697   
     49. D(C   7,C   4,C   1,O   2)     72.5663         0.009697   
     50. D(C   7,C   4,C   1,C   0)   -171.0430         0.009697   
     51. D(H   9,C   4,C   1,H   5)     61.6420         0.009697   
     52. D(H  10,C   4,C   1,H   5)    178.3493         0.009697   
     53. D(H  10,C   4,C   1,O   2)    -51.1602         0.009697   
     54. D(H  10,C   4,C   1,C   0)     65.2305         0.009697   
     55. D(H   9,C   4,C   1,C   0)    -51.4767         0.009697   
     56. D(H  13,C   7,C   4,H   9)    174.4671         0.011346   
     57. D(H  13,C   7,C   4,C   1)    -65.2236         0.011346   
     58. D(H  12,C   7,C   4,H  10)    -59.6777         0.011346   
     59. D(H  12,C   7,C   4,H   9)     54.9626         0.011346   
     60. D(H  12,C   7,C   4,C   1)    175.2719         0.011346   
     61. D(H  11,C   7,C   4,H  10)   -179.0722         0.011346   
     62. D(H  11,C   7,C   4,H   9)    -64.4318         0.011346   
     63. D(H  13,C   7,C   4,H  10)     59.8267         0.011346   
     64. D(H  11,C   7,C   4,C   1)     55.8775         0.011346   
    -----------------------------------------------------------------

Number of atoms                         .... 14
Number of degrees of freedom            .... 64

         *************************************************************
         *                GEOMETRY OPTIMIZATION CYCLE   1            *
         *************************************************************
---------------------------------
CARTESIAN COORDINATES (ANGSTROEM)
---------------------------------
  C     -3.790873   -3.915288   -2.859790
  C     -4.268123   -2.451639   -2.934392
  O     -3.212619   -1.688049   -2.704699
  H     -4.635407   -4.599774   -3.003980
  C     -5.317258   -2.207753   -1.819293
  H     -4.809351   -2.368257   -3.888180
  H     -3.055097   -4.138511   -3.643244
  C     -6.020514   -0.856422   -1.930185
  H     -3.335487   -4.159480   -1.890841
  H     -6.088612   -2.987090   -1.883029
  H     -4.871821   -2.300455   -0.818569
  H     -6.490114   -0.738839   -2.912056
  H     -6.804092   -0.778997   -1.169471
  H     -5.324476   -0.025998   -1.777232

----------------------------
CARTESIAN COORDINATES (A.U.)
----------------------------
  NO LB      ZA    FRAG     MASS         X           Y           Z
   0 C     6.0000    0    12.011   -7.163712   -7.398822   -5.404220
   1 C     6.0000    0    12.011   -8.065584   -4.632926   -5.545197
   2 O     8.0000    0    15.999   -6.070970   -3.189950   -5.111140
   3 H     1.0000    0     1.008   -8.759650   -8.692313   -5.676700
   4 C     6.0000    0    12.011  -10.048161   -4.172049   -3.437966
   5 H     1.0000    0     1.008   -9.088356   -4.475357   -7.347595
   6 H     1.0000    0     1.008   -5.773297   -7.820652   -6.884733
   7 C     6.0000    0    12.011  -11.377123   -1.618403   -3.647521
   8 H     1.0000    0     1.008   -6.303157   -7.860278   -3.573172
   9 H     1.0000    0     1.008  -11.505809   -5.644782   -3.558409
  10 H     1.0000    0     1.008   -9.206407   -4.347230   -1.546871
  11 H     1.0000    0     1.008  -12.264538   -1.396203   -5.502988
  12 H     1.0000    0     1.008  -12.857870   -1.472091   -2.209980
  13 H     1.0000    0     1.008  -10.061801   -0.049129   -3.358482

--------------------------------
INTERNAL COORDINATES (ANGSTROEM)
--------------------------------
 C      0   0   0     0.000000000000     0.00000000     0.00000000
 C      1   0   0     1.541298613542     0.00000000     0.00000000
 O      2   1   0     1.322844381008   107.01871215     0.00000000
 H      1   2   3     1.096608187755   110.35949178   177.77366146
 C      2   1   3     1.550358155080   108.91147810   242.39854690
 H      2   1   3     1.099814463831   105.44705673   128.79278072
 H      1   2   3     1.097722642575   111.47568219   296.76118650
 C      5   2   1     1.527403518642   113.48625127   188.95702648
 H      1   2   3     1.098120351538   112.47531193    58.04580481
 H      5   2   1     1.098369441755   108.77646666   308.52325977
 H      5   2   1     1.099298096946   111.54856683    65.23053588
 H      8   5   2     1.094723975498   110.95605155    55.87749277
 H      8   5   2     1.094840126459   109.97732709   175.27191708
 H      8   5   2     1.094288598784   111.61595385   294.77637345

---------------------------
INTERNAL COORDINATES (A.U.)
---------------------------
 C      0   0   0     0.000000000000     0.00000000     0.00000000
 C      1   0   0     2.912632270186     0.00000000     0.00000000
 O      2   1   0     2.499813597902   107.01871215     0.00000000
 H      1   2   3     2.072289151073   110.35949178   177.77366146
 C      2   1   3     2.929752322592   108.91147810   242.39854690
 H      2   1   3     2.078348134766   105.44705673   128.79278072
 H      1   2   3     2.074395165470   111.47568219   296.76118650
 C      5   2   1     2.886374346222   113.48625127   188.95702648
 H      1   2   3     2.075146726491   112.47531193    58.04580481
 H      5   2   1     2.075617438785   108.77646666   308.52325977
 H      5   2   1     2.077372342769   111.54856683    65.23053588
 H      8   5   2     2.068728505929   110.95605155    55.87749277
 H      8   5   2     2.068947999435   109.97732709   175.27191708
 H      8   5   2     2.067905763174   111.61595385   294.77637345

---------------------
BASIS SET INFORMATION
---------------------
There are 3 groups of distinct atoms

 Group   1 Type C   : 11s6p2d1f contracted to 5s3p2d1f pattern {62111/411/11/1}
 Group   2 Type O   : 11s6p2d1f contracted to 5s3p2d1f pattern {62111/411/11/1}
 Group   3 Type H   : 5s1p contracted to 3s1p pattern {311/1}

Atom   0C    basis set group =>   1
Atom   1C    basis set group =>   1
Atom   2O    basis set group =>   2
Atom   3H    basis set group =>   3
Atom   4C    basis set group =>   1
Atom   5H    basis set group =>   3
Atom   6H    basis set group =>   3
Atom   7C    basis set group =>   1
Atom   8H    basis set group =>   3
Atom   9H    basis set group =>   3
Atom  10H    basis set group =>   3
Atom  11H    basis set group =>   3
Atom  12H    basis set group =>   3
Atom  13H    basis set group =>   3
---------------------------------
AUXILIARY/J BASIS SET INFORMATION
---------------------------------
There are 3 groups of distinct atoms

 Group   1 Type C   : 12s5p4d2f1g contracted to 6s4p3d1f1g pattern {711111/2111/211/2/1}
 Group   2 Type O   : 12s5p4d2f1g contracted to 6s4p3d1f1g pattern {711111/2111/211/2/1}
 Group   3 Type H   : 5s2p1d contracted to 3s1p1d pattern {311/2/1}

Atom   0C    basis set group =>   1
Atom   1C    basis set group =>   1
Atom   2O    basis set group =>   2
Atom   3H    basis set group =>   3
Atom   4C    basis set group =>   1
Atom   5H    basis set group =>   3
Atom   6H    basis set group =>   3
Atom   7C    basis set group =>   1
Atom   8H    basis set group =>   3
Atom   9H    basis set group =>   3
Atom  10H    basis set group =>   3
Atom  11H    basis set group =>   3
Atom  12H    basis set group =>   3
Atom  13H    basis set group =>   3
------------------------------------------------------------------------------
                           ORCA GTO INTEGRAL CALCULATION
                           -- RI-GTO INTEGRALS CHOSEN --
------------------------------------------------------------------------------
------------------------------------------------------------------------------
                   ___                                                        
                  /   \      - P O W E R E D   B Y -                         
                 /     \                                                     
                 |  |  |   _    _      __       _____    __    __             
                 |  |  |  | |  | |    /  \     |  _  \  |  |  /  |          
                  \  \/   | |  | |   /    \    | | | |  |  | /  /          
                 / \  \   | |__| |  /  /\  \   | |_| |  |  |/  /          
                |  |  |   |  __  | /  /__\  \  |    /   |      \           
                |  |  |   | |  | | |   __   |  |    \   |  |\   \          
                \     /   | |  | | |  |  |  |  | |\  \  |  | \   \       
                 \___/    |_|  |_| |__|  |__|  |_| \__\ |__|  \__/        
                                                                              
                      - O R C A' S   B I G   F R I E N D -                    
                                      &                                       
                       - I N T E G R A L  F E E D E R -                       
                                                                              
 v1 FN, 2020, v2 2021                                                         
------------------------------------------------------------------------------


Reading SHARK input file inp.SHARKINP.tmp ... ok
----------------------
SHARK INTEGRAL PACKAGE
----------------------

Number of atoms                             ...     14
Number of basis functions                   ...    209
Number of shells                            ...     91
Maximum angular momentum                    ...      3
Integral batch strategy                     ... SHARK/LIBINT Hybrid
RI-J (if used) integral strategy            ... SPLIT-RIJ (Revised 2003 algorithm where possible)
Printlevel                                  ...      1
Contraction scheme used                     ... SEGMENTED contraction
Coulomb Range Separation                    ... NOT USED
Exchange Range Separation                   ... NOT USED
Finite Nucleus Model                        ... NOT USED
Auxiliary Coulomb fitting basis             ... AVAILABLE
   # of basis functions in Aux-J            ...    344
   # of shells in Aux-J                     ...    120
   Maximum angular momentum in Aux-J        ...      4
Auxiliary J/K fitting basis                 ... NOT available
Auxiliary Correlation fitting basis         ... NOT available
Auxiliary 'external' fitting basis          ... NOT available
Integral threshold                          ...     2.500000e-11
Primitive cut-off                           ...     2.500000e-12
Primitive pair pre-selection threshold      ...     2.500000e-12

Calculating pre-screening integrals         ... done (  0.1 sec) Dimension = 91
Organizing shell pair data                  ... done (  0.1 sec)
Shell pair information
Total number of shell pairs                 ...      4186
Shell pairs after pre-screening             ...      4008
Total number of primitive shell pairs       ...     12072
Primitive shell pairs kept                  ...      9231
          la=0 lb=0:   1290 shell pairs
          la=1 lb=0:   1197 shell pairs
          la=1 lb=1:    291 shell pairs
          la=2 lb=0:    501 shell pairs
          la=2 lb=1:    237 shell pairs
          la=2 lb=2:     55 shell pairs
          la=3 lb=0:    252 shell pairs
          la=3 lb=1:    120 shell pairs
          la=3 lb=2:     50 shell pairs
          la=3 lb=3:     15 shell pairs

Calculating one electron integrals          ... done (  0.0 sec)
Calculating RI/J V-Matrix + Cholesky decomp.... done (  0.2 sec)
Calculating Nuclear repulsion               ... done (  0.0 sec) ENN=    184.322505810771 Eh

SHARK setup successfully completed in   1.2 seconds

Maximum memory used throughout the entire GTOINT-calculation: 47.7 MB
-------------------------------------------------------------------------------
                                 ORCA SCF
-------------------------------------------------------------------------------

------------
SCF SETTINGS
------------
Hamiltonian:
 Density Functional     Method          .... DFT(GTOs)
 Exchange Functional    Exchange        .... PBE
   PBE kappa parameter   XKappa         ....  0.804000
   PBE mue parameter    XMuePBE         ....  0.219520
 Correlation Functional Correlation     .... PBE
   PBE beta parameter  CBetaPBE         ....  0.066725
 LDA part of GGA corr.  LDAOpt          .... PW91-LDA
 Gradients option       PostSCFGGA      .... off
   Density functional embedding theory  .... OFF
   NL short-range parameter             ....  6.400000
 RI-approximation to the Coulomb term is turned on
   Number of AuxJ basis functions       .... 344


General Settings:
 Integral files         IntName         .... inp
 Hartree-Fock type      HFTyp           .... RHF
 Total Charge           Charge          ....   -1
 Multiplicity           Mult            ....    1
 Number of Electrons    NEL             ....   42
 Basis Dimension        Dim             ....  209
 Nuclear Repulsion      ENuc            ....    184.3225058108 Eh

Convergence Acceleration:
 DIIS                   CNVDIIS         .... on
   Start iteration      DIISMaxIt       ....    12
   Startup error        DIISStart       ....  0.200000
   # of expansion vecs  DIISMaxEq       ....     5
   Bias factor          DIISBfac        ....   1.050
   Max. coefficient     DIISMaxC        ....  10.000
 Trust-Rad. Augm. Hess. CNVTRAH         .... auto
   Auto Start mean grad. ratio tolernc. ....  1.125000
   Auto Start start iteration           ....    20
   Auto Start num. interpolation iter.  ....    10
   Max. Number of Micro iterations      ....    16
   Max. Number of Macro iterations      .... Maxiter - #DIIS iter
   Number of Davidson start vectors     ....     2
   Converg. threshold I  (grad. norm)   ....   1.000e-05
   Converg. threshold II (energy diff.) ....   1.000e-08
   Grad. Scal. Fac. for Micro threshold ....   0.100
   Minimum threshold for Micro iter.    ....   0.010
   NR start threshold (gradient norm)   ....   0.001
   Initial trust radius                 ....   0.400
   Minimum AH scaling param. (alpha)    ....   1.000
   Maximum AH scaling param. (alpha)    .... 1000.000
   Orbital update algorithm             .... Taylor
   White noise on init. David. guess    .... on
   Maximum white noise                  ....   0.010
   Quad. conv. algorithm                .... NR
 SOSCF                  CNVSOSCF        .... on
   Start iteration      SOSCFMaxIt      ....   150
   Startup grad/error   SOSCFStart      ....  0.003300
 Level Shifting         CNVShift        .... on
   Level shift para.    LevelShift      ....    0.2500
   Turn off err/grad.   ShiftErr        ....    0.0010
 Zerner damping         CNVZerner       .... off
 Static damping         CNVDamp         .... on
   Fraction old density DampFac         ....    0.7000
   Max. Damping (<1)    DampMax         ....    0.9800
   Min. Damping (>=0)   DampMin         ....    0.0000
   Turn off err/grad.   DampErr         ....    0.1000
 Fernandez-Rico         CNVRico         .... off

SCF Procedure:
 Maximum # iterations   MaxIter         ....   125
 SCF integral mode      SCFMode         .... Direct
   Integral package                     .... SHARK and LIBINT hybrid scheme
 Reset frequency        DirectResetFreq ....    20
 Integral Threshold     Thresh          ....  2.500e-11 Eh
 Primitive CutOff       TCut            ....  2.500e-12 Eh

Convergence Tolerance:
 Convergence Check Mode ConvCheckMode   .... Total+1el-Energy
 Convergence forced     ConvForced      .... 0
 Energy Change          TolE            ....  1.000e-08 Eh
 1-El. energy change                    ....  1.000e-05 Eh
 Orbital Gradient       TolG            ....  1.000e-05
 Orbital Rotation angle TolX            ....  1.000e-05
 DIIS Error             TolErr          ....  5.000e-07


Diagonalization of the overlap matrix:
Smallest eigenvalue                        ... 2.301e-04
Time for diagonalization                   ...    0.009 sec
Threshold for overlap eigenvalues          ... 1.000e-08
Number of eigenvalues below threshold      ... 0
Time for construction of square roots      ...    0.132 sec
Total time needed                          ...    0.141 sec

Time for model grid setup =    0.670 sec

------------------------------
INITIAL GUESS: MODEL POTENTIAL
------------------------------
Loading Hartree-Fock densities                     ... done
Calculating cut-offs                               ... done
Initializing the effective Hamiltonian             ... done
Setting up the integral package (SHARK)            ... done
Starting the Coulomb interaction                   ... done (   0.2 sec)
Reading the grid                                   ... done
Mapping shells                                     ... done
Starting the XC term evaluation                    ... done (   0.3 sec)
  promolecular density results
     # of electrons  =     40.999801658
     EX              =    -31.216889886
     EC              =     -1.328429346
     EX+EC           =    -32.545319231
Transforming the Hamiltonian                       ... done (   0.0 sec)
Diagonalizing the Hamiltonian                      ... done (   0.0 sec)
Back transforming the eigenvectors                 ... done (   0.0 sec)
Now organizing SCF variables                       ... done
                      ------------------
                      INITIAL GUESS DONE (   1.3 sec)
                      ------------------
-------------------
DFT GRID GENERATION
-------------------

General Integration Accuracy     IntAcc      ... 4.388
Radial Grid Type                 RadialGrid  ... OptM3 with GC (2021)
Angular Grid (max. ang.)         AngularGrid ... 4 (Lebedev-302)
Angular grid pruning method      GridPruning ... 4 (adaptive)
Weight generation scheme         WeightScheme... Becke
Basis function cutoff            BFCut       ... 1.0000e-11
Integration weight cutoff        WCut        ... 1.0000e-14
Angular grids for H and He will be reduced by one unit
Partially contracted basis set               ... off
Rotationally invariant grid construction     ... off

Total number of grid points                  ...    59233
Total number of batches                      ...      934
Average number of points per batch           ...       63
Average number of grid points per atom       ...     4231
Time for grid setup =    0.816 sec


--------------------
CPCM SOLVATION MODEL
--------------------
CPCM parameters:
  Epsilon                                         ...      80.4000
  Refrac                                          ...       1.3300
  Rsolv                                           ...       1.3000
  Surface type                                    ... GAUSSIAN VDW
  Epsilon function type                           ...         CPCM
Radii:
 Radius for C  used is    3.8550 Bohr (=   2.0400 Ang.)
 Radius for O  used is    3.4469 Bohr (=   1.8240 Ang.)
 Radius for H  used is    2.4944 Bohr (=   1.3200 Ang.)
Calculating surface                               ...        done! (  0.0s)
GEPOL surface points                              ...          827
GEPOL Volume                                      ...     742.7399
GEPOL Surface-area                                ...     461.7387
Calculating surface distance matrix               ...        done! (  0.0s)
Performing Cholesky decomposition & store         ...        done! (  0.3s)
Overall time for CPCM initialization              ...                 0.3s
--------------
SCF ITERATIONS
--------------
ITER       Energy         Delta-E        Max-DP      RMS-DP      [F,P]     Damp
               ***  Starting incremental Fock matrix formation  ***
  0   -232.5893002626   0.000000000000 0.77529057  0.00779564  0.4005794 0.7000
  1   -232.7708011379  -0.181500875288 0.52095603  0.00560089  0.1080972 0.7000
                               ***Turning on DIIS***
  2   -232.8185145830  -0.047713445099 0.21101484  0.00399016  0.0277233 0.0000
  3   -232.9134804059  -0.094965822888 0.53402448  0.00546284  0.0656183 0.0000
  4   -232.9331100612  -0.019629655311 0.11444490  0.00132730  0.0477531 0.0000
  5   -232.9368159533  -0.003705892045 0.05696439  0.00062182  0.0035633 0.0000
  6   -232.9369860119  -0.000170058614 0.02676495  0.00028883  0.0035303 0.0000
                      *** Initiating the SOSCF procedure ***
                           *** Shutting down DIIS ***
                      *** Re-Reading the Fockian *** 
                      *** Removing any level shift *** 
ITER      Energy       Delta-E        Grad      Rot      Max-DP    RMS-DP
  7   -232.93701835  -0.0000323351  0.000431  0.000431  0.013011  0.000136
               *** Restarting incremental Fock matrix formation ***
  8   -232.93702476  -0.0000064163  0.000246  0.001446  0.015606  0.000163
  9   -232.93702657  -0.0000018098  0.000029  0.000132  0.001521  0.000017
 10   -232.93702651   0.0000000630  0.000046  0.000132  0.001315  0.000015
 11   -232.93702662  -0.0000001105  0.000014  0.000020  0.000278  0.000003
 12   -232.93702661   0.0000000098  0.000018  0.000012  0.000132  0.000002
                  ***Gradient check signals convergence***
              ***Rediagonalizing the Fockian in SOSCF/NRSCF***

               *****************************************************
               *                     SUCCESS                       *
               *           SCF CONVERGED AFTER  13 CYCLES          *
               *****************************************************


----------------
TOTAL SCF ENERGY
----------------

Total Energy       :         -232.93702663 Eh           -6338.53874 eV

Components:
Nuclear Repulsion  :          184.32250581 Eh            5015.67037 eV
Electronic Energy  :         -417.25953244 Eh          -11354.20911 eV
One Electron Energy:         -689.45386204 Eh          -18760.99338 eV
Two Electron Energy:          272.19432961 Eh            7406.78426 eV
CPCM Dielectric    :           -0.11034279 Eh              -3.00258 eV

Virial components:
Potential Energy   :         -464.99788713 Eh          -12653.23579 eV
Kinetic Energy     :          232.06086050 Eh            6314.69705 eV
Virial Ratio       :            2.00377559


DFT components:
N(Alpha)           :       21.000018284008 electrons
N(Beta)            :       21.000018284008 electrons
N(Total)           :       42.000036568016 electrons
E(X)               :      -32.271626470182 Eh       
E(C)               :       -1.363511573106 Eh       
E(XC)              :      -33.635138043288 Eh       
DFET-embed. en.    :        0.000000000000 Eh       
CPCM Solvation Model Properties:
Surface-charge          :            0.95963021
Charge-correction       :           -0.00704129 Eh              -0.19160 eV
Free-energy (cav+disp)  :  This term is not implemented in the current solvation scheme

---------------
SCF CONVERGENCE
---------------

  Last Energy change         ...   -1.5426e-08  Tolerance :   1.0000e-08
  Last MAX-Density change    ...    3.6211e-05  Tolerance :   1.0000e-07
  Last RMS-Density change    ...    4.5648e-07  Tolerance :   5.0000e-09
  Last Orbital Gradient      ...    1.5361e-06  Tolerance :   1.0000e-05
  Last Orbital Rotation      ...    2.4300e-06  Tolerance :   1.0000e-05

             **** THE GBW FILE WAS UPDATED (inp.gbw) ****
             **** DENSITY inp.scfp WAS UPDATED ****
             **** ENERGY FILE WAS UPDATED (inp.en.tmp) ****
             **** THE GBW FILE WAS UPDATED (inp.gbw) ****
             **** DENSITY inp.scfp WAS UPDATED ****
----------------
ORBITAL ENERGIES
----------------

  NO   OCC          E(Eh)            E(eV) 
   0   2.0000     -18.605650      -506.2855 
   1   2.0000      -9.869959      -268.5752 
   2   2.0000      -9.849812      -268.0270 
   3   2.0000      -9.840841      -267.7829 
   4   2.0000      -9.833442      -267.5815 
   5   2.0000      -0.813673       -22.1412 
   6   2.0000      -0.664124       -18.0717 
   7   2.0000      -0.613308       -16.6890 
   8   2.0000      -0.534598       -14.5471 
   9   2.0000      -0.463735       -12.6189 
  10   2.0000      -0.377000       -10.2587 
  11   2.0000      -0.360399        -9.8070 
  12   2.0000      -0.352737        -9.5985 
  13   2.0000      -0.332250        -9.0410 
  14   2.0000      -0.304077        -8.2743 
  15   2.0000      -0.286236        -7.7889 
  16   2.0000      -0.272889        -7.4257 
  17   2.0000      -0.264838        -7.2066 
  18   2.0000      -0.255871        -6.9626 
  19   2.0000      -0.123780        -3.3682 
  20   2.0000      -0.116424        -3.1681 
  21   0.0000       0.037151         1.0109 
  22   0.0000       0.053295         1.4502 
  23   0.0000       0.069237         1.8840 
  24   0.0000       0.088437         2.4065 
  25   0.0000       0.102972         2.8020 
  26   0.0000       0.107512         2.9256 
  27   0.0000       0.116853         3.1797 
  28   0.0000       0.120207         3.2710 
  29   0.0000       0.138202         3.7607 
  30   0.0000       0.151117         4.1121 
  31   0.0000       0.154222         4.1966 
  32   0.0000       0.186606         5.0778 
  33   0.0000       0.195048         5.3075 
  34   0.0000       0.201284         5.4772 
  35   0.0000       0.230157         6.2629 
  36   0.0000       0.234232         6.3738 
  37   0.0000       0.265306         7.2193 
  38   0.0000       0.291914         7.9434 
  39   0.0000       0.303193         8.2503 
  40   0.0000       0.330505         8.9935 
  41   0.0000       0.351778         9.5724 
  42   0.0000       0.361034         9.8242 
  43   0.0000       0.380997        10.3675 
  44   0.0000       0.387748        10.5512 
  45   0.0000       0.406674        11.0662 
  46   0.0000       0.419152        11.4057 
  47   0.0000       0.424265        11.5448 
  48   0.0000       0.432531        11.7698 
  49   0.0000       0.433535        11.7971 
  50   0.0000       0.441401        12.0111 
  51   0.0000       0.450673        12.2634 
  52   0.0000       0.452910        12.3243 
  53   0.0000       0.464697        12.6450 
  54   0.0000       0.467587        12.7237 
  55   0.0000       0.494723        13.4621 
  56   0.0000       0.534328        14.5398 
  57   0.0000       0.553950        15.0737 
  58   0.0000       0.569224        15.4894 
  59   0.0000       0.596116        16.2211 
  60   0.0000       0.612769        16.6743 
  61   0.0000       0.644779        17.5453 
  62   0.0000       0.695912        18.9367 
  63   0.0000       0.715061        19.4578 
  64   0.0000       0.783452        21.3188 
  65   0.0000       0.785766        21.3818 
  66   0.0000       0.827659        22.5218 
  67   0.0000       0.849420        23.1139 
  68   0.0000       0.854712        23.2579 
  69   0.0000       0.900855        24.5135 
  70   0.0000       0.942980        25.6598 
  71   0.0000       0.962604        26.1938 
  72   0.0000       0.968448        26.3528 
  73   0.0000       1.010967        27.5098 
  74   0.0000       1.022240        27.8166 
  75   0.0000       1.091383        29.6980 
  76   0.0000       1.104224        30.0475 
  77   0.0000       1.130582        30.7647 
  78   0.0000       1.132406        30.8143 
  79   0.0000       1.171966        31.8908 
  80   0.0000       1.184177        32.2231 
  81   0.0000       1.210422        32.9373 
  82   0.0000       1.248600        33.9761 
  83   0.0000       1.408738        38.3337 
  84   0.0000       1.465951        39.8905 
  85   0.0000       1.475211        40.1425 
  86   0.0000       1.487499        40.4769 
  87   0.0000       1.493254        40.6335 
  88   0.0000       1.502334        40.8806 
  89   0.0000       1.514139        41.2018 
  90   0.0000       1.520691        41.3801 
  91   0.0000       1.548788        42.1447 
  92   0.0000       1.555168        42.3183 
  93   0.0000       1.567766        42.6611 
  94   0.0000       1.576464        42.8978 
  95   0.0000       1.602823        43.6150 
  96   0.0000       1.668724        45.4083 
  97   0.0000       1.687195        45.9109 
  98   0.0000       1.716195        46.7000 
  99   0.0000       1.740002        47.3479 
 100   0.0000       1.768613        48.1264 
 101   0.0000       1.799091        48.9558 
 102   0.0000       1.850521        50.3552 
 103   0.0000       1.853535        50.4372 
 104   0.0000       1.881250        51.1914 
 105   0.0000       1.932285        52.5802 
 106   0.0000       1.940238        52.7966 
 107   0.0000       1.964717        53.4627 
 108   0.0000       2.011010        54.7224 
 109   0.0000       2.037478        55.4426 
 110   0.0000       2.061948        56.1085 
 111   0.0000       2.072884        56.4060 
 112   0.0000       2.174117        59.1607 
 113   0.0000       2.214567        60.2614 
 114   0.0000       2.228952        60.6529 
 115   0.0000       2.248459        61.1837 
 116   0.0000       2.274414        61.8900 
 117   0.0000       2.291067        62.3431 
 118   0.0000       2.299948        62.5848 
 119   0.0000       2.328382        63.3585 
 120   0.0000       2.343210        63.7620 
 121   0.0000       2.356324        64.1188 
 122   0.0000       2.377802        64.7033 
 123   0.0000       2.410777        65.6006 
 124   0.0000       2.472445        67.2787 
 125   0.0000       2.483389        67.5765 
 126   0.0000       2.505540        68.1792 
 127   0.0000       2.518146        68.5222 
 128   0.0000       2.531726        68.8918 
 129   0.0000       2.541136        69.1478 
 130   0.0000       2.549286        69.3696 
 131   0.0000       2.617339        71.2214 
 132   0.0000       2.631932        71.6185 
 133   0.0000       2.650826        72.1326 
 134   0.0000       2.658726        72.3476 
 135   0.0000       2.708140        73.6922 
 136   0.0000       2.730797        74.3088 
 137   0.0000       2.749177        74.8089 
 138   0.0000       2.801009        76.2193 
 139   0.0000       2.847091        77.4733 
 140   0.0000       2.882432        78.4350 
 141   0.0000       2.922017        79.5121 
 142   0.0000       2.949928        80.2716 
 143   0.0000       2.971710        80.8643 
 144   0.0000       2.989282        81.3425 
 145   0.0000       3.025956        82.3405 
 146   0.0000       3.054247        83.1103 
 147   0.0000       3.062062        83.3229 
 148   0.0000       3.114844        84.7592 
 149   0.0000       3.128201        85.1227 
 150   0.0000       3.158307        85.9419 
 151   0.0000       3.190394        86.8150 
 152   0.0000       3.200703        87.0956 
 153   0.0000       3.249790        88.4313 
 154   0.0000       3.260096        88.7117 
 155   0.0000       3.308094        90.0178 
 156   0.0000       3.315535        90.2203 
 157   0.0000       3.323668        90.4416 
 158   0.0000       3.332065        90.6701 
 159   0.0000       3.371664        91.7477 
 160   0.0000       3.387326        92.1738 
 161   0.0000       3.410994        92.8179 
 162   0.0000       3.447797        93.8193 
 163   0.0000       3.460279        94.1590 
 164   0.0000       3.491214        95.0008 
 165   0.0000       3.527947        96.0003 
 166   0.0000       3.625120        98.6445 
 167   0.0000       3.654030        99.4312 
 168   0.0000       3.675098       100.0045 
 169   0.0000       3.719461       101.2117 
 170   0.0000       3.766152       102.4822 
 171   0.0000       3.804816       103.5343 
 172   0.0000       3.839732       104.4844 
 173   0.0000       3.871443       105.3473 
 174   0.0000       3.933877       107.0462 
 175   0.0000       3.960634       107.7743 
 176   0.0000       3.991848       108.6237 
 177   0.0000       4.069397       110.7339 
 178   0.0000       4.139133       112.6315 
 179   0.0000       4.211844       114.6101 
 180   0.0000       4.230376       115.1144 
 181   0.0000       4.302688       117.0821 
 182   0.0000       4.327845       117.7666 
 183   0.0000       4.368602       118.8757 
 184   0.0000       4.431713       120.5930 
 185   0.0000       4.467721       121.5729 
 186   0.0000       4.501011       122.4787 
 187   0.0000       4.531382       123.3052 
 188   0.0000       4.656473       126.7091 
 189   0.0000       4.707365       128.0939 
 190   0.0000       4.815335       131.0319 
 191   0.0000       4.935200       134.2936 
 192   0.0000       5.193476       141.3217 
 193   0.0000       5.211129       141.8020 
 194   0.0000       5.472279       148.9083 
 195   0.0000       5.487022       149.3095 
 196   0.0000       5.942771       161.7110 
 197   0.0000       5.953921       162.0144 
 198   0.0000       6.055631       164.7821 
 199   0.0000       6.370211       173.3422 
 200   0.0000       6.386297       173.7800 
 201   0.0000       6.823786       185.6847 
 202   0.0000       6.915748       188.1871 
 203   0.0000       6.941520       188.8884 
 204   0.0000      22.045342       599.8842 
 205   0.0000      22.097863       601.3134 
 206   0.0000      22.199999       604.0927 
 207   0.0000      22.530071       613.0744 
 208   0.0000      43.633349      1187.3238 

                    ********************************
                    * MULLIKEN POPULATION ANALYSIS *
                    ********************************

-----------------------
MULLIKEN ATOMIC CHARGES
-----------------------
   0 C :   -0.330716
   1 C :    0.099580
   2 O :   -0.790660
   3 H :    0.046043
   4 C :   -0.111485
   5 H :   -0.067560
   6 H :    0.083970
   7 C :   -0.352613
   8 H :    0.066716
   9 H :    0.032112
  10 H :    0.040793
  11 H :    0.098519
  12 H :    0.114046
  13 H :    0.071254
Sum of atomic charges:   -1.0000000

--------------------------------
MULLIKEN REDUCED ORBITAL CHARGES
--------------------------------
  0 C s       :     3.188633  s :     3.188633
      pz      :     1.040120  p :     3.084539
      px      :     1.050400
      py      :     0.994019
      dz2     :     0.004279  d :     0.054146
      dxz     :     0.010295
      dyz     :     0.014740
      dx2y2   :     0.005303
      dxy     :     0.019529
      f0      :     0.000426  f :     0.003398
      f+1     :     0.000667
      f-1     :     0.000152
      f+2     :     0.000335
      f-2     :     0.000206
      f+3     :     0.000696
      f-3     :     0.000916
  1 C s       :     3.149785  s :     3.149785
      pz      :     0.930106  p :     2.576523
      px      :     0.800864
      py      :     0.845554
      dz2     :     0.022572  d :     0.160814
      dxz     :     0.032346
      dyz     :     0.023339
      dx2y2   :     0.047510
      dxy     :     0.035047
      f0      :     0.001748  f :     0.013297
      f+1     :     0.001794
      f-1     :     0.000645
      f+2     :     0.000969
      f-2     :     0.002304
      f+3     :     0.003564
      f-3     :     0.002273
  2 O s       :     3.775568  s :     3.775568
      pz      :     1.757074  p :     4.989673
      px      :     1.542830
      py      :     1.689769
      dz2     :     0.003143  d :     0.024004
      dxz     :     0.004404
      dyz     :     0.002125
      dx2y2   :     0.006130
      dxy     :     0.008202
      f0      :     0.000137  f :     0.001415
      f+1     :     0.000172
      f-1     :     0.000095
      f+2     :     0.000064
      f-2     :     0.000232
      f+3     :     0.000327
      f-3     :     0.000388
  3 H s       :     0.932921  s :     0.932921
      pz      :     0.004776  p :     0.021036
      px      :     0.008174
      py      :     0.008087
  4 C s       :     3.126771  s :     3.126771
      pz      :     0.989863  p :     2.887049
      px      :     0.953809
      py      :     0.943376
      dz2     :     0.021874  d :     0.092154
      dxz     :     0.012107
      dyz     :     0.014360
      dx2y2   :     0.015938
      dxy     :     0.027875
      f0      :     0.000936  f :     0.005512
      f+1     :     0.001185
      f-1     :     0.000175
      f+2     :     0.000427
      f-2     :     0.000840
      f+3     :     0.000753
      f-3     :     0.001195
  5 H s       :     1.047268  s :     1.047268
      pz      :     0.010205  p :     0.020292
      px      :     0.005907
      py      :     0.004179
  6 H s       :     0.894943  s :     0.894943
      pz      :     0.007852  p :     0.021086
      px      :     0.007970
      py      :     0.005264
  7 C s       :     3.225779  s :     3.225779
      pz      :     1.047039  p :     3.068809
      px      :     1.034344
      py      :     0.987425
      dz2     :     0.004836  d :     0.054774
      dxz     :     0.012057
      dyz     :     0.010893
      dx2y2   :     0.013492
      dxy     :     0.013496
      f0      :     0.000485  f :     0.003252
      f+1     :     0.000713
      f-1     :     0.000046
      f+2     :     0.000184
      f-2     :     0.000345
      f+3     :     0.000586
      f-3     :     0.000893
  8 H s       :     0.912384  s :     0.912384
      pz      :     0.009715  p :     0.020900
      px      :     0.006103
      py      :     0.005082
  9 H s       :     0.946609  s :     0.946609
      pz      :     0.004738  p :     0.021279
      px      :     0.008345
      py      :     0.008196
 10 H s       :     0.938157  s :     0.938157
      pz      :     0.010821  p :     0.021050
      px      :     0.005507
      py      :     0.004722
 11 H s       :     0.880672  s :     0.880672
      pz      :     0.010032  p :     0.020808
      px      :     0.005931
      py      :     0.004845
 12 H s       :     0.865066  s :     0.865066
      pz      :     0.007705  p :     0.020888
      px      :     0.008173
      py      :     0.005010
 13 H s       :     0.907235  s :     0.907235
      pz      :     0.004728  p :     0.021511
      px      :     0.007943
      py      :     0.008841


                     *******************************
                     * LOEWDIN POPULATION ANALYSIS *
                     *******************************

----------------------
LOEWDIN ATOMIC CHARGES
----------------------
   0 C :   -0.353093
   1 C :   -0.595952
   2 O :   -0.351834
   3 H :    0.097139
   4 C :   -0.311836
   5 H :    0.089188
   6 H :    0.102055
   7 C :   -0.347210
   8 H :    0.102037
   9 H :    0.118404
  10 H :    0.116767
  11 H :    0.113624
  12 H :    0.115287
  13 H :    0.105425

-------------------------------
LOEWDIN REDUCED ORBITAL CHARGES
-------------------------------
  0 C s       :     2.863476  s :     2.863476
      pz      :     1.069871  p :     3.198154
      px      :     1.069128
      py      :     1.059156
      dz2     :     0.041299  d :     0.267864
      dxz     :     0.055682
      dyz     :     0.051926
      dx2y2   :     0.038581
      dxy     :     0.080377
      f0      :     0.002474  f :     0.023598
      f+1     :     0.002672
      f-1     :     0.002958
      f+2     :     0.004123
      f-2     :     0.002198
      f+3     :     0.003511
      f-3     :     0.005662
  1 C s       :     2.759997  s :     2.759997
      pz      :     0.987318  p :     2.924715
      px      :     0.961476
      py      :     0.975921
      dz2     :     0.117354  d :     0.806891
      dxz     :     0.217990
      dyz     :     0.087835
      dx2y2   :     0.225677
      dxy     :     0.158034
      f0      :     0.011933  f :     0.104350
      f+1     :     0.011552
      f-1     :     0.006797
      f+2     :     0.009408
      f-2     :     0.019198
      f+3     :     0.027708
      f-3     :     0.017754
  2 O s       :     3.448955  s :     3.448955
      pz      :     1.680219  p :     4.835537
      px      :     1.535286
      py      :     1.620031
      dz2     :     0.007108  d :     0.062535
      dxz     :     0.012438
      dyz     :     0.005500
      dx2y2   :     0.019449
      dxy     :     0.018039
      f0      :     0.000473  f :     0.004807
      f+1     :     0.000537
      f-1     :     0.000322
      f+2     :     0.000219
      f-2     :     0.000787
      f+3     :     0.001254
      f-3     :     0.001215
  3 H s       :     0.839994  s :     0.839994
      pz      :     0.014193  p :     0.062867
      px      :     0.025542
      py      :     0.023132
  4 C s       :     2.806858  s :     2.806858
      pz      :     1.026471  p :     3.071162
      px      :     1.024749
      py      :     1.019941
      dz2     :     0.097319  d :     0.396737
      dxz     :     0.069295
      dyz     :     0.051612
      dx2y2   :     0.061765
      dxy     :     0.116745
      f0      :     0.005143  f :     0.037079
      f+1     :     0.005681
      f-1     :     0.003867
      f+2     :     0.005162
      f-2     :     0.005115
      f+3     :     0.004896
      f-3     :     0.007217
  5 H s       :     0.853305  s :     0.853305
      pz      :     0.028565  p :     0.057506
      px      :     0.017174
      py      :     0.011767
  6 H s       :     0.836540  s :     0.836540
      pz      :     0.023743  p :     0.061405
      px      :     0.023125
      py      :     0.014537
  7 C s       :     2.840353  s :     2.840353
      pz      :     1.071402  p :     3.212405
      px      :     1.070334
      py      :     1.070669
      dz2     :     0.038922  d :     0.269631
      dxz     :     0.060791
      dyz     :     0.039892
      dx2y2   :     0.054851
      dxy     :     0.075175
      f0      :     0.002782  f :     0.024822
      f+1     :     0.002845
      f-1     :     0.002789
      f+2     :     0.004284
      f-2     :     0.002458
      f+3     :     0.003964
      f-3     :     0.005700
  8 H s       :     0.836464  s :     0.836464
      pz      :     0.029751  p :     0.061499
      px      :     0.017438
      py      :     0.014310
  9 H s       :     0.821240  s :     0.821240
      pz      :     0.013831  p :     0.060356
      px      :     0.024454
      py      :     0.022071
 10 H s       :     0.824050  s :     0.824050
      pz      :     0.029718  p :     0.059183
      px      :     0.016325
      py      :     0.013141
 11 H s       :     0.824927  s :     0.824927
      pz      :     0.030693  p :     0.061449
      px      :     0.017069
      py      :     0.013688
 12 H s       :     0.823125  s :     0.823125
      pz      :     0.023580  p :     0.061588
      px      :     0.023919
      py      :     0.014089
 13 H s       :     0.832130  s :     0.832130
      pz      :     0.013978  p :     0.062445
      px      :     0.023718
      py      :     0.024749


                      *****************************
                      * MAYER POPULATION ANALYSIS *
                      *****************************

  NA   - Mulliken gross atomic population
  ZA   - Total nuclear charge
  QA   - Mulliken gross atomic charge
  VA   - Mayer's total valence
  BVA  - Mayer's bonded valence
  FA   - Mayer's free valence

  ATOM       NA         ZA         QA         VA         BVA        FA
  0 C      6.3307     6.0000    -0.3307     3.6604     3.6604    -0.0000
  1 C      5.9004     6.0000     0.0996     4.3221     4.3221    -0.0000
  2 O      8.7907     8.0000    -0.7907     1.6170     1.6170    -0.0000
  3 H      0.9540     1.0000     0.0460     1.0033     1.0033     0.0000
  4 C      6.1115     6.0000    -0.1115     3.5875     3.5875     0.0000
  5 H      1.0676     1.0000    -0.0676     0.9255     0.9255     0.0000
  6 H      0.9160     1.0000     0.0840     0.9986     0.9986     0.0000
  7 C      6.3526     6.0000    -0.3526     3.8668     3.8668     0.0000
  8 H      0.9333     1.0000     0.0667     1.0216     1.0216    -0.0000
  9 H      0.9679     1.0000     0.0321     0.9886     0.9886     0.0000
 10 H      0.9592     1.0000     0.0408     1.0209     1.0209     0.0000
 11 H      0.9015     1.0000     0.0985     0.9820     0.9820     0.0000
 12 H      0.8860     1.0000     0.1140     0.9688     0.9688     0.0000
 13 H      0.9287     1.0000     0.0713     1.0311     1.0311    -0.0000

  Mayer bond orders larger than 0.100000
B(  0-C ,  1-C ) :   0.9405 B(  0-C ,  2-O ) :  -0.1141 B(  0-C ,  3-H ) :   0.9372 
B(  0-C ,  6-H ) :   0.9719 B(  0-C ,  8-H ) :   0.9644 B(  1-C ,  2-O ) :   1.5637 
B(  1-C ,  4-C ) :   0.9261 B(  1-C ,  5-H ) :   0.8836 B(  2-O ,  4-C ) :  -0.1463 
B(  4-C ,  7-C ) :   0.9982 B(  4-C ,  9-H ) :   0.9177 B(  4-C , 10-H ) :   0.9465 
B(  7-C , 11-H ) :   0.9656 B(  7-C , 12-H ) :   0.9702 B(  7-C , 13-H ) :   0.9627 


-------
TIMINGS
-------

Total SCF time: 0 days 0 hours 0 min 34 sec 

Total time                  ....      34.856 sec
Sum of individual times     ....      31.577 sec  ( 90.6%)

Fock matrix formation       ....      28.728 sec  ( 82.4%)
  Split-RI-J                ....       3.864 sec  ( 13.5% of F)
  XC integration            ....      14.811 sec  ( 51.6% of F)
    Basis function eval.    ....       4.330 sec  ( 29.2% of XC)
    Density eval.           ....       3.103 sec  ( 21.0% of XC)
    XC-Functional eval.     ....       0.710 sec  (  4.8% of XC)
    XC-Potential eval.      ....       3.892 sec  ( 26.3% of XC)
Diagonalization             ....       0.062 sec  (  0.2%)
Density matrix formation    ....       0.005 sec  (  0.0%)
Population analysis         ....       0.068 sec  (  0.2%)
Initial guess               ....       0.626 sec  (  1.8%)
Orbital Transformation      ....       0.000 sec  (  0.0%)
Orbital Orthonormalization  ....       0.000 sec  (  0.0%)
DIIS solution               ....       0.374 sec  (  1.1%)
SOSCF solution              ....       0.227 sec  (  0.7%)
Grid generation             ....       1.486 sec  (  4.3%)

Maximum memory used throughout the entire SCF-calculation: 67.3 MB


-------------------------------------------------------------------------------
                          DFT DISPERSION CORRECTION                            
                                                                               
                              DFTD3 V3.1  Rev 1                                
                          USING Becke-Johnson damping                          
-------------------------------------------------------------------------------
The PBE functional is recognized
Active option DFTDOPT                   ...         4   

molecular C6(AA) [au] = 1324.297676 


            DFT-D V3
 parameters
 s6 scaling factor         :     1.0000 
 a1 scaling factor         :     0.4289 
 s8 scaling factor         :     0.7875 
 a2 scaling factor         :     4.4407 
 ad hoc parameters k1-k3   :    16.0000     1.3333    -4.0000 

 Edisp/kcal,au: -6.051088784401  -0.009643022757 
 E6   /kcal   :  -4.383912980 
 E8   /kcal   :  -1.667175804 
 % E8         :  27.551666542 

-------------------------   ----------------
Dispersion correction           -0.009643023
-------------------------   ----------------


-------------------------   --------------------
FINAL SINGLE POINT ENERGY      -232.946669649002
-------------------------   --------------------

------------------------------------------------------------------------------
                         ORCA SCF GRADIENT CALCULATION
------------------------------------------------------------------------------

Gradient of the Kohn-Sham DFT energy:
Kohn-Sham wavefunction type      ... RKS
Hartree-Fock exchange scaling    ...    0.000
Number of operators              ...    1
Number of atoms                  ...   14
Basis set dimensions             ...  209
Integral neglect threshold       ... 2.5e-11
Integral primitive cutoff        ... 2.5e-12
SHARK Integral package           ... ON

Nuc. rep. gradient       (SHARK) ... done (  0.0 sec)
HCore & Overlap gradient (SHARK) ... done (  0.2 sec)
RI-J gradient            (SHARK) ... done (  1.2 sec)
Exchange-correlation gradient    ... done
Dispersion correction            ... done

------------------
CARTESIAN GRADIENT
------------------

   1   C   :    0.014020622    0.013047674    0.005748206
   2   C   :   -0.007271963    0.025330015   -0.044752200
   3   O   :   -0.033481249   -0.040709550    0.012188233
   4   H   :    0.004456520    0.009042732    0.001342786
   5   C   :    0.017501106    0.003099209    0.009227864
   6   H   :    0.007949208   -0.007104125    0.018565884
   7   H   :   -0.002220975   -0.002403854    0.002179714
   8   C   :   -0.001726798    0.003720431   -0.003891623
   9   H   :   -0.000951577   -0.004280387   -0.003177797
  10   H   :    0.006468350    0.004949409   -0.000874646
  11   H   :   -0.006935399    0.001735447    0.000732298
  12   H   :    0.001845224   -0.000976300    0.004083356
  13   H   :    0.003602760   -0.002751889   -0.002013990
  14   H   :   -0.003255829   -0.002698812    0.000641915

Difference to translation invariance:
           :    0.0000000000    0.0000000000    0.0000000000

Difference to rotation invariance:
           :    0.0000735723    0.0003657839    0.0007153505

Norm of the cartesian gradient     ...    0.0851246207
RMS gradient                       ...    0.0131350141
MAX gradient                       ...    0.0447522001

-------
TIMINGS
-------

Total SCF gradient time            ...        9.099 sec

One electron gradient       ....       0.233 sec  (  2.6%)
RI-J Coulomb gradient       ....       1.232 sec  ( 13.5%)
XC gradient                 ....       6.336 sec  ( 69.6%)
CPCM gradient               ....       0.444 sec  (  4.9%)
   A-Matrix (El+Nuc)        ....       0.040 sec  (  0.4%)
   Potential                ....       0.403 sec  (  4.4%)

Maximum memory used throughout the entire SCFGRAD-calculation: 70.2 MB
------------------------------------------------------------------------------
                         ORCA GEOMETRY RELAXATION STEP
------------------------------------------------------------------------------

Reading the OPT-File                    .... done
Getting information on internals        .... done
Copying old internal coords+grads       .... done
Making the new internal coordinates     .... (new redundants).... done
Validating the new internal coordinates .... (new redundants).... done
Calculating the B-matrix                .... done
Calculating the G,G- and P matrices     .... done
Transforming gradient to internals      .... done
Projecting the internal gradient        .... done
Number of atoms                         ....  14
Number of internal coordinates          ....  64
Current Energy                          ....  -232.946669649 Eh
Current gradient norm                   ....     0.085124621 Eh/bohr
Maximum allowed component of the step   ....  0.300
Current trust radius                    ....  0.300
Evaluating the initial hessian          ....  (Almloef) done
Projecting the Hessian                  .... done
Forming the augmented Hessian           .... done
Diagonalizing the augmented Hessian     .... done
Last element of RFO vector              ....  0.962857664
Lowest eigenvalues of augmented Hessian:
 -0.013774702  0.009805692  0.010317317  0.011363962  0.071228154
Length of the computed step             ....  0.280425122
The final length of the internal step   ....  0.280425122
Converting the step to cartesian space:
 Initial RMS(Int)=    0.0350531402
Transforming coordinates:
 Iter   0:  RMS(Cart)=    0.0372299391 RMS(Int)=    1.1049719477
 Iter   1:  RMS(Cart)=    0.0012210687 RMS(Int)=    0.0010005783
 Iter   2:  RMS(Cart)=    0.0000875467 RMS(Int)=    0.0000749034
 Iter   3:  RMS(Cart)=    0.0000061906 RMS(Int)=    0.0000048916
 Iter   4:  RMS(Cart)=    0.0000004424 RMS(Int)=    0.0000003742
 Iter   5:  RMS(Cart)=    0.0000000319 RMS(Int)=    0.0000000244
done
Storing new coordinates                 .... done

                                .--------------------.
          ----------------------|Geometry convergence|-------------------------
          Item                value                   Tolerance       Converged
          ---------------------------------------------------------------------
          RMS gradient        0.0083526667            0.0001000000      NO
          MAX gradient        0.0480939136            0.0003000000      NO
          RMS step            0.0350531402            0.0020000000      NO
          MAX step            0.1030566440            0.0040000000      NO
          ........................................................
          Max(Bonds)      0.0349      Max(Angles)    4.39
          Max(Dihed)        5.90      Max(Improp)    0.00
          ---------------------------------------------------------------------

The optimization has not yet converged - more geometry cycles are needed


    ---------------------------------------------------------------------------
                         Redundant Internal Coordinates
                            (Angstroem and degrees)

        Definition                    Value    dE/dq     Step     New-Value
    ----------------------------------------------------------------------------
     1. B(C   1,C   0)                1.5413 -0.009576  0.0136    1.5549   
     2. B(O   2,C   1)                1.3228 -0.048094  0.0349    1.3577   
     3. B(H   3,C   0)                1.0966 -0.009240  0.0134    1.1100   
     4. B(C   4,C   1)                1.5504 -0.005080  0.0075    1.5578   
     5. B(H   5,C   1)                1.0998 -0.020560  0.0301    1.1299   
     6. B(H   6,C   0)                1.0977 -0.002564  0.0037    1.1015   
     7. B(C   7,C   4)                1.5274 -0.002507  0.0034    1.5308   
     8. B(H   8,C   0)                1.0981 -0.002246  0.0033    1.1014   
     9. B(H   9,C   4)                1.0984 -0.008002  0.0117    1.1100   
    10. B(H  10,C   4)                1.0993 -0.002296  0.0034    1.1027   
    11. B(H  11,C   7)                1.0947 -0.004558  0.0066    1.1013   
    12. B(H  12,C   7)                1.0948 -0.004183  0.0060    1.1009   
    13. B(H  13,C   7)                1.0943 -0.004016  0.0058    1.1001   
    14. A(H   3,C   0,H   8)          107.25 -0.000521    0.38    107.64   
    15. A(H   3,C   0,H   6)          107.18  0.000852    0.20    107.38   
    16. A(H   6,C   0,H   8)          107.85 -0.003940    0.10    107.95   
    17. A(C   1,C   0,H   8)          112.48  0.007635   -1.50    110.98   
    18. A(C   1,C   0,H   3)          110.36 -0.008531    1.77    112.13   
    19. A(C   1,C   0,H   6)          111.48  0.004145   -0.87    110.61   
    20. A(C   4,C   1,H   5)          106.19  0.001637   -2.27    103.92   
    21. A(O   2,C   1,H   5)          119.97  0.011403   -3.70    116.27   
    22. A(C   0,C   1,C   4)          108.91  0.011798   -0.48    108.43   
    23. A(C   0,C   1,O   2)          107.02 -0.013389    4.39    111.41   
    24. A(O   2,C   1,C   4)          108.92 -0.009024    3.21    112.13   
    25. A(C   0,C   1,H   5)          105.45 -0.001025   -1.17    104.28   
    26. A(C   7,C   4,H   9)          107.47  0.000357    0.60    108.07   
    27. A(C   1,C   4,H   9)          108.78 -0.003262    1.16    109.94   
    28. A(C   1,C   4,C   7)          113.49  0.000854   -0.24    113.24   
    29. A(H   9,C   4,H  10)          106.11 -0.000468    0.36    106.47   
    30. A(C   7,C   4,H  10)          109.10 -0.003603    0.27    109.38   
    31. A(C   1,C   4,H  10)          111.55  0.005845   -2.00    109.55   
    32. A(H  12,C   7,H  13)          107.72  0.000773    0.01    107.74   
    33. A(H  11,C   7,H  13)          108.46  0.000220   -0.32    108.14   
    34. A(C   4,C   7,H  13)          111.62  0.001710   -0.35    111.26   
    35. A(H  11,C   7,H  12)          107.97  0.001574   -0.14    107.83   
    36. A(C   4,C   7,H  12)          109.98 -0.004294    0.88    110.85   
    37. A(C   4,C   7,H  11)          110.96  0.000096   -0.08    110.88   
    38. D(C   4,C   1,C   0,H   8)    -59.56  0.007635   -3.58    -63.14   
    39. D(H   5,C   1,C   0,H   6)     65.55 -0.002393    1.39     66.94   
    40. D(O   2,C   1,C   0,H   6)    -63.24 -0.007473    3.93    -59.31   
    41. D(H   5,C   1,C   0,H   3)    -53.43 -0.000531    0.54    -52.90   
    42. D(O   2,C   1,C   0,H   3)    177.77 -0.005611    3.07    180.85   
    43. D(C   4,C   1,C   0,H   6)    179.16  0.004306   -2.02    177.14   
    44. D(H   5,C   1,C   0,H   8)   -173.16  0.000936   -0.18   -173.34   
    45. D(C   4,C   1,C   0,H   3)     60.17  0.006168   -2.87     57.30   
    46. D(O   2,C   1,C   0,H   8)     58.05 -0.004144    2.36     60.40   
    47. D(H   9,C   4,C   1,O   2)   -167.87  0.007799   -4.50   -172.37   
    48. D(C   7,C   4,C   1,H   5)    -57.92 -0.000294   -1.85    -59.78   
    49. D(C   7,C   4,C   1,O   2)     72.57  0.009063   -5.90     66.66   
    50. D(C   7,C   4,C   1,C   0)   -171.04 -0.005373    0.85   -170.20   
    51. D(H   9,C   4,C   1,H   5)     61.64 -0.001557   -0.45     61.20   
    52. D(H  10,C   4,C   1,H   5)    178.35 -0.000743   -0.46    177.89   
    53. D(H  10,C   4,C   1,O   2)    -51.16  0.008614   -4.51    -55.67   
    54. D(H  10,C   4,C   1,C   0)     65.23 -0.005822    2.24     67.47   
    55. D(H   9,C   4,C   1,C   0)    -51.48 -0.006637    2.25    -49.22   
    56. D(H  13,C   7,C   4,H   9)    174.47 -0.000610    0.59    175.05   
    57. D(H  13,C   7,C   4,C   1)    -65.22 -0.003926    2.31    -62.92   
    58. D(H  12,C   7,C   4,H  10)    -59.68  0.002342   -0.65    -60.33   
    59. D(H  12,C   7,C   4,H   9)     54.96  0.000162    0.22     55.18   
    60. D(H  12,C   7,C   4,C   1)    175.27 -0.003154    1.94    177.21   
    61. D(H  11,C   7,C   4,H  10)   -179.07  0.003090   -0.99   -180.06   
    62. D(H  11,C   7,C   4,H   9)    -64.43  0.000910   -0.12    -64.55   
    63. D(H  13,C   7,C   4,H  10)     59.83  0.001570   -0.28     59.54   
    64. D(H  11,C   7,C   4,C   1)     55.88 -0.002406    1.60     57.48   
    ----------------------------------------------------------------------------

         *************************************************************
         *                GEOMETRY OPTIMIZATION CYCLE   2            *
         *************************************************************
---------------------------------
CARTESIAN COORDINATES (ANGSTROEM)
---------------------------------
  C     -3.795524   -3.932421   -2.854122
  C     -4.242324   -2.444066   -2.908266
  O     -3.185859   -1.605527   -2.752984
  H     -4.647099   -4.630235   -2.995428
  C     -5.331689   -2.219513   -1.817554
  H     -4.810809   -2.359577   -3.881125
  H     -3.060574   -4.145310   -3.646411
  C     -6.022928   -0.857975   -1.925904
  H     -3.327547   -4.168478   -1.885445
  H     -6.110014   -3.007458   -1.891915
  H     -4.878672   -2.320764   -0.817367
  H     -6.484027   -0.729833   -2.917767
  H     -6.817118   -0.760424   -1.169832
  H     -5.309659   -0.034971   -1.770842

----------------------------
CARTESIAN COORDINATES (A.U.)
----------------------------
  NO LB      ZA    FRAG     MASS         X           Y           Z
   0 C     6.0000    0    12.011   -7.172502   -7.431198   -5.393510
   1 C     6.0000    0    12.011   -8.016830   -4.618615   -5.495826
   2 O     8.0000    0    15.999   -6.020402   -3.034006   -5.202386
   3 H     1.0000    0     1.008   -8.781745   -8.749876   -5.660539
   4 C     6.0000    0    12.011  -10.075432   -4.194272   -3.434679
   5 H     1.0000    0     1.008   -9.091111   -4.458955   -7.334263
   6 H     1.0000    0     1.008   -5.783646   -7.833500   -6.890718
   7 C     6.0000    0    12.011  -11.381684   -1.621337   -3.639431
   8 H     1.0000    0     1.008   -6.288153   -7.877281   -3.562974
   9 H     1.0000    0     1.008  -11.546254   -5.683273   -3.575200
  10 H     1.0000    0     1.008   -9.219353   -4.385609   -1.544600
  11 H     1.0000    0     1.008  -12.253036   -1.379185   -5.513780
  12 H     1.0000    0     1.008  -12.882487   -1.436994   -2.210663
  13 H     1.0000    0     1.008  -10.033802   -0.066085   -3.346406

--------------------------------
INTERNAL COORDINATES (ANGSTROEM)
--------------------------------
 C      0   0   0     0.000000000000     0.00000000     0.00000000
 C      1   0   0     1.554915310192     0.00000000     0.00000000
 O      2   1   0     1.357710170993   111.32156082     0.00000000
 H      1   2   3     1.109996040646   112.14003047   180.88291274
 C      2   1   3     1.557816488861   108.33266793   236.39651628
 H      2   1   3     1.129941743360   104.24794143   126.20023412
 H      1   2   3     1.101451685685   110.59094307   300.71742119
 C      5   2   1     1.530796702503   113.22970885   189.81763798
 H      1   2   3     1.101391268103   110.96939587    60.45286296
 H      5   2   1     1.110034910738   109.94388117   310.78892125
 H      5   2   1     1.102656156288   109.54552175    67.46993368
 H      8   5   2     1.101283384312   110.87321949    57.48234801
 H      8   5   2     1.100862921772   110.85268989   177.21305557
 H      8   5   2     1.100059632882   111.26380463   297.08530438

---------------------------
INTERNAL COORDINATES (A.U.)
---------------------------
 C      0   0   0     0.000000000000     0.00000000     0.00000000
 C      1   0   0     2.938364097705     0.00000000     0.00000000
 O      2   1   0     2.565700392416   111.32156082     0.00000000
 H      1   2   3     2.097588526558   112.14003047   180.88291274
 C      2   1   3     2.943846530855   108.33266793   236.39651628
 H      2   1   3     2.135280442236   104.24794143   126.20023412
 H      1   2   3     2.081442035690   110.59094307   300.71742119
 C      5   2   1     2.892786534441   113.22970885   189.81763798
 H      1   2   3     2.081327863007   110.96939587    60.45286296
 H      5   2   1     2.097661980387   109.94388117   310.78892125
 H      5   2   1     2.083718155267   109.54552175    67.46993368
 H      8   5   2     2.081123992187   110.87321949    57.48234801
 H      8   5   2     2.080329433137   110.85268989   177.21305557
 H      8   5   2     2.078811437129   111.26380463   297.08530438

------------------------------------------------------------------------------
                   ___                                                        
                  /   \      - P O W E R E D   B Y -                         
                 /     \                                                     
                 |  |  |   _    _      __       _____    __    __             
                 |  |  |  | |  | |    /  \     |  _  \  |  |  /  |          
                  \  \/   | |  | |   /    \    | | | |  |  | /  /          
                 / \  \   | |__| |  /  /\  \   | |_| |  |  |/  /          
                |  |  |   |  __  | /  /__\  \  |    /   |      \           
                |  |  |   | |  | | |   __   |  |    \   |  |\   \          
                \     /   | |  | | |  |  |  |  | |\  \  |  | \   \       
                 \___/    |_|  |_| |__|  |__|  |_| \__\ |__|  \__/        
                                                                              
                      - O R C A' S   B I G   F R I E N D -                    
                                      &                                       
                       - I N T E G R A L  F E E D E R -                       
                                                                              
 v1 FN, 2020, v2 2021                                                         
------------------------------------------------------------------------------


Reading SHARK input file inp.SHARKINP.tmp ... ok
----------------------
SHARK INTEGRAL PACKAGE
----------------------

Number of atoms                             ...     14
Number of basis functions                   ...    209
Number of shells                            ...     91
Maximum angular momentum                    ...      3
Integral batch strategy                     ... SHARK/LIBINT Hybrid
RI-J (if used) integral strategy            ... SPLIT-RIJ (Revised 2003 algorithm where possible)
Printlevel                                  ...      1
Contraction scheme used                     ... SEGMENTED contraction
Coulomb Range Separation                    ... NOT USED
Exchange Range Separation                   ... NOT USED
Finite Nucleus Model                        ... NOT USED
Auxiliary Coulomb fitting basis             ... AVAILABLE
   # of basis functions in Aux-J            ...    344
   # of shells in Aux-J                     ...    120
   Maximum angular momentum in Aux-J        ...      4
Auxiliary J/K fitting basis                 ... NOT available
Auxiliary Correlation fitting basis         ... NOT available
Auxiliary 'external' fitting basis          ... NOT available
Integral threshold                          ...     2.500000e-11
Primitive cut-off                           ...     2.500000e-12
Primitive pair pre-selection threshold      ...     2.500000e-12

[...]
 127   0.0000       2.497519        67.9610 
 128   0.0000       2.521111        68.6029 
 129   0.0000       2.543271        69.2059 
 130   0.0000       2.567594        69.8678 
 131   0.0000       2.601203        70.7823 
 132   0.0000       2.617787        71.2336 
 133   0.0000       2.626715        71.4766 
 134   0.0000       2.641204        71.8708 
 135   0.0000       2.667923        72.5979 
 136   0.0000       2.703787        73.5738 
 137   0.0000       2.723497        74.1101 
 138   0.0000       2.774774        75.5054 
 139   0.0000       2.822817        76.8127 
 140   0.0000       2.860495        77.8380 
 141   0.0000       2.896236        78.8106 
 142   0.0000       2.920357        79.4670 
 143   0.0000       2.983031        81.1724 
 144   0.0000       2.995125        81.5015 
 145   0.0000       3.028837        82.4188 
 146   0.0000       3.052381        83.0595 
 147   0.0000       3.074779        83.6690 
 148   0.0000       3.099835        84.3508 
 149   0.0000       3.115937        84.7890 
 150   0.0000       3.143547        85.5403 
 151   0.0000       3.168894        86.2300 
 152   0.0000       3.205758        87.2331 
 153   0.0000       3.234722        88.0213 
 154   0.0000       3.259189        88.6870 
 155   0.0000       3.284791        89.3837 
 156   0.0000       3.291167        89.5572 
 157   0.0000       3.302532        89.8665 
 158   0.0000       3.333643        90.7130 
 159   0.0000       3.368065        91.6497 
 160   0.0000       3.378559        91.9353 
 161   0.0000       3.408615        92.7531 
 162   0.0000       3.447961        93.8238 
 163   0.0000       3.463218        94.2389 
 164   0.0000       3.483046        94.7785 
 165   0.0000       3.531623        96.1004 
 166   0.0000       3.574844        97.2765 
 167   0.0000       3.620661        98.5232 
 168   0.0000       3.647938        99.2654 
 169   0.0000       3.691639       100.4546 
 170   0.0000       3.756303       102.2142 
 171   0.0000       3.782780       102.9347 
 172   0.0000       3.817869       103.8895 
 173   0.0000       3.861989       105.0901 
 174   0.0000       3.906495       106.3011 
 175   0.0000       3.959773       107.7509 
 176   0.0000       3.965982       107.9198 
 177   0.0000       4.068232       110.7022 
 178   0.0000       4.099873       111.5632 
 179   0.0000       4.190992       114.0427 
 180   0.0000       4.212900       114.6388 
 181   0.0000       4.273850       116.2974 
 182   0.0000       4.313563       117.3780 
 183   0.0000       4.367980       118.8588 
 184   0.0000       4.395590       119.6101 
 185   0.0000       4.454443       121.2116 
 186   0.0000       4.497953       122.3955 
 187   0.0000       4.524359       123.1141 
 188   0.0000       4.636887       126.1761 
 189   0.0000       4.693689       127.7218 
 190   0.0000       4.796707       130.5250 
 191   0.0000       4.944754       134.5536 
 192   0.0000       5.176304       140.8544 
 193   0.0000       5.182609       141.0260 
 194   0.0000       5.407817       147.1542 
 195   0.0000       5.419455       147.4709 
 196   0.0000       5.850884       159.2107 
 197   0.0000       5.902952       160.6275 
 198   0.0000       5.966228       162.3493 
 199   0.0000       6.359080       173.0394 
 200   0.0000       6.378310       173.5626 
 201   0.0000       6.788988       184.7378 
 202   0.0000       6.869146       186.9190 
 203   0.0000       6.924539       188.4263 
 204   0.0000      22.010831       598.9452 
 205   0.0000      22.064234       600.3983 
 206   0.0000      22.168041       603.2231 
 207   0.0000      22.363973       608.5546 
 208   0.0000      43.534552      1184.6354 

                    ********************************
                    * MULLIKEN POPULATION ANALYSIS *
                    ********************************

-----------------------
MULLIKEN ATOMIC CHARGES
-----------------------
   0 C :   -0.324430
   1 C :    0.091319
   2 O :   -0.818890
   3 H :    0.070974
   4 C :   -0.114477
   5 H :   -0.076363
   6 H :    0.087143
   7 C :   -0.341248
   8 H :    0.064740
   9 H :    0.051598
  10 H :    0.035647
  11 H :    0.094132
  12 H :    0.114246
  13 H :    0.065611
Sum of atomic charges:   -1.0000000

--------------------------------
MULLIKEN REDUCED ORBITAL CHARGES
--------------------------------
  0 C s       :     3.193727  s :     3.193727
      pz      :     1.041060  p :     3.075484
      px      :     1.049330
      py      :     0.985094
      dz2     :     0.004973  d :     0.052026
      dxz     :     0.010365
      dyz     :     0.013506
      dx2y2   :     0.005726
      dxy     :     0.017456
      f0      :     0.000418  f :     0.003192
      f+1     :     0.000692
      f-1     :     0.000122
      f+2     :     0.000306
      f-2     :     0.000182
      f+3     :     0.000650
      f-3     :     0.000824
  1 C s       :     3.154553  s :     3.154553
      pz      :     0.942121  p :     2.588749
      px      :     0.813093
      py      :     0.833535
      dz2     :     0.021722  d :     0.153186
      dxz     :     0.028796
      dyz     :     0.024353
      dx2y2   :     0.045941
      dxy     :     0.032374
      f0      :     0.001712  f :     0.012193
      f+1     :     0.001488
      f-1     :     0.000514
      f+2     :     0.000655
      f-2     :     0.002266
      f+3     :     0.003085
      f-3     :     0.002473
  2 O s       :     3.810820  s :     3.810820
      pz      :     1.788204  p :     4.984303
      px      :     1.566142
      py      :     1.629957
      dz2     :     0.003107  d :     0.022485
      dxz     :     0.003259
      dyz     :     0.002116
      dx2y2   :     0.005209
      dxy     :     0.008794
      f0      :     0.000115  f :     0.001282
      f+1     :     0.000147
      f-1     :     0.000113
      f+2     :     0.000018
      f-2     :     0.000196
      f+3     :     0.000316
      f-3     :     0.000375
  3 H s       :     0.908351  s :     0.908351
      pz      :     0.004554  p :     0.020675
      px      :     0.007948
      py      :     0.008174
  4 C s       :     3.129996  s :     3.129996
      pz      :     0.994382  p :     2.886512
      px      :     0.950193
      py      :     0.941936
      dz2     :     0.022065  d :     0.092610
      dxz     :     0.011901
      dyz     :     0.014883
      dx2y2   :     0.014816
      dxy     :     0.028945
      f0      :     0.000849  f :     0.005359
      f+1     :     0.001100
      f-1     :     0.000173
      f+2     :     0.000450
      f-2     :     0.000785
      f+3     :     0.000765
      f-3     :     0.001237
  5 H s       :     1.057299  s :     1.057299
      pz      :     0.009730  p :     0.019065
      px      :     0.005495
      py      :     0.003840
  6 H s       :     0.891901  s :     0.891901
      pz      :     0.007783  p :     0.020957
      px      :     0.008124
      py      :     0.005050
  7 C s       :     3.217198  s :     3.217198
      pz      :     1.047764  p :     3.066510
      px      :     1.034898
      py      :     0.983848
      dz2     :     0.004047  d :     0.054298
      dxz     :     0.011305
      dyz     :     0.012465
      dx2y2   :     0.010419
      dxy     :     0.016063
      f0      :     0.000417  f :     0.003243
      f+1     :     0.000763
      f-1     :     0.000059
      f+2     :     0.000259
      f-2     :     0.000262
      f+3     :     0.000504
      f-3     :     0.000979
  8 H s       :     0.914474  s :     0.914474
      pz      :     0.009783  p :     0.020786
      px      :     0.006104
      py      :     0.004898
  9 H s       :     0.927450  s :     0.927450
      pz      :     0.004616  p :     0.020952
      px      :     0.008258
      py      :     0.008078
 10 H s       :     0.943406  s :     0.943406
      pz      :     0.010730  p :     0.020947
      px      :     0.005531
      py      :     0.004687
 11 H s       :     0.885307  s :     0.885307
      pz      :     0.009693  p :     0.020561
      px      :     0.006013
      py      :     0.004854
 12 H s       :     0.865066  s :     0.865066
      pz      :     0.007992  p :     0.020688
      px      :     0.007646
      py      :     0.005050
 13 H s       :     0.912723  s :     0.912723
      pz      :     0.004584  p :     0.021666
      px      :     0.009034
      py      :     0.008048


                     *******************************
                     * LOEWDIN POPULATION ANALYSIS *
                     *******************************

----------------------
LOEWDIN ATOMIC CHARGES
----------------------
   0 C :   -0.349114
   1 C :   -0.555658
   2 O :   -0.407697
   3 H :    0.105542
   4 C :   -0.314674
   5 H :    0.086940
   6 H :    0.104452
   7 C :   -0.350527
   8 H :    0.103933
   9 H :    0.122347
  10 H :    0.118395
  11 H :    0.114462
  12 H :    0.114255
  13 H :    0.107343

-------------------------------
LOEWDIN REDUCED ORBITAL CHARGES
-------------------------------
  0 C s       :     2.867232  s :     2.867232
      pz      :     1.072548  p :     3.202951
      px      :     1.070106
      py      :     1.060298
      dz2     :     0.040062  d :     0.256162
      dxz     :     0.056248
      dyz     :     0.046441
      dx2y2   :     0.039085
      dxy     :     0.074327
      f0      :     0.002488  f :     0.022769
      f+1     :     0.002767
      f-1     :     0.002883
      f+2     :     0.004473
      f-2     :     0.001795
      f+3     :     0.003370
      f-3     :     0.004993
  1 C s       :     2.775484  s :     2.775484
      pz      :     0.985978  p :     2.911531
      px      :     0.953308
      py      :     0.972245
      dz2     :     0.115513  d :     0.777271
      dxz     :     0.194784
      dyz     :     0.090135
      dx2y2   :     0.217819
      dxy     :     0.159020
      f0      :     0.010662  f :     0.091372
      f+1     :     0.009578
      f-1     :     0.006592
      f+2     :     0.007632
      f-2     :     0.016937
      f+3     :     0.022242
      f-3     :     0.017729
  2 O s       :     3.488498  s :     3.488498
      pz      :     1.713784  p :     4.861357
      px      :     1.554149
      py      :     1.593424
      dz2     :     0.006317  d :     0.053873
      dxz     :     0.009066
      dyz     :     0.005491
      dx2y2   :     0.014929
      dxy     :     0.018071
      f0      :     0.000398  f :     0.003969
      f+1     :     0.000401
      f-1     :     0.000328
      f+2     :     0.000055
      f-2     :     0.000676
      f+3     :     0.000996
      f-3     :     0.001116
  3 H s       :     0.833271  s :     0.833271
      pz      :     0.013499  p :     0.061187
      px      :     0.024782
      py      :     0.022906
  4 C s       :     2.809457  s :     2.809457
      pz      :     1.029544  p :     3.075445
      px      :     1.022843
      py      :     1.023058
      dz2     :     0.092872  d :     0.393425
      dxz     :     0.067029
      dyz     :     0.054252
      dx2y2   :     0.063209
      dxy     :     0.116063
      f0      :     0.004512  f :     0.036347
      f+1     :     0.005737
      f-1     :     0.003641
      f+2     :     0.005569
      f-2     :     0.004948
      f+3     :     0.004643
      f-3     :     0.007298
  5 H s       :     0.861498  s :     0.861498
      pz      :     0.026266  p :     0.051562
      px      :     0.015357
      py      :     0.009939
  6 H s       :     0.834741  s :     0.834741
      pz      :     0.023454  p :     0.060808
      px      :     0.023483
      py      :     0.013870
  7 C s       :     2.844480  s :     2.844480
      pz      :     1.070815  p :     3.213042
      px      :     1.069682
      py      :     1.072544
      dz2     :     0.036531  d :     0.268416
      dxz     :     0.059107
      dyz     :     0.044922
      dx2y2   :     0.047954
      dxy     :     0.079901
      f0      :     0.002563  f :     0.024589
      f+1     :     0.003008
      f-1     :     0.002911
      f+2     :     0.004198
      f-2     :     0.002058
      f+3     :     0.003650
      f-3     :     0.006201
  8 H s       :     0.835186  s :     0.835186
      pz      :     0.029822  p :     0.060881
      px      :     0.017342
      py      :     0.013716
  9 H s       :     0.818897  s :     0.818897
      pz      :     0.013512  p :     0.058756
      px      :     0.023642
      py      :     0.021602
 10 H s       :     0.823214  s :     0.823214
      pz      :     0.029398  p :     0.058391
      px      :     0.016249
      py      :     0.012745
 11 H s       :     0.825322  s :     0.825322
      pz      :     0.029466  p :     0.060216
      px      :     0.017303
      py      :     0.013446
 12 H s       :     0.824982  s :     0.824982
      pz      :     0.024336  p :     0.060762
      px      :     0.022545
      py      :     0.013882
 13 H s       :     0.830339  s :     0.830339
      pz      :     0.013358  p :     0.062318
      px      :     0.026564
      py      :     0.022396


                      *****************************
                      * MAYER POPULATION ANALYSIS *
                      *****************************

  NA   - Mulliken gross atomic population
  ZA   - Total nuclear charge
  QA   - Mulliken gross atomic charge
  VA   - Mayer's total valence
  BVA  - Mayer's bonded valence
  FA   - Mayer's free valence

  ATOM       NA         ZA         QA         VA         BVA        FA
  0 C      6.3244     6.0000    -0.3244     3.6809     3.6809     0.0000
  1 C      5.9087     6.0000     0.0913     4.2873     4.2873    -0.0000
  2 O      8.8189     8.0000    -0.8189     1.5943     1.5943    -0.0000
  3 H      0.9290     1.0000     0.0710     0.9984     0.9984    -0.0000
  4 C      6.1145     6.0000    -0.1145     3.6246     3.6246    -0.0000
  5 H      1.0764     1.0000    -0.0764     0.9279     0.9279    -0.0000
  6 H      0.9129     1.0000     0.0871     0.9976     0.9976    -0.0000
  7 C      6.3412     6.0000    -0.3412     3.8427     3.8427     0.0000
  8 H      0.9353     1.0000     0.0647     1.0204     1.0204    -0.0000
  9 H      0.9484     1.0000     0.0516     0.9894     0.9894    -0.0000
 10 H      0.9644     1.0000     0.0356     1.0182     1.0182     0.0000
 11 H      0.9059     1.0000     0.0941     0.9853     0.9853    -0.0000
 12 H      0.8858     1.0000     0.1142     0.9688     0.9688     0.0000
 13 H      0.9344     1.0000     0.0656     1.0497     1.0497    -0.0000

  Mayer bond orders larger than 0.100000
B(  0-C ,  1-C ) :   0.9369 B(  0-C ,  3-H ) :   0.9412 B(  0-C ,  6-H ) :   0.9712 
B(  0-C ,  8-H ) :   0.9588 B(  1-C ,  2-O ) :   1.5181 B(  1-C ,  4-C ) :   0.9253 
B(  1-C ,  5-H ) :   0.8910 B(  2-O ,  4-C ) :  -0.1201 B(  4-C ,  7-C ) :   1.0071 
B(  4-C ,  9-H ) :   0.9279 B(  4-C , 10-H ) :   0.9383 B(  7-C , 11-H ) :   0.9626 
B(  7-C , 12-H ) :   0.9675 B(  7-C , 13-H ) :   0.9568 

-------
TIMINGS
-------

Total SCF time: 0 days 0 hours 0 min 20 sec 

Total time                  ....      20.110 sec
Sum of individual times     ....      17.997 sec  ( 89.5%)

Fock matrix formation       ....      16.522 sec  ( 82.2%)
  Split-RI-J                ....       2.465 sec  ( 14.9% of F)
  XC integration            ....       8.074 sec  ( 48.9% of F)
    Basis function eval.    ....       2.281 sec  ( 28.3% of XC)
    Density eval.           ....       1.570 sec  ( 19.4% of XC)
    XC-Functional eval.     ....       0.378 sec  (  4.7% of XC)
    XC-Potential eval.      ....       1.653 sec  ( 20.5% of XC)
Diagonalization             ....       0.007 sec  (  0.0%)
Density matrix formation    ....       0.003 sec  (  0.0%)
Population analysis         ....       0.423 sec  (  2.1%)
Initial guess               ....       0.009 sec  (  0.0%)
Orbital Transformation      ....       0.000 sec  (  0.0%)
Orbital Orthonormalization  ....       0.007 sec  (  0.0%)
DIIS solution               ....       0.002 sec  (  0.0%)
SOSCF solution              ....       0.224 sec  (  1.1%)
Grid generation             ....       0.808 sec  (  4.0%)

Maximum memory used throughout the entire SCF-calculation: 67.0 MB


-------------------------------------------------------------------------------
                          DFT DISPERSION CORRECTION                            
                                                                               
                              DFTD3 V3.1  Rev 1                                
                          USING Becke-Johnson damping                          
-------------------------------------------------------------------------------
The PBE functional is recognized
Active option DFTDOPT                   ...         4   

molecular C6(AA) [au] = 1325.125972 


            DFT-D V3
 parameters
 s6 scaling factor         :     1.0000 
 a1 scaling factor         :     0.4289 
 s8 scaling factor         :     0.7875 
 a2 scaling factor         :     4.4407 
 ad hoc parameters k1-k3   :    16.0000     1.3333    -4.0000 

 Edisp/kcal,au: -6.032891296957  -0.009614023218 
 E6   /kcal   :  -4.369767968 
 E8   /kcal   :  -1.663123329 
 % E8         :  27.567599801 

-------------------------   ----------------
Dispersion correction           -0.009614023
-------------------------   ----------------


-------------------------   --------------------
FINAL SINGLE POINT ENERGY      -232.956299871315
-------------------------   --------------------

                                *** OPTIMIZATION RUN DONE ***

                            ***************************************
                            *     ORCA property calculations      *
                            ***************************************

                                    ---------------------
                                    Active property flags
                                    ---------------------
   (+) Dipole Moment


------------------------------------------------------------------------------
                       ORCA ELECTRIC PROPERTIES CALCULATION
------------------------------------------------------------------------------

Dipole Moment Calculation                       ... on
Quadrupole Moment Calculation                   ... off
Polarizability Calculation                      ... off
GBWName                                         ... inp.gbw
Electron density                                ... inp.scfp
The origin for moment calculation is the CENTER OF MASS  = (-8.551789, -4.168413 -4.647117)

-------------
DIPOLE MOMENT
-------------
                                X             Y             Z
Electronic contribution:      2.24919       1.19068      -0.53759
Nuclear contribution   :     -4.32113      -2.16310       1.10401
                        -----------------------------------------
Total Dipole Moment    :     -2.07194      -0.97242       0.56642
                        -----------------------------------------
Magnitude (a.u.)       :      2.35783
Magnitude (Debye)      :      5.99312



--------------------
Rotational spectrum 
--------------------
 
Rotational constants in cm-1:     0.277534     0.115767     0.089923 
Rotational constants in MHz :  8320.273987  3470.605471  2695.820817 

 Dipole components along the rotational axes: 
x,y,z [a.u.] :     0.960940    -2.143417    -0.204215 
x,y,z [Debye]:     2.442515    -5.448133    -0.519072 

 

Timings for individual modules:

Sum of individual times         ...      291.562 sec (=   4.859 min)
GTO integral calculation        ...       10.666 sec (=   0.178 min)   3.7 %
SCF iterations                  ...      205.476 sec (=   3.425 min)  70.5 %
SCF Gradient evaluation         ...       73.477 sec (=   1.225 min)  25.2 %
Geometry relaxation             ...        1.944 sec (=   0.032 min)   0.7 %
                             ****ORCA TERMINATED NORMALLY****
TOTAL RUN TIME: 0 days 0 hours 4 minutes 58 seconds 175 msec
