 Entering Gaussian System
 *********************************************
 Gaussian 98:
 frequency output generated by the xtb code
 *********************************************
                         Standard orientation:
 --------------------------------------------------------------------
  Center     Atomic     Atomic              Coordinates (Angstroms)
  Number     Number      Type              X           Y           Z
 --------------------------------------------------------------------
    1          6             0       -3.844126   -4.078084    1.870636
    2          6             0       -2.807520   -3.118459    2.590290
    3          1             0       -3.540994   -4.217785    0.833820
    4          1             0       -3.831142   -5.050224    2.361716
    5          1             0       -4.861193   -3.679961    1.894390
    6          6             0       -3.389250   -2.904623    4.049475
    7          1             0       -4.415362   -2.529971    4.034538
    8          6             0       -2.976705   -1.716180    1.870345
    9          1             0       -3.364349   -3.852175    4.586041
   10          1             0       -2.759357   -2.195193    4.584588
   11          8             0       -1.582746   -3.568284    2.576898
   12          1             0       -4.009142   -1.359989    1.896795
   13          1             0       -2.335269   -0.984196    2.359359
   14          1             0       -2.658193   -1.806744    0.832680
 --------------------------------------------------------------------
     1 basis functions        1 primitive gaussians
     1 alpha electrons        1 beta electrons
 
 Harmonic frequencies (cm**-1), IR intensities (km*mol⁻¹),
 Raman scattering activities (A**4/amu), Raman depolarization ratios,
 reduced masses (AMU), force constants (mDyne/A) and normal coordinates:
                      1                      2                      3
                        a                      a                      a 
 Frequencies --   147.8648               222.9358               222.9879
 Red. masses --     1.0935                 1.4826                 1.4810
 Frc consts  --     0.0000                 0.0000                 0.0000
 IR Inten    --     0.0002                 0.5072                 0.5059
 Raman Activ --     0.0000                 0.0000                 0.0000
 Depolar     --     0.0000                 0.0000                 0.0000
 Atom AN      X      Y      Z        X      Y      Z        X      Y      Z
   1   6     0.01   0.02  -0.04     0.06  -0.06   0.01    -0.03  -0.01   0.05
   2   6     0.00  -0.00   0.00    -0.00  -0.00  -0.00    -0.00   0.00   0.00
   3   1     0.20  -0.24   0.08     0.12  -0.15   0.05     0.23  -0.34   0.13
   4   1    -0.25   0.10   0.18    -0.10   0.03   0.10    -0.33   0.13   0.28
   5   1     0.06   0.17  -0.30     0.04   0.06  -0.14     0.06   0.20  -0.35
   6   6    -0.02  -0.05  -0.00    -0.03  -0.05  -0.00     0.08  -0.04   0.02
   7   1    -0.12  -0.33   0.00     0.15   0.41  -0.00     0.05   0.05   0.01
   8   6     0.01   0.02   0.04    -0.07  -0.01  -0.02    -0.05   0.03   0.05
   9   1     0.31   0.05   0.09    -0.44  -0.11  -0.14    -0.04  -0.03  -0.02
  10   1    -0.20   0.23  -0.09     0.26  -0.36   0.14     0.07  -0.07   0.03
  11   8     0.00  -0.00  -0.00     0.05   0.13   0.02     0.01   0.02  -0.14
  12   1     0.06   0.16   0.30     0.03   0.13   0.24    -0.08  -0.16  -0.29
  13   1     0.25  -0.09  -0.18     0.19  -0.07  -0.18    -0.29   0.10   0.23
  14   1    -0.31  -0.05  -0.08    -0.30  -0.07  -0.09     0.32   0.09   0.11
                      4                      5                      6
                        a                      a                      a 
 Frequencies --   324.1004               324.1122               415.2266
 Red. masses --     8.7422                 8.7413                 8.2635
 Frc consts  --     0.0000                 0.0000                 0.0000
 IR Inten    --     3.6739                 3.6756                 4.6407
 Raman Activ --     0.0000                 0.0000                 0.0000
 Depolar     --     0.0000                 0.0000                 0.0000
 Atom AN      X      Y      Z        X      Y      Z        X      Y      Z
   1   6    -0.21   0.29   0.01     0.12   0.15  -0.40     0.10  -0.25  -0.12
   2   6     0.03   0.07   0.07    -0.02  -0.06   0.07    -0.36   0.13   0.00
   3   1    -0.11   0.09  -0.02     0.16   0.14  -0.09     0.16  -0.06   0.00
   4   1    -0.16   0.06  -0.04    -0.04  -0.01  -0.21     0.16  -0.05  -0.00
   5   1    -0.01   0.19   0.05     0.04   0.06  -0.20    -0.04  -0.24  -0.14
   6   6     0.08  -0.38   0.12     0.31   0.20   0.13     0.17  -0.06   0.23
   7   1    -0.00  -0.17   0.12     0.11   0.11   0.13     0.04  -0.02   0.28
   8   6     0.03  -0.18  -0.39    -0.34  -0.10  -0.03     0.24   0.12  -0.12
   9   1     0.10  -0.18  -0.09     0.11   0.09   0.09     0.16  -0.06  -0.01
  10   1     0.01  -0.14   0.10     0.19   0.05  -0.08     0.16  -0.06  -0.01
  11   8     0.10   0.28   0.27    -0.09  -0.25   0.30    -0.41   0.15   0.00
  12   1     0.00  -0.06  -0.20    -0.14  -0.14   0.03     0.12   0.21  -0.14
  13   1    -0.01   0.03  -0.21    -0.16   0.06  -0.06     0.16  -0.06  -0.00
  14   1     0.04  -0.21  -0.09    -0.14  -0.02  -0.02     0.16  -0.06   0.00
                      7                      8                      9
                        a                      a                      a 
 Frequencies --   469.5871               469.6375               701.0341
 Red. masses --     9.8593                 9.8580                 9.8220
 Frc consts  --     0.0000                 0.0000                 0.0000
 IR Inten    --     4.3050                 4.3968                21.0272
 Raman Activ --     0.0000                 0.0000                 0.0000
 Depolar     --     0.0000                 0.0000                 0.0000
 Atom AN      X      Y      Z        X      Y      Z        X      Y      Z
   1   6    -0.31  -0.18  -0.23     0.16   0.16  -0.05     0.24   0.34   0.23
   2   6    -0.10  -0.27  -0.03    -0.01  -0.03   0.29    -0.27   0.10   0.00
   3   1    -0.13  -0.00  -0.09     0.18   0.18   0.01     0.13   0.10   0.08
   4   1    -0.21  -0.09  -0.14     0.01  -0.01  -0.13     0.13   0.10   0.08
   5   1    -0.03   0.08  -0.02     0.04   0.02  -0.10     0.03   0.02   0.02
   6   6     0.08   0.14  -0.04    -0.22   0.10   0.39     0.10  -0.04  -0.46
   7   1     0.04   0.10   0.01    -0.06   0.03  -0.04     0.02  -0.01  -0.03
   8   6     0.11  -0.28   0.24     0.05  -0.30   0.00    -0.03  -0.41   0.23
   9   1     0.01   0.12   0.13    -0.15   0.06   0.17     0.08  -0.03  -0.16
  10   1     0.10   0.09  -0.17    -0.13   0.07   0.14     0.08  -0.03  -0.16
  11   8     0.18   0.48   0.06     0.01   0.06  -0.51    -0.17   0.06   0.00
  12   1     0.07   0.04   0.04     0.03  -0.03  -0.09     0.01  -0.04   0.02
  13   1     0.09  -0.20   0.16     0.04  -0.04  -0.10     0.03  -0.16   0.08
  14   1     0.09  -0.03   0.08     0.05  -0.26   0.03     0.03  -0.16   0.08
                     10                     11                     12
                        a                      a                      a 
 Frequencies --   787.7970               787.8818               878.3807
 Red. masses --     7.5581                 7.5577                 2.7269
 Frc consts  --     0.0000                 0.0000                 0.0000
 IR Inten    --    37.8138                37.4999                 0.0008
 Raman Activ --     0.0000                 0.0000                 0.0000
 Depolar     --     0.0000                 0.0000                 0.0000
 Atom AN      X      Y      Z        X      Y      Z        X      Y      Z
   1   6     0.11   0.11  -0.09     0.34   0.15   0.19    -0.04  -0.11   0.20
   2   6     0.04   0.14  -0.50    -0.18  -0.47  -0.14     0.00  -0.00   0.00
   3   1    -0.15  -0.17  -0.06    -0.02   0.08   0.01     0.23   0.28   0.08
   4   1     0.11   0.13   0.16    -0.08  -0.00  -0.02    -0.19  -0.18  -0.25
   5   1     0.04   0.04   0.09     0.19   0.27   0.17     0.02   0.06  -0.10
   6   6    -0.23   0.13   0.32    -0.12  -0.12   0.09     0.08   0.21   0.00
   7   1    -0.08   0.01   0.36    -0.00   0.06   0.10    -0.04  -0.11  -0.00
   8   6     0.10  -0.32   0.02    -0.13   0.20  -0.21    -0.04  -0.11  -0.20
   9   1     0.07  -0.03  -0.05    -0.03   0.07   0.21     0.07  -0.13  -0.33
  10   1     0.03  -0.04   0.08     0.10   0.02  -0.21    -0.14  -0.05   0.33
  11   8    -0.00  -0.00   0.01     0.00   0.01   0.00     0.00  -0.00  -0.00
  12   1    -0.01  -0.22   0.17     0.03   0.25  -0.09     0.02   0.05   0.10
  13   1    -0.04  -0.11   0.12     0.05  -0.14   0.10     0.03  -0.26   0.25
  14   1    -0.04   0.16  -0.04     0.05   0.16  -0.04     0.01   0.36  -0.08
                     13                     14                     15
                        a                      a                      a 
 Frequencies --   972.3010               972.3178              1017.9694
 Red. masses --     4.1481                 4.1477                 7.3879
 Frc consts  --     0.0000                 0.0000                 0.0000
 IR Inten    --     2.5073                 2.4831                 2.9298
 Raman Activ --     0.0000                 0.0000                 0.0000
 Depolar     --     0.0000                 0.0000                 0.0000
 Atom AN      X      Y      Z        X      Y      Z        X      Y      Z
   1   6    -0.21   0.26   0.09     0.04   0.08  -0.18     0.22  -0.12  -0.03
   2   6    -0.05  -0.12  -0.09     0.03   0.08  -0.13    -0.01   0.00   0.00
   3   1     0.23   0.07   0.11    -0.16  -0.18  -0.07    -0.14  -0.03  -0.06
   4   1     0.25   0.10   0.08     0.12   0.13   0.16    -0.15  -0.05  -0.03
   5   1    -0.22  -0.33  -0.22    -0.00  -0.02   0.07     0.18   0.25   0.17
   6   6     0.09  -0.22   0.10     0.27   0.02   0.16     0.24  -0.09   0.04
   7   1     0.06   0.04  -0.24     0.06  -0.06  -0.38     0.07  -0.03  -0.34
   8   6     0.12  -0.06  -0.20    -0.31  -0.09   0.01     0.25  -0.05  -0.03
   9   1    -0.15   0.09   0.29    -0.13  -0.00   0.04    -0.12   0.02   0.10
  10   1    -0.02   0.06  -0.09    -0.19   0.06   0.28    -0.11   0.06   0.10
  11   8     0.03   0.09   0.06    -0.02  -0.06   0.10    -0.50   0.18   0.01
  12   1    -0.01  -0.15   0.15     0.05   0.37  -0.17    -0.03  -0.31   0.17
  13   1    -0.04  -0.06   0.11     0.12  -0.29   0.14    -0.08   0.13  -0.03
  14   1    -0.06   0.31  -0.11     0.11  -0.08   0.07    -0.09   0.11  -0.06
                     16                     17                     18
                        a                      a                      a 
 Frequencies --  1105.7790              1105.8769              1272.0073
 Red. masses --     7.8094                 7.8086                12.2567
 Frc consts  --     0.0000                 0.0000                 0.0000
 IR Inten    --   136.6454               136.9292               426.3507
 Raman Activ --     0.0000                 0.0000                 0.0000
 Depolar     --     0.0000                 0.0000                 0.0000
 Atom AN      X      Y      Z        X      Y      Z        X      Y      Z
   1   6     0.05   0.04  -0.25     0.01   0.18  -0.10     0.06  -0.09  -0.04
   2   6     0.03   0.05   0.66    -0.23  -0.62   0.06    -0.73   0.27   0.01
   3   1    -0.21  -0.22  -0.09    -0.03  -0.12  -0.01    -0.07   0.01  -0.03
   4   1     0.08   0.12   0.16     0.17   0.13   0.15    -0.08  -0.01   0.00
   5   1     0.01  -0.00   0.12    -0.05  -0.10   0.02     0.05   0.09   0.06
   6   6    -0.07  -0.00  -0.12     0.10   0.28  -0.01     0.09  -0.03   0.07
   7   1    -0.01   0.02   0.11    -0.04  -0.12   0.01     0.01  -0.00  -0.12
   8   6    -0.01  -0.09  -0.26     0.11   0.13   0.05     0.11   0.02  -0.04
   9   1     0.07  -0.01  -0.05     0.06  -0.11  -0.31    -0.07   0.01   0.04
  10   1     0.08  -0.03  -0.10    -0.10  -0.05   0.29    -0.06   0.04   0.04
  11   8    -0.00  -0.01  -0.12     0.04   0.11  -0.01     0.50  -0.18  -0.01
  12   1     0.01   0.01   0.12    -0.02  -0.11   0.00    -0.02  -0.10   0.06
  13   1    -0.01  -0.18   0.19    -0.05   0.18  -0.12    -0.05   0.06   0.00
  14   1    -0.00   0.32  -0.09    -0.05  -0.06  -0.01    -0.06   0.04  -0.03
                     19                     20                     21
                        a                      a                      a 
 Frequencies --  1336.3147              1336.3375              1362.8023
 Red. masses --     2.9865                 2.9864                 3.0416
 Frc consts  --     0.0000                 0.0000                 0.0000
 IR Inten    --     1.8211                 1.8300                 1.3365
 Raman Activ --     0.0000                 0.0000                 0.0000
 Depolar     --     0.0000                 0.0000                 0.0000
 Atom AN      X      Y      Z        X      Y      Z        X      Y      Z
   1   6    -0.17  -0.15  -0.11    -0.15  -0.14  -0.11     0.17   0.14   0.11
   2   6     0.00   0.00  -0.00     0.00   0.00   0.00    -0.02   0.01   0.00
   3   1     0.24   0.18   0.05     0.23   0.17   0.05    -0.24  -0.18  -0.05
   4   1     0.22   0.10   0.19     0.20   0.10   0.18    -0.21  -0.10  -0.19
   5   1     0.11   0.25   0.15     0.10   0.23   0.15    -0.10  -0.24  -0.15
   6   6    -0.03   0.00   0.07     0.12  -0.05  -0.31     0.10  -0.04  -0.22
   7   1     0.01   0.01  -0.10    -0.01   0.01   0.42    -0.00   0.00   0.30
   8   6     0.04  -0.29   0.15    -0.01   0.08  -0.05     0.04  -0.22   0.11
   9   1     0.04  -0.04  -0.08    -0.17   0.18   0.33    -0.12   0.13   0.24
  10   1     0.05   0.01  -0.08    -0.25  -0.03   0.33    -0.18  -0.02   0.24
  11   8     0.00  -0.00   0.00    -0.00   0.00  -0.00    -0.01   0.00   0.00
  12   1     0.11   0.34  -0.20    -0.03  -0.10   0.07     0.08   0.25  -0.15
  13   1    -0.13   0.29  -0.26     0.03  -0.09   0.08    -0.10   0.21  -0.19
  14   1    -0.09   0.39  -0.06     0.03  -0.12   0.02    -0.07   0.29  -0.05
                     22                     23                     24
                        a                      a                      a 
 Frequencies --  1493.0694              1505.3449              1505.4115
 Red. masses --     1.7001                 1.6361                 1.6362
 Frc consts  --     0.0000                 0.0000                 0.0000
 IR Inten    --     0.0011                 7.2505                 7.0072
 Raman Activ --     0.0000                 0.0000                 0.0000
 Depolar     --     0.0000                 0.0000                 0.0000
 Atom AN      X      Y      Z        X      Y      Z        X      Y      Z
   1   6    -0.02  -0.07   0.13    -0.01  -0.10   0.13    -0.05  -0.00   0.09
   2   6    -0.00  -0.00   0.00     0.00  -0.00   0.05    -0.02  -0.04  -0.00
   3   1    -0.24   0.07  -0.07    -0.32   0.14  -0.11    -0.11  -0.09  -0.02
   4   1     0.26  -0.02  -0.02     0.28   0.02   0.03     0.24  -0.06  -0.12
   5   1     0.07   0.20  -0.37     0.07   0.22  -0.45     0.06   0.17  -0.20
   6   6     0.05   0.14  -0.00    -0.05   0.01  -0.03    -0.06  -0.17   0.00
   7   1    -0.14  -0.39   0.00     0.01   0.02  -0.06     0.19   0.53   0.00
   8   6    -0.03  -0.07  -0.13     0.06   0.08   0.12     0.03  -0.04  -0.10
   9   1    -0.25   0.03   0.06     0.14   0.05   0.08     0.34  -0.05  -0.09
  10   1     0.21  -0.14  -0.06     0.05  -0.11   0.09    -0.29   0.19   0.09
  11   8     0.00  -0.00  -0.00    -0.00   0.00  -0.01     0.00   0.01   0.00
  12   1     0.08   0.20   0.37    -0.08  -0.20  -0.43     0.07   0.18   0.24
  13   1    -0.21   0.16   0.02     0.18  -0.18   0.04    -0.23   0.12   0.12
  14   1     0.23  -0.10   0.07    -0.33   0.09  -0.10     0.05  -0.15   0.02
                     25                     26                     27
                        a                      a                      a 
 Frequencies --  1515.4011              1515.4371              1530.2270
 Red. masses --     1.6824                 1.6823                 1.6449
 Frc consts  --     0.0000                 0.0000                 0.0000
 IR Inten    --     0.0051                 0.0028                 6.8240
 Raman Activ --     0.0000                 0.0000                 0.0000
 Depolar     --     0.0000                 0.0000                 0.0000
 Atom AN      X      Y      Z        X      Y      Z        X      Y      Z
   1   6    -0.14   0.12   0.03     0.03   0.01  -0.05     0.10  -0.09  -0.03
   2   6     0.01   0.03   0.01     0.00   0.01  -0.03     0.06  -0.02  -0.00
   3   1     0.19  -0.46   0.12     0.07   0.05   0.01    -0.12   0.34  -0.09
   4   1     0.25  -0.19  -0.38    -0.15   0.03   0.06    -0.19   0.14   0.29
   5   1     0.06   0.17   0.13    -0.04  -0.11   0.13    -0.06  -0.14  -0.09
   6   6     0.08   0.03   0.03    -0.15   0.08  -0.07     0.11  -0.04   0.05
   7   1    -0.05  -0.15   0.08    -0.02  -0.06  -0.21     0.00  -0.00   0.18
   8   6     0.13   0.02   0.01     0.14  -0.02  -0.06     0.13   0.00  -0.03
   9   1    -0.24  -0.04  -0.07     0.34   0.16   0.25    -0.30  -0.12  -0.20
  10   1     0.01   0.09  -0.12     0.23  -0.38   0.23    -0.15   0.28  -0.20
  11   8    -0.00  -0.00  -0.00     0.00  -0.00   0.00    -0.02   0.01   0.00
  12   1     0.02   0.05  -0.19     0.07   0.19   0.00     0.05   0.15  -0.09
  13   1    -0.14  -0.03   0.24    -0.31   0.07   0.31    -0.24   0.02   0.29
  14   1    -0.34  -0.11  -0.10    -0.28  -0.22  -0.07    -0.32  -0.18  -0.08
                     28                     29                     30
                        a                      a                      a 
 Frequencies --  2927.4521              2927.4998              2947.0691
 Red. masses --     1.7381                 1.7382                 1.7110
 Frc consts  --     0.0000                 0.0000                 0.0000
 IR Inten    --     0.0426                 0.0435               419.8546
 Raman Activ --     0.0000                 0.0000                 0.0000
 Depolar     --     0.0000                 0.0000                 0.0000
 Atom AN      X      Y      Z        X      Y      Z        X      Y      Z
   1   6     0.04  -0.01  -0.01     0.19  -0.09  -0.01     0.13  -0.06  -0.01
   2   6     0.00   0.00  -0.00    -0.00  -0.00  -0.00     0.02  -0.01  -0.00
   3   1     0.00  -0.00   0.02     0.02  -0.01   0.03     0.02  -0.01   0.02
   4   1     0.01  -0.01   0.00     0.03   0.02  -0.02     0.02   0.01  -0.01
   5   1    -0.13   0.06   0.01    -0.71   0.31   0.03    -0.51   0.22   0.02
   6   6    -0.19   0.07  -0.02    -0.07   0.02  -0.01     0.14  -0.05   0.01
   7   1     0.70  -0.25   0.04     0.24  -0.09   0.01    -0.52   0.19  -0.03
   8   6     0.15  -0.04  -0.01    -0.13   0.03   0.01     0.14  -0.04  -0.01
   9   1    -0.03  -0.02   0.01    -0.01   0.00  -0.00     0.02   0.01  -0.01
  10   1    -0.02   0.03   0.01     0.00   0.02   0.01     0.01  -0.02  -0.01
  11   8    -0.00  -0.00   0.00     0.00   0.00   0.00    -0.00   0.00   0.00
  12   1    -0.57   0.17   0.03     0.49  -0.15  -0.02    -0.53   0.17   0.02
  13   1     0.02  -0.02  -0.01    -0.00   0.03   0.02     0.01  -0.02  -0.01
  14   1     0.02  -0.00   0.03    -0.02   0.00  -0.01     0.02  -0.00   0.02
                     31                     32                     33
                        a                      a                      a 
 Frequencies --  2985.6837              2996.7274              2996.8076
 Red. masses --     1.9696                 1.8843                 1.8829
 Frc consts  --     0.0000                 0.0000                 0.0000
 IR Inten    --     0.0049                88.4442                86.8806
 Raman Activ --     0.0000                 0.0000                 0.0000
 Depolar     --     0.0000                 0.0000                 0.0000
 Atom AN      X      Y      Z        X      Y      Z        X      Y      Z
   1   6    -0.03  -0.08   0.15    -0.03  -0.02   0.13    -0.02  -0.11   0.15
   2   6    -0.00   0.00  -0.00    -0.00  -0.01   0.00     0.00   0.00   0.01
   3   1     0.12  -0.06  -0.36     0.13  -0.05  -0.41     0.10  -0.06  -0.31
   4   1    -0.02   0.35  -0.17    -0.01   0.15  -0.06    -0.02   0.48  -0.24
   5   1    -0.00  -0.01   0.02    -0.00  -0.01   0.02    -0.01  -0.02   0.03
   6   6     0.06   0.16   0.00    -0.08  -0.21  -0.00    -0.02   0.03  -0.04
   7   1     0.01   0.03   0.00    -0.01  -0.04  -0.00     0.00   0.00  -0.01
   8   6    -0.03  -0.08  -0.15     0.02  -0.02  -0.11     0.05   0.10   0.17
   9   1     0.02  -0.34   0.19    -0.03   0.43  -0.25     0.00  -0.19   0.10
  10   1    -0.24  -0.25  -0.19     0.33   0.34   0.27     0.08   0.10   0.06
  11   8    -0.00  -0.00   0.00     0.00   0.00  -0.00    -0.00  -0.00  -0.00
  12   1    -0.00  -0.01  -0.02    -0.00  -0.00  -0.02     0.01   0.02   0.03
  13   1     0.24   0.25   0.17     0.05   0.05   0.02    -0.34  -0.36  -0.24
  14   1    -0.13   0.04   0.37    -0.12   0.04   0.37     0.14  -0.03  -0.37
                     34                     35                     36
                        a                      a                      a 
 Frequencies --  3002.7602              3002.7947              3007.7980
 Red. masses --     1.4742                 1.4726                 1.4252
 Frc consts  --     0.0000                 0.0000                 0.0000
 IR Inten    --   161.9657               160.9048                38.0808
 Raman Activ --     0.0000                 0.0000                 0.0000
 Depolar     --     0.0000                 0.0000                 0.0000
 Atom AN      X      Y      Z        X      Y      Z        X      Y      Z
   1   6     0.03  -0.04  -0.09     0.02  -0.13  -0.02    -0.03   0.10   0.05
   2   6    -0.00  -0.00  -0.01    -0.00  -0.01   0.00    -0.01   0.00   0.00
   3   1    -0.13   0.04   0.42    -0.10   0.02   0.34     0.12  -0.03  -0.38
   4   1     0.00   0.13  -0.09    -0.01   0.47  -0.26     0.01  -0.35   0.20
   5   1     0.03  -0.02  -0.02     0.04  -0.03  -0.00    -0.03   0.03   0.01
   6   6    -0.08   0.03  -0.13    -0.02  -0.07   0.01    -0.06   0.02  -0.09
   7   1    -0.06   0.02  -0.02    -0.00  -0.01   0.00    -0.04   0.01  -0.02
   8   6     0.04   0.00  -0.08    -0.11  -0.08   0.03    -0.08  -0.06   0.05
   9   1     0.01  -0.48   0.23    -0.01   0.17  -0.10     0.00  -0.36   0.18
  10   1     0.32   0.37   0.24     0.08   0.08   0.07     0.23   0.27   0.17
  11   8     0.00   0.00   0.00     0.00   0.00  -0.00     0.00  -0.00  -0.00
  12   1     0.03  -0.01  -0.01    -0.06   0.00   0.01    -0.04  -0.00   0.01
  13   1    -0.04  -0.05  -0.05     0.33   0.36   0.28     0.23   0.26   0.20
  14   1    -0.11   0.05   0.36     0.11  -0.06  -0.39     0.11  -0.05  -0.38
