      -----------------------------------------------------------      
     |                   =====================                   |     
     |                           x T B                           |     
     |                   =====================                   |     
     |                         S. Grimme                         |     
     |          Mulliken Center for Theoretical Chemistry        |     
     |                    University of Bonn                     |     
      -----------------------------------------------------------      

   * xtb version 6.7.1 (edcfbbe) compiled by 'albert@albert-system' on 2024-07-22

   xtb is free software: you can redistribute it and/or modify it under
   the terms of the GNU Lesser General Public License as published by
   the Free Software Foundation, either version 3 of the License, or
   (at your option) any later version.
   
   xtb is distributed in the hope that it will be useful,
   but WITHOUT ANY WARRANTY; without even the implied warranty of
   MERCHANTABILITY or FITNESS FOR A PARTICULAR PURPOSE.  See the
   GNU Lesser General Public License for more details.
   
   Cite this work as:
   * C. Bannwarth, E. Caldeweyher, S. Ehlert, A. Hansen, P. Pracht,
     J. Seibert, S. Spicher, S. Grimme, WIREs Comput. Mol. Sci., 2020, 11,
     e01493. DOI: 10.1002/wcms.1493
   
   for GFN2-xTB:
   * C. Bannwarth, S. Ehlert and S. Grimme., J. Chem. Theory Comput., 2019,
     15, 1652-1671. DOI: 10.1021/acs.jctc.8b01176
   for GFN1-xTB:
   * S. Grimme, C. Bannwarth, P. Shushkov, J. Chem. Theory Comput., 2017,
     13, 1989-2009. DOI: 10.1021/acs.jctc.7b00118
   for GFN0-xTB:
   * P. Pracht, E. Caldeweyher, S. Ehlert, S. Grimme, ChemRxiv, 2019, preprint.
     DOI: 10.26434/chemrxiv.8326202.v1
   for GFN-FF:
   * S. Spicher and S. Grimme, Angew. Chem. Int. Ed., 2020, 59, 15665-15673.
     DOI: 10.1002/anie.202004239
   
   for ALPB and GBSA implicit solvation:
   * S. Ehlert, M. Stahn, S. Spicher, S. Grimme, J. Chem. Theory Comput.,
     2021, 17, 4250-4261. DOI: 10.1021/acs.jctc.1c00471
   
   for ddCOSMO and CPCM-X implicit solvation:
   * M. Stahn, S. Ehlert, S. Grimme, J. Phys. Chem. A,
     2023, XX, XXXX-XXXX. DOI: 10.1021/acs.jpca.3c04382
   
   for DFT-D4:
   * E. Caldeweyher, C. Bannwarth and S. Grimme, J. Chem. Phys., 2017,
     147, 034112. DOI: 10.1063/1.4993215
   * E. Caldeweyher, S. Ehlert, A. Hansen, H. Neugebauer, S. Spicher,
     C. Bannwarth and S. Grimme, J. Chem. Phys., 2019, 150, 154122.
     DOI: 10.1063/1.5090222
   * E. Caldeweyher, J.-M. Mewes, S. Ehlert and S. Grimme, Phys. Chem. Chem. Phys.
     2020, 22, 8499-8512. DOI: 10.1039/D0CP00502A
   
   for sTDA-xTB:
   * S. Grimme and C. Bannwarth, J. Chem. Phys., 2016, 145, 054103.
     DOI: 10.1063/1.4959605
   
   in the mass-spec context:
   * V. Asgeirsson, C. Bauer and S. Grimme, Chem. Sci., 2017, 8, 4879.
     DOI: 10.1039/c7sc00601b
   * J. Koopman and S. Grimme, ACS Omega 2019, 4, 12, 15120-15133.
     DOI: 10.1021/acsomega.9b02011
   
   for metadynamics refer to:
   * S. Grimme, J. Chem. Theory Comput., 2019, 155, 2847-2862
     DOI: 10.1021/acs.jctc.9b00143
   
   for SPH calculations refer to:
   * S. Spicher and S. Grimme, J. Chem. Theory Comput., 2021, 17, 1701-1714
     DOI: 10.1021/acs.jctc.0c01306
   
   for ONIOM refer to:
   * C. Plett, A. Katbashev, S. Ehlert, S. Grimme, M. Bursch,
     Phys. Chem. Chem. Phys., 2023, 25, 17860-17868. DOI: 10.1039/D3CP02178E
   
   for DIPRO refer to:
   * J. Kohn, N. Gildemeister, S. Grimme, D. Fazzi, A. Hansen,
     J. Chem. Phys., 2023, just accepted.
   
   for PTB refer to:
   * S. Grimme, M. Mueller, A. Hansen, J. Chem. Phys., 2023, 158, 124111.
     DOI: 10.1063/5.0137838
   
   with help from (in alphabetical order)
   P. Atkinson, C. Bannwarth, F. Bohle, G. Brandenburg, E. Caldeweyher
   M. Checinski, S. Dohm, S. Ehlert, S. Ehrlich, I. Gerasimov, C. Hölzer
   A. Katbashev, J. Kohn, J. Koopman, C. Lavigne, S. Lehtola, F. März, M. Müller,
   F. Musil, H. Neugebauer, J. Pisarek, C. Plett, P. Pracht, F. Pultar,
   J. Seibert, P. Shushkov, S. Spicher, M. Stahn, M. Steiner, T. Strunk,
   J. Stückrath, T. Rose, and J. Unsleber
   
 * started run on 2025/10/18 at 02:25:51.756     
   ID    Z sym.   atoms
    1    6 C      1, 2, 6, 8
    2    1 H      3-5, 7, 9, 10, 12-14
    3    8 O      11

           -------------------------------------------------
          |                Calculation Setup                |
           -------------------------------------------------

          program call               : xtb xyz.xyz --charge -1 --ohess
          hostname                   : m003
          coordinate file            : xyz.xyz
          omp threads                :                     2


           -------------------------------------------------
          |                 G F N 2 - x T B                 |
           -------------------------------------------------

        Reference                      10.1021/acs.jctc.8b01176
      * Hamiltonian:
        H0-scaling (s, p, d)           1.850000    2.230000    2.230000
        zeta-weighting                 0.500000
      * Dispersion:
        s8                             2.700000
        a1                             0.520000
        a2                             5.000000
        s9                             5.000000
      * Repulsion:
        kExp                           1.500000    1.000000
        rExp                           1.000000
      * Coulomb:
        alpha                          2.000000
        third order                    shell-resolved
        anisotropic                    true
        a3                             3.000000
        a5                             4.000000
        cn-shift                       1.200000
        cn-exp                         4.000000
        max-rad                        5.000000


          ...................................................
          :                      SETUP                      :
          :.................................................:
          :  # basis functions                  29          :
          :  # atomic orbitals                  29          :
          :  # shells                           19          :
          :  # electrons                        32          :
          :  max. iterations                   250          :
          :  Hamiltonian                  GFN2-xTB          :
          :  restarted?                      false          :
          :  GBSA solvation                  false          :
          :  PC potential                    false          :
          :  electronic temp.          300.0000000     K    :
          :  accuracy                    1.0000000          :
          :  -> integral cutoff          0.2500000E+02      :
          :  -> integral neglect         0.1000000E-07      :
          :  -> SCF convergence          0.1000000E-05 Eh   :
          :  -> wf. convergence          0.1000000E-03 e    :
          :  Broyden damping             0.4000000          :
          :  net charge                         -1          :
          :  unpaired electrons                  0          :
          ...................................................

 iter      E             dE          RMSdq      gap      omega  full diag
   1    -17.4612814 -0.174613E+02  0.403E+00   12.38       0.0  T
   2    -17.5624340 -0.101153E+00  0.175E+00   10.12       1.0  T
   3    -17.5651522 -0.271819E-02  0.939E-01    9.59       1.0  T
   4    -17.5655595 -0.407238E-03  0.273E-01    9.34       1.0  T
   5    -17.5656111 -0.516323E-04  0.824E-02    9.48       1.0  T
   6    -17.5656520 -0.408726E-04  0.237E-02    9.51       1.1  T
   7    -17.5656527 -0.696450E-06  0.485E-03    9.50       5.5  T
   8    -17.5656527 -0.747360E-08  0.215E-03    9.50      12.4  T
   9    -17.5656527 -0.187532E-07  0.454E-04    9.50      58.9  T
  10    -17.5656527 -0.180357E-09  0.556E-05    9.50     480.7  T

   *** convergence criteria satisfied after 10 iterations ***

         #    Occupation            Energy/Eh            Energy/eV
      -------------------------------------------------------------
         1        2.0000           -0.4220594             -11.4848
       ...           ...                  ...                  ...
        10        2.0000           -0.2862563              -7.7894
        11        2.0000           -0.2721266              -7.4049
        12        2.0000           -0.2490590              -6.7772
        13        2.0000           -0.2490306              -6.7765
        14        2.0000           -0.1956288              -5.3233
        15        2.0000           -0.0770722              -2.0972
        16        2.0000           -0.0770653              -2.0971 (HOMO)
        17                          0.2721571               7.4058 (LUMO)
        18                          0.3012360               8.1970
        19                          0.3012745               8.1981
        20                          0.3109500               8.4614
        21                          0.3630936               9.8803
       ...                                ...                  ...
        29                          0.6106558              16.6168
      -------------------------------------------------------------
                  HL-Gap            0.3492223 Eh            9.5028 eV
             Fermi-level            0.0975459 Eh            2.6544 eV

 SCC (total)                   0 d,  0 h,  0 min,  0.028 sec
 SCC setup                      ...        0 min,  0.000 sec (  1.091%)
 Dispersion                     ...        0 min,  0.000 sec (  0.592%)
 classical contributions        ...        0 min,  0.000 sec (  0.185%)
 integral evaluation            ...        0 min,  0.001 sec (  2.867%)
 iterations                     ...        0 min,  0.025 sec ( 89.973%)
 molecular gradient             ...        0 min,  0.001 sec (  4.811%)
 printout                       ...        0 min,  0.000 sec (  0.332%)

         :::::::::::::::::::::::::::::::::::::::::::::::::::::
         ::                     SUMMARY                     ::
         :::::::::::::::::::::::::::::::::::::::::::::::::::::
         :: total energy             -17.368169879035 Eh    ::
         :: gradient norm              0.073565236168 Eh/a0 ::
         :: HOMO-LUMO gap              9.502823750100 eV    ::
         ::.................................................::
         :: SCC energy               -17.565642751037 Eh    ::
         :: -> isotropic ES            0.203220108978 Eh    ::
         :: -> anisotropic ES          0.016645549071 Eh    ::
         :: -> anisotropic XC          0.000839609964 Eh    ::
         :: -> dispersion             -0.008640835050 Eh    ::
         :: repulsion energy           0.197472872002 Eh    ::
         :: add. restraining           0.000000000000 Eh    ::
         :: total charge              -1.000000000000 e     ::
         :::::::::::::::::::::::::::::::::::::::::::::::::::::

      ----------------------------------------------------------- 
     |                   =====================                   |
     |                        A N C O P T                        |
     |                   =====================                   |
     |               Approximate Normal Coordinate               |
     |                Rational Function Optimizer                |
      ----------------------------------------------------------- 
      ----------------------------------------------------------- 
     |                   =====================                   |
     |                        A N C O P T                        |
     |                   =====================                   |
     |               Approximate Normal Coordinate               |
     |                Rational Function Optimizer                |
      ----------------------------------------------------------- 

          ...................................................
          :                      SETUP                      :
          :.................................................:
          :   optimization level            normal          :
          :   max. optcycles                   200          :
          :   ANC micro-cycles                  20          :
          :   degrees of freedom                36          :
          :.................................................:
          :   RF solver                   davidson          :
          :   write xtbopt.log                true          :
          :   linear?                        false          :
          :   energy convergence         0.5000000E-05 Eh   :
          :   grad. convergence          0.1000000E-02 Eh/α :
          :   maxmium RF displ.          1.0000000          :
          :   Hlow (freq-cutoff)         0.1000000E-01      :
          :   Hmax (freq-cutoff)         5.0000000          :
          :   S6 in model hess.         20.0000000          :
          ...................................................

generating ANC from exact Hessian ...
Using Lindh-Hessian (1995)
 Shifting diagonal of input Hessian by   0.000000000000000E+000
 Lowest  eigenvalues of input Hessian
    0.000000    0.000000    0.000000    0.000000    0.000000    0.000000
    0.010048    0.010305    0.010309    0.010633    0.010640    0.019947
    0.051709    0.054668    0.054671    0.056337    0.056463    0.056472
 Highest eigenvalues
    1.087398    1.089461    1.089577    1.244291    1.244362    1.643236
 

........................................................................
.............................. CYCLE    1 ..............................
........................................................................

 iter      E             dE          RMSdq      gap      omega  full diag
   1    -17.5656527 -0.175657E+02  0.682E-06    9.50       0.0  T
   2    -17.5656527 -0.284217E-13  0.395E-06    9.50    6760.1  T
   3    -17.5656527  0.000000E+00  0.111E-06    9.50   24143.4  T
     SCC iter.                  ...        0 min,  0.001 sec
     gradient                   ...        0 min,  0.001 sec
 * total energy  :   -17.3681699 Eh     change       -0.2343725E-10 Eh
   gradient norm :     0.0735661 Eh/α   predicted     0.0000000E+00 (-100.00%)
   displ. norm   :     0.3064899 α      lambda       -0.1553503E-01
   maximum displ.:     0.2102317 α      in ANC's #21, #6, #7, ...

........................................................................
.............................. CYCLE    2 ..............................
........................................................................

 iter      E             dE          RMSdq      gap      omega  full diag
   1    -17.5680650 -0.175681E+02  0.655E-01    9.95       0.0  T
   2    -17.5686782 -0.613281E-03  0.362E-01   10.17       1.0  T
   3    -17.5686966 -0.183922E-04  0.114E-01   10.19       1.0  T
   4    -17.5686994 -0.281044E-05  0.200E-02   10.20       1.3  T
   5    -17.5686999 -0.488554E-06  0.557E-03   10.19       4.8  T
   6    -17.5686999 -0.223739E-07  0.183E-03   10.19      14.6  T
   7    -17.5687000 -0.174972E-07  0.466E-04   10.19      57.4  T
   8    -17.5687000 -0.271488E-09  0.732E-05   10.19     365.2  T
     SCC iter.                  ...        0 min,  0.002 sec
     gradient                   ...        0 min,  0.001 sec
 * total energy  :   -17.3755760 Eh     change       -0.7406137E-02 Eh
   gradient norm :     0.0303454 Eh/α   predicted    -0.8497166E-02 (  14.73%)
   displ. norm   :     0.0986686 α      lambda       -0.1142122E-02
   maximum displ.:     0.0817259 α      in ANC's #6, #7, #21, ...

........................................................................
.............................. CYCLE    3 ..............................
........................................................................

 iter      E             dE          RMSdq      gap      omega  full diag
   1    -17.5710334 -0.175710E+02  0.103E-01   10.15       0.0  T
   2    -17.5710687 -0.352301E-04  0.538E-02   10.19       1.0  T
   3    -17.5710705 -0.180860E-05  0.291E-02   10.20       1.0  T
   4    -17.5710712 -0.685995E-06  0.532E-03   10.20       5.0  T
   5    -17.5710713 -0.164786E-06  0.201E-03   10.20      13.3  T
   6    -17.5710713 -0.783233E-08  0.283E-04   10.20      94.4  T
   7    -17.5710713 -0.113086E-09  0.570E-05   10.20     469.0  T
     SCC iter.                  ...        0 min,  0.002 sec
     gradient                   ...        0 min,  0.001 sec
 * total energy  :   -17.3764324 Eh     change       -0.8563786E-03 Eh
   gradient norm :     0.0188268 Eh/α   predicted    -0.5766224E-03 ( -32.67%)
   displ. norm   :     0.0898139 α      lambda       -0.6881588E-03
   maximum displ.:     0.0703743 α      in ANC's #6, #7, #36, ...

........................................................................
.............................. CYCLE    4 ..............................
........................................................................

 iter      E             dE          RMSdq      gap      omega  full diag
   1    -17.5735632 -0.175736E+02  0.118E-01    9.96       0.0  T
   2    -17.5736618 -0.986038E-04  0.547E-02   10.03       1.0  T
   3    -17.5736698 -0.796960E-05  0.329E-02   10.04       1.0  T
   4    -17.5736704 -0.614280E-06  0.979E-03   10.04       2.7  T
   5    -17.5736707 -0.256360E-06  0.321E-03   10.04       8.3  T
   6    -17.5736707 -0.173146E-07  0.447E-04   10.04      59.8  T
   7    -17.5736707 -0.251042E-09  0.904E-05   10.04     295.8  T
     SCC iter.                  ...        0 min,  0.002 sec
     gradient                   ...        0 min,  0.001 sec
 * total energy  :   -17.3768077 Eh     change       -0.3752876E-03 Eh
   gradient norm :     0.0043733 Eh/α   predicted    -0.3468551E-03 (  -7.58%)
   displ. norm   :     0.0081892 α      lambda       -0.1988484E-04
   maximum displ.:     0.0058952 α      in ANC's #7, #36, #15, ...

........................................................................
.............................. CYCLE    5 ..............................
........................................................................

 iter      E             dE          RMSdq      gap      omega  full diag
   1    -17.5738337 -0.175738E+02  0.189E-02   10.01       0.0  T
   2    -17.5738371 -0.333599E-05  0.909E-03   10.02       2.9  T
   3    -17.5738374 -0.370522E-06  0.509E-03   10.03       5.3  T
   4    -17.5738375 -0.192107E-07  0.207E-03   10.03      12.9  T
   5    -17.5738375 -0.461639E-08  0.594E-04   10.03      45.0  T
   6    -17.5738375 -0.379913E-09  0.736E-05   10.03     363.3  T
     SCC iter.                  ...        0 min,  0.001 sec
     gradient                   ...        0 min,  0.001 sec
 * total energy  :   -17.3768201 Eh     change       -0.1240265E-04 Eh
   gradient norm :     0.0014776 Eh/α   predicted    -0.9942736E-05 ( -19.83%)
   displ. norm   :     0.0066628 α      lambda       -0.3184854E-05
   maximum displ.:     0.0040496 α      in ANC's #6, #1, #36, ...

........................................................................
.............................. CYCLE    6 ..............................
........................................................................

 iter      E             dE          RMSdq      gap      omega  full diag
   1    -17.5736288 -0.175736E+02  0.993E-03   10.03       0.0  T
   2    -17.5736295 -0.685618E-06  0.589E-03   10.03       4.5  T
   3    -17.5736296 -0.969263E-07  0.330E-03   10.03       8.1  T
   4    -17.5736296 -0.637383E-08  0.103E-03   10.03      26.0  T
   5    -17.5736296 -0.149990E-08  0.157E-04   10.03     169.9  T
   6    -17.5736296 -0.374563E-10  0.402E-05   10.03     664.0  T
     SCC iter.                  ...        0 min,  0.001 sec
     gradient                   ...        0 min,  0.001 sec
 * total energy  :   -17.3768217 Eh     change       -0.1652592E-05 Eh
   gradient norm :     0.0005732 Eh/α   predicted    -0.1591959E-05 (  -3.67%)
   displ. norm   :     0.0015757 α      lambda       -0.3330953E-06
   maximum displ.:     0.0008165 α      in ANC's #7, #36, #1, ...

   *** GEOMETRY OPTIMIZATION CONVERGED AFTER 6 ITERATIONS ***

------------------------------------------------------------------------
 total energy gain   :        -0.0086519 Eh       -5.4291 kcal/mol
 total RMSD          :         0.0999540 a0        0.0529 Å
 total power (kW/mol):        -3.7859084 (step) -801.8474 (real)
------------------------------------------------------------------------

 ANCopt (total)                0 d,  0 h,  0 min,  0.028 sec
 optimizer setup                ...        0 min,  0.000 sec (  1.383%)
 model hessian                  ...        0 min,  0.006 sec ( 19.841%)
 ANC generation                 ...        0 min,  0.000 sec (  1.100%)
 coordinate transformation      ...        0 min,  0.000 sec (  0.178%)
 single point calculation       ...        0 min,  0.020 sec ( 70.913%)
 optimization log               ...        0 min,  0.000 sec (  1.189%)
 hessian update                 ...        0 min,  0.000 sec (  0.205%)
 rational function              ...        0 min,  0.001 sec (  4.148%)

================
 final structure:
================
14
 xtb: 6.7.1 (edcfbbe)
C           -3.84411050632271       -4.07810750283932        1.87061512109937
C           -2.80751286806166       -3.11847747695173        2.59027485181782
H           -3.54097432916667       -4.21780440378876        0.83380042620581
H           -3.83112339771025       -5.05024796633865        2.36169383955895
H           -4.86117986048541       -3.67998927585641        1.89436642685268
C           -3.38924834893878       -2.90464739923170        4.04945788870389
H           -4.41536261927130       -2.53000089234238        4.03451760952641
C           -2.97670238276486       -1.71619911119933        1.87033165823816
H           -3.36434410745157       -3.85220058883041        4.58602170286974
H           -2.75936149404816       -2.19521502135402        4.58457371734001
O           -1.58273624332864       -3.56829648423369        2.57688562798092
H           -4.00914122389156       -1.36001312902870        1.89677861921649
H           -2.33527183894851       -0.98421205669235        2.35934906490588
H           -2.65818577960994       -1.80675969131253        0.83266744568388
 
 Bond Distances (Angstroems)
 ---------------------------
C1-C2=1.5854         C1-H3=1.0892         C1-H4=1.0892         C1-H5=1.0925         C2-C1=1.5854         C2-C6=1.5854         
C2-C8=1.5853         C2-O11=1.3048        H3-C1=1.0892         H4-C1=1.0892         H5-C1=1.0925         C6-C2=1.5854         
C6-H7=1.0925         C6-H9=1.0892         C6-H10=1.0892        H7-C6=1.0925         C8-C2=1.5853         C8-H12=1.0925        
C8-H13=1.0892        C8-H14=1.0892        H9-C6=1.0892         H10-C6=1.0892        O11-C2=1.3048        H12-C8=1.0925        
H13-C8=1.0892        H14-C8=1.0892        
 C  H  Rav=1.0903 sigma=0.0015  Rmin=1.0892  Rmax=1.0925     9
 C  C  Rav=1.5854 sigma=0.0000  Rmin=1.5853  Rmax=1.5854     3
 O  C  Rav=1.3048 sigma=0.0000  Rmin=1.3048  Rmax=1.3048     1
 
 selected bond angles (degree)
 --------------------
H3-C1-C2=109.13                H4-C1-C2=109.13                H4-C1-H3=108.14                H5-C1-C2=112.23                
H5-C1-H3=109.06                H5-C1-H4=109.06                C6-C2-C1=105.04                C8-C2-C1=105.04                
C8-C2-C6=105.04                O11-C2-C1=113.60               O11-C2-C6=113.60               O11-C2-C8=113.61               
H7-C6-C2=112.23                H9-C6-C2=109.13                H9-C6-H7=109.06                H10-C6-C2=109.14               
H10-C6-H7=109.06               H10-C6-H9=108.14               H12-C8-C2=112.23               H13-C8-C2=109.13               
H13-C8-H12=109.06              H14-C8-C2=109.14               H14-C8-H12=109.06              H14-C8-H13=108.14              
 
 selected dihedral angles (degree)
 ---------------------------------
C6-C2-C1-H3=176.30            C6-C2-C1-H4=294.29            C6-C2-C1-H5= 55.30            C8-C2-C1-H3= 65.79            
C8-C2-C1-H4=183.77            C8-C2-C1-H5=304.78            O11-C2-C1-H3=301.04           O11-C2-C1-H4= 59.03           
O11-C2-C1-H5=180.04           H7-C6-C2-C1=304.86            H7-C6-C2-C8= 55.37            H7-C6-C2-O11=180.12           
H9-C6-C2-C1= 65.87            H9-C6-C2-C8=176.38            H9-C6-C2-O11=301.12           H10-C6-C2-C1=183.85           
H10-C6-C2-C8=294.36           H10-C6-C2-O11= 59.11          H12-C8-C2-C1= 55.39           H12-C8-C2-C6=304.88           
H12-C8-C2-O11=180.14          H13-C8-C2-C1=176.40           H13-C8-C2-C6= 65.88           H13-C8-C2-O11=301.14          
H14-C8-C2-C1=294.38           H14-C8-C2-C6=183.87           H14-C8-C2-O11= 59.13          
           -------------------------------------------------
          |                Final Singlepoint                |
           -------------------------------------------------

          ...................................................
          :                      SETUP                      :
          :.................................................:
          :  # basis functions                  29          :
          :  # atomic orbitals                  29          :
          :  # shells                           19          :
          :  # electrons                        32          :
          :  max. iterations                   250          :
          :  Hamiltonian                  GFN2-xTB          :
          :  restarted?                      false          :
          :  GBSA solvation                  false          :
          :  PC potential                    false          :
          :  electronic temp.          300.0000000     K    :
          :  accuracy                    1.0000000          :
          :  -> integral cutoff          0.2500000E+02      :
          :  -> integral neglect         0.1000000E-07      :
          :  -> SCF convergence          0.1000000E-05 Eh   :
          :  -> wf. convergence          0.1000000E-03 e    :
          :  Broyden damping             0.4000000          :
          :  net charge                         -1          :
          :  unpaired electrons                  0          :
          ...................................................

 iter      E             dE          RMSdq      gap      omega  full diag
   1    -17.5736296 -0.175736E+02  0.540E-06   10.03       0.0  T
   2    -17.5736296 -0.710543E-14  0.300E-06   10.03    8920.7  T
   3    -17.5736296 -0.142109E-13  0.582E-07   10.03   45921.9  T

   *** convergence criteria satisfied after 3 iterations ***

         #    Occupation            Energy/Eh            Energy/eV
      -------------------------------------------------------------
         1        2.0000           -0.4182259             -11.3805
       ...           ...                  ...                  ...
        10        2.0000           -0.2854875              -7.7685
        11        2.0000           -0.2706664              -7.3652
        12        2.0000           -0.2424004              -6.5960
        13        2.0000           -0.2423897              -6.5958
        14        2.0000           -0.2128791              -5.7927
        15        2.0000           -0.0952740              -2.5925
        16        2.0000           -0.0952732              -2.5925 (HOMO)
        17                          0.2734858               7.4419 (LUMO)
        18                          0.2784001               7.5757
        19                          0.2784006               7.5757
        20                          0.3094788               8.4213
        21                          0.3535210               9.6198
       ...                                ...                  ...
        29                          0.6326476              17.2152
      -------------------------------------------------------------
                  HL-Gap            0.3687589 Eh           10.0344 eV
             Fermi-level            0.0891063 Eh            2.4247 eV

 SCC (total)                   0 d,  0 h,  0 min,  0.003 sec
 SCC setup                      ...        0 min,  0.000 sec (  2.750%)
 Dispersion                     ...        0 min,  0.000 sec (  1.794%)
 classical contributions        ...        0 min,  0.000 sec (  0.501%)
 integral evaluation            ...        0 min,  0.000 sec ( 18.140%)
 iterations                     ...        0 min,  0.001 sec ( 26.774%)
 molecular gradient             ...        0 min,  0.001 sec ( 46.708%)
 printout                       ...        0 min,  0.000 sec (  2.331%)

         :::::::::::::::::::::::::::::::::::::::::::::::::::::
         ::                     SUMMARY                     ::
         :::::::::::::::::::::::::::::::::::::::::::::::::::::
         :: total energy             -17.376821737276 Eh    ::
         :: gradient norm              0.000572979894 Eh/a0 ::
         :: HOMO-LUMO gap             10.034441689469 eV    ::
         ::.................................................::
         :: SCC energy               -17.573619643903 Eh    ::
         :: -> isotropic ES            0.192160780476 Eh    ::
         :: -> anisotropic ES          0.017619743615 Eh    ::
         :: -> anisotropic XC          0.002598323151 Eh    ::
         :: -> dispersion             -0.008600331568 Eh    ::
         :: repulsion energy           0.196797906627 Eh    ::
         :: add. restraining           0.000000000000 Eh    ::
         :: total charge              -1.000000000000 e     ::
         :::::::::::::::::::::::::::::::::::::::::::::::::::::

           ------------------------------------------------- 
          |                Numerical Hessian                |
           ------------------------------------------------- 
step length          :   0.00500
SCC accuracy         :   0.30000
Hessian scale factor :   1.00000
frozen atoms in %    :   0.00000    0
RMS gradient         :   0.00057
estimated CPU  time      0.01 min
estimated wall time      0.01 min

writing file <hessian>.

 projected vibrational frequencies (cm⁻¹)
eigval :       -0.00    -0.00     0.00     0.00     0.00     0.00
eigval :      147.86   222.94   222.99   324.10   324.11   415.23
eigval :      469.59   469.64   701.03   787.80   787.88   878.38
eigval :      972.30   972.32  1017.97  1105.78  1105.88  1272.01
eigval :     1336.31  1336.34  1362.80  1493.07  1505.34  1505.41
eigval :     1515.40  1515.44  1530.23  2927.45  2927.50  2947.07
eigval :     2985.68  2996.73  2996.81  3002.76  3002.79  3007.80
           -------------------------------------------------
          |                Property Printout                |
           -------------------------------------------------

    * Orbital Energies and Occupations

         #    Occupation            Energy/Eh            Energy/eV
      -------------------------------------------------------------
         1        2.0000           -0.4182259             -11.3805
       ...           ...                  ...                  ...
         4        2.0000           -0.3878526             -10.5540
         5        2.0000           -0.3327766              -9.0553
         6        2.0000           -0.3065066              -8.3405
         7        2.0000           -0.3064977              -8.3402
         8        2.0000           -0.3048878              -8.2964
         9        2.0000           -0.2855026              -7.7689
        10        2.0000           -0.2854875              -7.7685
        11        2.0000           -0.2706664              -7.3652
        12        2.0000           -0.2424004              -6.5960
        13        2.0000           -0.2423897              -6.5958
        14        2.0000           -0.2128791              -5.7927
        15        2.0000           -0.0952740              -2.5925
        16        2.0000           -0.0952732              -2.5925 (HOMO)
        17                          0.2734858               7.4419 (LUMO)
        18                          0.2784001               7.5757
        19                          0.2784006               7.5757
        20                          0.3094788               8.4213
        21                          0.3535210               9.6198
        22                          0.3699857              10.0678
        23                          0.3700057              10.0684
        24                          0.3949078              10.7460
        25                          0.3949607              10.7474
        26                          0.4233335              11.5195
        27                          0.4321140              11.7584
       ...                                ...                  ...
        29                          0.6326476              17.2152
      -------------------------------------------------------------
                  HL-Gap            0.3687589 Eh           10.0344 eV
             Fermi-level            0.0891063 Eh            2.4247 eV

     #   Z          covCN         q      C6AA      α(0)
     1   6 C        3.747    -0.101    22.504     6.766
     2   6 C        3.756     0.197    17.542     5.972
     3   1 H        0.925    -0.006     3.171     2.785
     4   1 H        0.925    -0.006     3.172     2.785
     5   1 H        0.924    -0.032     3.687     3.003
     6   6 C        3.747    -0.101    22.504     6.766
     7   1 H        0.924    -0.032     3.687     3.003
     8   6 C        3.747    -0.101    22.504     6.766
     9   1 H        0.925    -0.006     3.171     2.785
    10   1 H        0.925    -0.006     3.172     2.785
    11   8 O        0.856    -0.757    30.312     7.381
    12   1 H        0.924    -0.032     3.686     3.003
    13   1 H        0.925    -0.006     3.171     2.785
    14   1 H        0.925    -0.006     3.172     2.785

 Mol. C6AA /au·bohr⁶  :       1621.850750
 Mol. C8AA /au·bohr⁸  :      32608.111559
 Mol. α(0) /au        :         59.369398


Wiberg/Mayer (AO) data.
largest (>0.10) Wiberg bond orders for each atom

 ---------------------------------------------------------------------------
     #   Z sym  total        # sym  WBO       # sym  WBO       # sym  WBO
 ---------------------------------------------------------------------------
     1   6 C    3.977 --     4 H    0.991     3 H    0.991     5 H    0.988
                             2 C    0.914
     2   6 C    3.973 --    11 O    1.232     8 C    0.914     1 C    0.914
                             6 C    0.914
     3   1 H    1.000 --     1 C    0.991
     4   1 H    1.000 --     1 C    0.991
     5   1 H    0.999 --     1 C    0.988
     6   6 C    3.977 --     9 H    0.991    10 H    0.991     7 H    0.988
                             2 C    0.914
     7   1 H    0.999 --     6 C    0.988
     8   6 C    3.977 --    13 H    0.991    14 H    0.991    12 H    0.988
                             2 C    0.914
     9   1 H    1.000 --     6 C    0.991
    10   1 H    1.000 --     6 C    0.991
    11   8 O    1.461 --     2 C    1.232
    12   1 H    0.999 --     8 C    0.988
    13   1 H    1.000 --     8 C    0.991
    14   1 H    1.000 --     8 C    0.991
 ---------------------------------------------------------------------------

Topologies differ in total number of bonds
Writing topology from bond orders to xtbtopo.mol

molecular dipole:
                 x           y           z       tot (Debye)
 q only:        4.213       6.294      -4.883
   full:        3.751       6.464      -4.878      22.684
molecular quadrupole (traceless):
                xx          xy          yy          xz          yz          zz
 q only:       11.587     -38.367     -17.882      30.903      46.085       6.294
  q+dip:       16.121     -34.830     -21.835      27.489      47.280       5.714
   full:       16.278     -34.923     -21.896      27.486      47.281       5.618

           -------------------------------------------------
          |                Geometry Summary                 |
           -------------------------------------------------

      molecular mass/u    :       73.1138153
   center of mass at/Å    :       -2.9228577      -3.0761023       2.5915601
  moments of inertia/u·Å² :        0.1056381E+03   0.1056408E+03   0.1108998E+03
rotational constants/cm⁻¹ :        0.1595791E+00   0.1595750E+00   0.1520077E+00

 * 9 selected distances

     #   Z          #   Z                                           value/Å
     1   6 C        3   1 H                                       1.0892161
     1   6 C        4   1 H                                       1.0892127
     1   6 C        5   1 H                                       1.0924708
     6   6 C        7   1 H                                       1.0924715
     6   6 C        9   1 H                                       1.0892099
     6   6 C       10   1 H                                       1.0892203
     8   6 C       12   1 H                                       1.0924734 (max)
     8   6 C       13   1 H                                       1.0892091 (min)
     8   6 C       14   1 H                                       1.0892205

 * 1 distinct bonds (by element types)

   Z      Z             #   av. dist./Å        max./Å        min./Å
   1 H    6 C           9     1.0903005     1.0924734     1.0892091

           -------------------------------------------------
          |               Frequency Printout                |
           -------------------------------------------------
 projected vibrational frequencies (cm⁻¹)
eigval :       -0.00    -0.00     0.00     0.00     0.00     0.00
eigval :      147.86   222.94   222.99   324.10   324.11   415.23
eigval :      469.59   469.64   701.03   787.80   787.88   878.38
eigval :      972.30   972.32  1017.97  1105.78  1105.88  1272.01
eigval :     1336.31  1336.34  1362.80  1493.07  1505.34  1505.41
eigval :     1515.40  1515.44  1530.23  2927.45  2927.50  2947.07
eigval :     2985.68  2996.73  2996.81  3002.76  3002.79  3007.80
 reduced masses (amu)
   1: 10.89   2: 12.22   3: 10.64   4:  9.55   5: 11.40   6:  9.61   7:  1.09   8:  1.48
   9:  1.48  10:  8.74  11:  8.74  12:  8.26  13:  9.86  14:  9.86  15:  9.82  16:  7.56
  17:  7.56  18:  2.73  19:  4.15  20:  4.15  21:  7.39  22:  7.81  23:  7.81  24: 12.26
  25:  2.99  26:  2.99  27:  3.04  28:  1.70  29:  1.64  30:  1.64  31:  1.68  32:  1.68
  33:  1.64  34:  1.74  35:  1.74  36:  1.71  37:  1.97  38:  1.88  39:  1.88  40:  1.47
  41:  1.47  42:  1.43
 IR intensities (km·mol⁻¹)
   1:  9.92   2: 18.68   3:  8.45   4:  3.56   5: 14.04   6:  4.03   7:  0.00   8:  0.51
   9:  0.51  10:  3.67  11:  3.68  12:  4.64  13:  4.30  14:  4.40  15: 21.03  16: 37.81
  17: 37.50  18:  0.00  19:  2.51  20:  2.48  21:  2.93  22:136.65  23:136.93  24:426.35
  25:  1.82  26:  1.83  27:  1.34  28:  0.00  29:  7.25  30:  7.01  31:  0.01  32:  0.00
  33:  6.82  34:  0.04  35:  0.04  36:419.85  37:  0.00  38: 88.44  39: 86.88  40:161.97
  41:160.90  42: 38.08
 Raman intensities (Ä⁴*amu⁻¹)
   1:  0.00   2:  0.00   3:  0.00   4:  0.00   5:  0.00   6:  0.00   7:  0.00   8:  0.00
   9:  0.00  10:  0.00  11:  0.00  12:  0.00  13:  0.00  14:  0.00  15:  0.00  16:  0.00
  17:  0.00  18:  0.00  19:  0.00  20:  0.00  21:  0.00  22:  0.00  23:  0.00  24:  0.00
  25:  0.00  26:  0.00  27:  0.00  28:  0.00  29:  0.00  30:  0.00  31:  0.00  32:  0.00
  33:  0.00  34:  0.00  35:  0.00  36:  0.00  37:  0.00  38:  0.00  39:  0.00  40:  0.00
  41:  0.00  42:  0.00
 output can be read by thermo (or use thermo option).
 writing <g98.out> molden fake output.
 recommended (thermochemical) frequency scaling factor: 1.0
           -------------------------------------------------
          |             Thermodynamic Functions             |
           -------------------------------------------------

Refinement of some symmetry elements was terminated before convergence was reached.
Some symmetry elements may remain unidentified.
Molecule has the following symmetry elements: (C3) 3*(sigma) 
It seems to be the C3v point group
c3v symmetry found (for desy threshold:  0.10E+00) used in thermo

          ...................................................
          :                      SETUP                      :
          :.................................................:
          :  # frequencies                          36      :
          :  # imaginary freq.                       0      :
          :  linear?                             false      :
          :  only rotor calc.                    false      :
          :  symmetry                              c3v      :
          :  rotational number                       3      :
          :  scaling factor                  1.0000000      :
          :  rotor cutoff                   50.0000000 cm⁻¹ :
          :  imag. cutoff                  -20.0000000 cm⁻¹ :
          :.................................................:

    mode    ω/cm⁻¹     T·S(HO)/kcal·mol⁻¹    T·S(FR)/kcal·mol⁻¹   T·S(vib)
   ------------------------------------------------------------------------
       1    147.86    -0.80486 ( 98.71%)    -0.73503 (  1.29%)    -0.80396
       2    222.94    -0.57695 ( 99.75%)    -0.61350 (  0.25%)    -0.57705
       3    222.99    -0.57683 ( 99.75%)    -0.61343 (  0.25%)    -0.57692
   ------------------------------------------------------------------------

   temp. (K)  partition function   enthalpy   heat capacity  entropy
                                   cal/mol     cal/K/mol   cal/K/mol   J/K/mol
 298.15  VIB   12.0                 2408.867     18.232     13.008
         ROT  0.283E+05              888.752      2.981     23.353
         INT  0.339E+06             3297.619     21.213     36.362
         TR   0.605E+27             1481.254      4.968     38.767
         TOT                        4778.8729    26.1811    75.1288   314.3388

       T/K    H(0)-H(T)+PV         H(T)/Eh          T*S/Eh         G(T)/Eh
   ------------------------------------------------------------------------
    298.15    0.761562E-02    0.126292E+00    0.356961E-01    0.905955E-01
   ------------------------------------------------------------------------

         :::::::::::::::::::::::::::::::::::::::::::::::::::::
         ::                  THERMODYNAMIC                  ::
         :::::::::::::::::::::::::::::::::::::::::::::::::::::
         :: total free energy         -17.286226239047 Eh   ::
         ::.................................................::
         :: total energy              -17.376821737276 Eh   ::
         :: zero point energy           0.118675983766 Eh   ::
         :: G(RRHO) w/o ZPVE           -0.028080485538 Eh   ::
         :: G(RRHO) contrib.            0.090595498228 Eh   ::
         :::::::::::::::::::::::::::::::::::::::::::::::::::::

optimized geometry written to: xtbopt.xyz


           -------------------------------------------------
          | TOTAL ENERGY              -17.376821737276 Eh   |
          | TOTAL ENTHALPY            -17.250530134801 Eh   |
          | TOTAL FREE ENERGY         -17.286226239047 Eh   |
          | GRADIENT NORM               0.000572974774 Eh/α |
          | HOMO-LUMO GAP              10.034441605187 eV   |
           -------------------------------------------------

------------------------------------------------------------------------
 * finished run on 2025/10/18 at 02:25:52.298     
------------------------------------------------------------------------
 total:
 * wall-time:     0 d,  0 h,  0 min,  0.541 sec
 *  cpu-time:     0 d,  0 h,  0 min,  0.772 sec
 * ratio c/w:     1.427 speedup
 SCF:
 * wall-time:     0 d,  0 h,  0 min,  0.028 sec
 *  cpu-time:     0 d,  0 h,  0 min,  0.038 sec
 * ratio c/w:     1.360 speedup
 ANC optimizer:
 * wall-time:     0 d,  0 h,  0 min,  0.131 sec
 *  cpu-time:     0 d,  0 h,  0 min,  0.163 sec
 * ratio c/w:     1.244 speedup
 analytical hessian:
 * wall-time:     0 d,  0 h,  0 min,  0.212 sec
 *  cpu-time:     0 d,  0 h,  0 min,  0.389 sec
 * ratio c/w:     1.834 speedup

