14
 energy: -17.368169879058 gnorm: 0.073566109093 xtb: 6.7.1 (edcfbbe)
C           -3.82563200000000       -4.08455000000000        1.87048300000000
C           -2.91581900000000       -3.07877600000000        2.59166700000000
H           -3.52794600000000       -4.23249600000000        0.82385500000000
H           -3.81683900000000       -5.06966800000000        2.35556700000000
H           -4.86509600000000       -3.73446000000000        1.86567100000000
C           -3.37168700000000       -2.91131000000000        4.04891000000000
H           -4.40204600000000       -2.53776000000000        4.09331600000000
C           -2.95795900000000       -1.72324700000000        1.87042400000000
H           -3.34632300000000       -3.86051200000000        4.60042700000000
H           -2.74342100000000       -2.19703400000000        4.59754700000000
O           -1.67690500000000       -3.53392900000000        2.57848600000000
H           -3.97597100000000       -1.31476100000000        1.86975900000000
H           -2.30981500000000       -0.97944700000000        2.35265000000000
H           -2.63979600000000       -1.80422100000000        0.82257200000000
14
 energy: -17.375576015825 gnorm: 0.030345448189 xtb: 6.7.1 (edcfbbe)
C           -3.84228534591386       -4.06554925664894        1.87767085081073
C           -2.83814142489529       -3.10730683845880        2.59080498459952
H           -3.52519110722891       -4.20973701223601        0.84251920551064
H           -3.81270004992475       -5.04202498599761        2.36596472835269
H           -4.88449534104108       -3.71166775440808        1.87426770085032
C           -3.39262400808531       -2.90358146053171        4.03515802410148
H           -4.42658595893741       -2.52851222228477        4.07671329818102
C           -2.98302587175393       -1.72693008519754        1.87762158693048
H           -3.35023710985827       -3.85397916833663        4.57156136450936
H           -2.75033676561401       -2.19975495631453        4.56899485844944
O           -1.58692705787905       -3.56698955335937        2.57753564280231
H           -4.00557988057648       -1.31964595143468        1.87822154511316
H           -2.32476524718654       -1.00320995136199        2.36312937804290
H           -2.65235983110510       -1.82328180342933        0.84117083174594
14
 energy: -17.376432394384 gnorm: 0.018826772335 xtb: 6.7.1 (edcfbbe)
C           -3.84231361027339       -4.07199918498567        1.87418707642563
C           -2.82627319402853       -3.11163555247186        2.59060066488226
H           -3.53285964703134       -4.21257462924566        0.83822799115167
H           -3.82133491509968       -5.04566396432375        2.36433767172221
H           -4.87206349342588       -3.69352605775683        1.88611445553524
C           -3.39031027077835       -2.90437796294065        4.04209000508293
H           -4.42151110312383       -2.52983459672635        4.05240901542508
C           -2.97896050818189       -1.72198918931481        1.87406279581567
H           -3.35696507822738       -3.85326005092097        4.57800540819368
H           -2.75535133517214       -2.19665155849158        4.57566352889510
O           -1.58374035864301       -3.56813197119248        2.57742963199860
H           -4.00801563592646       -1.34174218321070        1.88979626073411
H           -2.32931209088630       -0.99464578252447        2.36152445179582
H           -2.65624375920182       -1.81613831589421        0.83688504234200
14
 energy: -17.376807682033 gnorm: 0.004373303521 xtb: 6.7.1 (edcfbbe)
C           -3.84358310413121       -4.07795900282271        1.87070297429458
C           -2.81056945853974       -3.11738223897766        2.59038075895987
H           -3.54040326599374       -4.21620392260419        0.83449472497474
H           -3.82992420243873       -5.04917061321028        2.36196741829928
H           -4.86092159901910       -3.67865948811954        1.89560360514336
C           -3.38913508948887       -2.90473552180802        4.04909910178679
H           -4.41622767135136       -2.53084071560615        4.03252449955815
C           -2.97622710535769       -1.71663689029989        1.87051415787906
H           -3.36342015083496       -3.85195100148277        4.58472687928510
H           -2.76008004966762       -2.19460126526418        4.58273293656071
O           -1.58176360825119       -3.56878376711512        2.57721294972928
H           -4.00943988013445       -1.36067096561300        1.89885001895935
H           -2.33417877455350       -0.98613005564549        2.35929451325589
H           -2.65938104023785       -1.80844555143098        0.83322946131382
14
 energy: -17.376820084683 gnorm: 0.001477566017 xtb: 6.7.1 (edcfbbe)
C           -3.84395419955272       -4.07834518641659        1.87047735701534
C           -2.80833991675332       -3.11818652010272        2.59031343348128
H           -3.54107634308835       -4.21712005012073        0.83395209344628
H           -3.83092962177675       -5.04988816067204        2.36172559529449
H           -4.86054246809496       -3.67908296420152        1.89523072863621
C           -3.38920819182846       -2.90469608995127        4.04963274630800
H           -4.41549677008691       -2.53064914992761        4.03300792428232
C           -2.97632835143298       -1.71610384247873        1.87024626384908
H           -3.36413443755468       -3.85200355696225        4.58569712746528
H           -2.76007976699958       -2.19467787972800        4.58391878762494
O           -1.58223389433962       -3.56855862578782        2.57707993434124
H           -4.00901896879922       -1.36078921141333        1.89816733411221
H           -2.33481591256454       -0.98479702414348        2.35915755678275
H           -2.65909615712791       -1.80727273809392        0.83272711736059
14
 energy: -17.376821737275 gnorm: 0.000573166136 xtb: 6.7.1 (edcfbbe)
C           -3.84411050632271       -4.07810750283932        1.87061512109937
C           -2.80751286806166       -3.11847747695173        2.59027485181782
H           -3.54097432916667       -4.21780440378876        0.83380042620581
H           -3.83112339771025       -5.05024796633865        2.36169383955895
H           -4.86117986048541       -3.67998927585641        1.89436642685268
C           -3.38924834893878       -2.90464739923170        4.04945788870389
H           -4.41536261927130       -2.53000089234238        4.03451760952641
C           -2.97670238276486       -1.71619911119933        1.87033165823816
H           -3.36434410745157       -3.85220058883041        4.58602170286974
H           -2.75936149404816       -2.19521502135402        4.58457371734001
O           -1.58273624332864       -3.56829648423369        2.57688562798092
H           -4.00914122389156       -1.36001312902870        1.89677861921649
H           -2.33527183894851       -0.98421205669235        2.35934906490588
H           -2.65818577960994       -1.80675969131253        0.83266744568388
