14
 energy: -17.376821737276 gnorm: 0.000572979894 xtb: 6.7.1 (edcfbbe)
C           -3.84412532944703       -4.07808411025656        1.87063565720247
C           -2.80752015450835       -3.11845825596611        2.59029009463672
H           -3.54099350292291       -4.21778440798525        0.83382014798902
H           -3.83114159675187       -5.05022378465635        2.36171602702994
H           -4.86119251614194       -3.67996051646362        1.89438981835000
C           -3.38924942224057       -2.90462258556131        4.04947478894770
H           -4.41536178306208       -2.52997073203138        4.03453743770333
C           -2.97670483998679       -1.71618026088559        1.87034504420791
H           -3.36434826915904       -3.85217496907318        4.58604016996955
H           -2.75935698487599       -2.19519257183077        4.58458718066675
O           -1.58274593178099       -3.56828369952499        2.57689738060526
H           -4.00914172379223       -1.35998882672508        1.89679498741565
H           -2.33526875651512       -0.98419571142479        2.35935893429851
H           -2.65819233315261       -1.80674431979319        0.83267987788688
