 Entering Gaussian System
 *********************************************
 Gaussian 98:
 frequency output generated by the xtb code
 *********************************************
                         Standard orientation:
 --------------------------------------------------------------------
  Center     Atomic     Atomic              Coordinates (Angstroms)
  Number     Number      Type              X           Y           Z
 --------------------------------------------------------------------
    1          6             0       -3.793272   -3.334709    0.373520
    2          6             0       -5.274470   -3.636480    0.839247
    3          6             0       -5.550485   -5.126606    0.385759
    4          8             0       -5.491517   -3.414846    2.074984
    5          9             0       -2.850785   -4.085802    0.965162
    6          9             0       -3.581639   -3.479286   -0.964357
    7          9             0       -3.464268   -2.054859    0.630455
    8          9             0       -4.767834   -6.049242    0.968052
    9          9             0       -5.424270   -5.340869   -0.953563
   10          9             0       -6.817713   -5.483415    0.666287
   11          1             0       -5.887160   -3.041001    0.076922
 --------------------------------------------------------------------
     1 basis functions        1 primitive gaussians
     1 alpha electrons        1 beta electrons
 
 Harmonic frequencies (cm**-1), IR intensities (km*mol⁻¹),
 Raman scattering activities (A**4/amu), Raman depolarization ratios,
 reduced masses (AMU), force constants (mDyne/A) and normal coordinates:
                      1                      2                      3
                        a                      a                      a 
 Frequencies --    -7.9375                66.1671               127.7378
 Red. masses --    18.9158                17.6341                18.2180
 Frc consts  --     0.0000                 0.0000                 0.0000
 IR Inten    --     0.0371                 3.7644                 0.1963
 Raman Activ --     0.0000                 0.0000                 0.0000
 Depolar     --     0.0000                 0.0000                 0.0000
 Atom AN      X      Y      Z        X      Y      Z        X      Y      Z
   1   6    -0.03   0.02  -0.06    -0.00  -0.02   0.01    -0.11  -0.05   0.02
   2   6    -0.01  -0.01  -0.00    -0.08   0.08  -0.16    -0.11   0.10   0.16
   3   6     0.03  -0.03   0.06     0.02   0.00   0.01     0.05   0.11   0.02
   4   8     0.03   0.03  -0.00    -0.34   0.33  -0.27    -0.07   0.07   0.19
   5   9    -0.01  -0.20  -0.41    -0.15  -0.31  -0.10    -0.23  -0.20   0.02
   6   9    -0.21   0.39  -0.14     0.04   0.20  -0.01    -0.38  -0.31   0.03
   7   9     0.08  -0.07   0.24     0.20  -0.15   0.30     0.21  -0.11  -0.22
   8   9    -0.20  -0.01   0.41     0.30   0.16  -0.10     0.19   0.24   0.02
   9   9     0.40  -0.21   0.14    -0.20  -0.04  -0.01     0.30   0.38   0.02
  10   9    -0.07   0.08  -0.24     0.16  -0.20   0.30     0.11  -0.21  -0.22
  11   1    -0.01  -0.01  -0.00     0.01  -0.01  -0.10    -0.04   0.04   0.06
                      4                      5                      6
                        a                      a                      a 
 Frequencies --   190.8734               191.3972               235.1383
 Red. masses --    17.6337                17.6208                18.2532
 Frc consts  --     0.0000                 0.0000                 0.0000
 IR Inten    --    12.0912                11.1883                 3.6029
 Raman Activ --     0.0000                 0.0000                 0.0000
 Depolar     --     0.0000                 0.0000                 0.0000
 Atom AN      X      Y      Z        X      Y      Z        X      Y      Z
   1   6     0.10  -0.03   0.11     0.07   0.04   0.12    -0.09   0.19   0.00
   2   6     0.04  -0.04   0.08     0.01   0.02  -0.01     0.03   0.03   0.00
   3   6     0.04  -0.08   0.07     0.03   0.09  -0.14     0.19  -0.09  -0.00
   4   8    -0.41   0.31  -0.08    -0.34  -0.44   0.01    -0.00  -0.00   0.00
   5   9     0.50   0.16  -0.13     0.22   0.09  -0.01    -0.48  -0.03   0.19
   6   9    -0.29  -0.10   0.10    -0.32  -0.09   0.12    -0.18   0.11   0.02
   7   9     0.06   0.01  -0.01     0.27   0.04  -0.01     0.31   0.17  -0.14
   8   9    -0.13  -0.43  -0.12     0.12   0.33   0.04    -0.02  -0.48  -0.19
   9   9     0.07   0.21   0.06    -0.11  -0.38  -0.13     0.12  -0.17  -0.01
  10   9    -0.00   0.00  -0.00     0.04   0.28   0.01     0.16   0.31   0.14
  11   1     0.07  -0.06  -0.07     0.05   0.07   0.01    -0.06  -0.06   0.00
                      7                      8                      9
                        a                      a                      a 
 Frequencies --   286.5366               310.4788               417.6738
 Red. masses --    18.3810                17.3745                17.2162
 Frc consts  --     0.0000                 0.0000                 0.0000
 IR Inten    --     4.7903                 0.1324                15.6114
 Raman Activ --     0.0000                 0.0000                 0.0000
 Depolar     --     0.0000                 0.0000                 0.0000
 Atom AN      X      Y      Z        X      Y      Z        X      Y      Z
   1   6    -0.08  -0.16  -0.00    -0.02  -0.02   0.11    -0.01   0.03   0.06
   2   6     0.07  -0.07  -0.07     0.12   0.12  -0.00    -0.12   0.12   0.32
   3   6     0.16   0.09  -0.00    -0.02  -0.02  -0.11    -0.03   0.01   0.06
   4   8    -0.01   0.01  -0.08     0.45   0.45  -0.00    -0.19   0.19   0.35
   5   9    -0.03  -0.18  -0.09     0.05   0.08   0.14     0.02  -0.22  -0.28
   6   9    -0.08  -0.21   0.00    -0.39  -0.12   0.14     0.33   0.02   0.13
   7   9    -0.56  -0.17   0.15    -0.07  -0.04   0.23    -0.11   0.15  -0.20
   8   9     0.18   0.03  -0.09     0.08   0.05  -0.14     0.22  -0.02  -0.28
   9   9     0.21   0.08  -0.00    -0.11  -0.39  -0.13    -0.01  -0.33   0.13
  10   9     0.16   0.56   0.15    -0.04  -0.07  -0.23    -0.15   0.10  -0.19
  11   1     0.02  -0.02  -0.03     0.02   0.02  -0.00    -0.03   0.03   0.10
                     10                     11                     12
                        a                      a                      a 
 Frequencies --   461.1535               461.6423               474.4850
 Red. masses --    17.9880                18.2504                17.8659
 Frc consts  --     0.0000                 0.0000                 0.0000
 IR Inten    --    32.2950                20.6775                 3.3176
 Raman Activ --     0.0000                 0.0000                 0.0000
 Depolar     --     0.0000                 0.0000                 0.0000
 Atom AN      X      Y      Z        X      Y      Z        X      Y      Z
   1   6     0.09  -0.17   0.07    -0.01  -0.17  -0.08     0.11  -0.08   0.17
   2   6     0.14  -0.17   0.02    -0.12  -0.07  -0.00     0.11   0.12  -0.00
   3   6     0.10  -0.08   0.09    -0.22   0.02   0.05    -0.08   0.10  -0.17
   4   8    -0.04   0.03  -0.05     0.00  -0.01   0.01     0.03   0.03   0.00
   5   9     0.07  -0.20   0.32     0.10   0.20   0.30     0.11  -0.35   0.08
   6   9    -0.14   0.43  -0.01    -0.07   0.24  -0.23    -0.08   0.25   0.24
   7   9    -0.11  -0.12  -0.36     0.10  -0.32  -0.06    -0.20   0.11  -0.34
   8   9     0.26  -0.03   0.20     0.10   0.12  -0.39    -0.36   0.10  -0.07
   9   9    -0.33   0.10   0.08     0.38  -0.10   0.21     0.25  -0.08  -0.24
  10   9    -0.00   0.14  -0.32    -0.34   0.05   0.19     0.12  -0.19   0.34
  11   1     0.07  -0.06  -0.04    -0.01   0.01   0.01     0.09   0.09  -0.00
                     13                     14                     15
                        a                      a                      a 
 Frequencies --   536.5959               609.6295               651.7953
 Red. masses --    16.9376                16.5652                17.4619
 Frc consts  --     0.0000                 0.0000                 0.0000
 IR Inten    --     2.4114                65.1486                 7.6619
 Raman Activ --     0.0000                 0.0000                 0.0000
 Depolar     --     0.0000                 0.0000                 0.0000
 Atom AN      X      Y      Z        X      Y      Z        X      Y      Z
   1   6    -0.07  -0.14  -0.12     0.27   0.05  -0.12     0.25   0.08  -0.10
   2   6    -0.14   0.14   0.27     0.20   0.21  -0.00     0.06  -0.05   0.18
   3   6     0.14   0.08  -0.12     0.05   0.27   0.11    -0.07  -0.26  -0.09
   4   8    -0.16   0.16   0.32    -0.12  -0.13   0.00    -0.09   0.09   0.11
   5   9     0.04   0.20   0.13    -0.01  -0.18   0.21     0.02  -0.21   0.19
   6   9     0.11   0.09  -0.32    -0.10  -0.10  -0.40    -0.06  -0.11  -0.39
   7   9    -0.02  -0.38   0.02    -0.14   0.19   0.16    -0.05   0.34   0.15
   8   9    -0.19  -0.05   0.13    -0.18  -0.01  -0.21     0.21  -0.02   0.18
   9   9    -0.10  -0.11  -0.32    -0.09  -0.10   0.40     0.10   0.07  -0.39
  10   9     0.38   0.03   0.01     0.19  -0.14  -0.16    -0.33   0.04   0.16
  11   1    -0.05   0.05   0.11     0.12   0.12  -0.00     0.03  -0.03   0.04
                     16                     17                     18
                        a                      a                      a 
 Frequencies --   750.7423               756.5002               991.8990
 Red. masses --    13.2775                13.3643                13.4519
 Frc consts  --     0.0000                 0.0000                 0.0000
 IR Inten    --    75.2871                60.4964                 0.0784
 Raman Activ --     0.0000                 0.0000                 0.0000
 Depolar     --     0.0000                 0.0000                 0.0000
 Atom AN      X      Y      Z        X      Y      Z        X      Y      Z
   1   6     0.02  -0.02  -0.02     0.04   0.05  -0.01    -0.04   0.04   0.61
   2   6    -0.55   0.56  -0.20    -0.52  -0.51   0.00    -0.06  -0.06   0.00
   3   6     0.02  -0.02  -0.02     0.05   0.04   0.01     0.04  -0.05  -0.61
   4   8     0.16  -0.16  -0.09     0.13   0.13  -0.00     0.04   0.04  -0.00
   5   9     0.26  -0.16   0.12     0.20  -0.19   0.12    -0.05   0.03  -0.07
   6   9    -0.04   0.01   0.02    -0.04  -0.03  -0.07     0.06  -0.03  -0.31
   7   9    -0.05   0.02  -0.01     0.07   0.25   0.03     0.00  -0.02  -0.05
   8   9     0.17  -0.26   0.12    -0.19   0.18  -0.12     0.04  -0.05   0.07
   9   9    -0.01   0.04   0.02    -0.03  -0.04   0.07    -0.02   0.06   0.31
  10   9    -0.03   0.05  -0.01     0.25   0.08  -0.04    -0.02   0.00   0.05
  11   1    -0.16   0.16   0.03    -0.22  -0.22   0.00     0.08   0.08  -0.00
                     19                     20                     21
                        a                      a                      a 
 Frequencies --  1026.9647              1030.2520              1089.6400
 Red. masses --    13.2017                13.4143                13.4830
 Frc consts  --     0.0000                 0.0000                 0.0000
 IR Inten    --   222.4453               441.6296               359.2052
 Raman Activ --     0.0000                 0.0000                 0.0000
 Depolar     --     0.0000                 0.0000                 0.0000
 Atom AN      X      Y      Z        X      Y      Z        X      Y      Z
   1   6     0.12  -0.55  -0.06    -0.02   0.06   0.60     0.10  -0.60   0.11
   2   6    -0.10  -0.11   0.02    -0.05   0.02  -0.15    -0.10   0.10  -0.00
   3   6    -0.53   0.10  -0.07    -0.17   0.04   0.60     0.60  -0.09   0.11
   4   8     0.02   0.03  -0.00     0.04  -0.03   0.00     0.02  -0.02  -0.01
   5   9    -0.16   0.14  -0.08    -0.03   0.03  -0.07    -0.14   0.14  -0.09
   6   9    -0.01   0.03   0.06     0.04  -0.03  -0.30    -0.00   0.03  -0.02
   7   9     0.08   0.29   0.05     0.00  -0.03  -0.05     0.05   0.24   0.04
   8   9     0.14  -0.16   0.09     0.00  -0.00  -0.05    -0.15   0.14  -0.09
   9   9     0.02  -0.00   0.01     0.04  -0.05  -0.30    -0.03   0.00  -0.02
  10   9     0.27   0.08  -0.05     0.09   0.02  -0.06    -0.23  -0.05   0.04
  11   1     0.19   0.20   0.01     0.05  -0.00  -0.06     0.04  -0.04  -0.05
                     22                     23                     24
                        a                      a                      a 
 Frequencies --  1114.7300              1147.9046              1224.8611
 Red. masses --    13.6886                13.7831                 4.0231
 Frc consts  --     0.0000                 0.0000                 0.0000
 IR Inten    --   134.2653                75.0336                21.9727
 Raman Activ --     0.0000                 0.0000                 0.0000
 Depolar     --     0.0000                 0.0000                 0.0000
 Atom AN      X      Y      Z        X      Y      Z        X      Y      Z
   1   6     0.55   0.16   0.01     0.59   0.12   0.02    -0.18   0.18  -0.11
   2   6    -0.22  -0.22   0.00    -0.13   0.13   0.01    -0.21  -0.22   0.00
   3   6     0.16   0.55  -0.02    -0.11  -0.59   0.02     0.19  -0.17   0.11
   4   8     0.03   0.03  -0.00     0.01  -0.01   0.02     0.04   0.04   0.00
   5   9    -0.20   0.11  -0.09    -0.20   0.12  -0.10     0.03  -0.04   0.04
   6   9    -0.05   0.00   0.11    -0.05   0.00   0.10     0.01  -0.01   0.02
   7   9    -0.08  -0.20  -0.04    -0.10  -0.20  -0.03     0.02  -0.02  -0.00
   8   9     0.11  -0.19   0.09    -0.12   0.20  -0.10    -0.04   0.03  -0.04
   9   9    -0.00  -0.05  -0.11    -0.00   0.05   0.10    -0.01   0.01  -0.02
  10   9    -0.20  -0.09   0.04     0.20   0.10  -0.04    -0.02   0.02   0.00
  11   1     0.05   0.05  -0.00    -0.00   0.00   0.02     0.60   0.61  -0.01
                     25                     26                     27
                        a                      a                      a 
 Frequencies --  1317.4484              1336.9411              2356.0797
 Red. masses --     3.2845                12.9676                 1.5190
 Frc consts  --     0.0000                 0.0000                 0.0000
 IR Inten    --    21.4581               561.3117               372.8828
 Raman Activ --     0.0000                 0.0000                 0.0000
 Depolar     --     0.0000                 0.0000                 0.0000
 Atom AN      X      Y      Z        X      Y      Z        X      Y      Z
   1   6    -0.03   0.05  -0.08    -0.04   0.03   0.04    -0.03   0.02  -0.01
   2   6    -0.13   0.12  -0.07    -0.11   0.11   0.74    -0.12   0.12  -0.10
   3   6    -0.05   0.03  -0.08    -0.03   0.04   0.04    -0.02   0.03  -0.01
   4   8     0.05  -0.04   0.33     0.12  -0.13  -0.58     0.01  -0.01  -0.06
   5   9     0.01  -0.01   0.01    -0.02   0.01  -0.01    -0.00  -0.00   0.00
   6   9     0.00   0.00   0.01     0.02  -0.00  -0.02    -0.00  -0.00   0.01
   7   9    -0.00  -0.01   0.00    -0.01  -0.03  -0.01     0.00  -0.00   0.00
   8   9     0.01  -0.01   0.01    -0.01   0.02  -0.01     0.00   0.00   0.00
   9   9    -0.00  -0.00   0.01     0.00  -0.02  -0.02     0.00   0.00   0.01
  10   9     0.01   0.00   0.00     0.03   0.01  -0.01     0.00  -0.00   0.00
  11   1     0.39  -0.39  -0.73     0.10  -0.10  -0.17     0.55  -0.53   0.61
