      -----------------------------------------------------------      
     |                   =====================                   |     
     |                           x T B                           |     
     |                   =====================                   |     
     |                         S. Grimme                         |     
     |          Mulliken Center for Theoretical Chemistry        |     
     |                    University of Bonn                     |     
      -----------------------------------------------------------      

   * xtb version 6.7.1 (edcfbbe) compiled by 'albert@albert-system' on 2024-07-22

   xtb is free software: you can redistribute it and/or modify it under
   the terms of the GNU Lesser General Public License as published by
   the Free Software Foundation, either version 3 of the License, or
   (at your option) any later version.
   
   xtb is distributed in the hope that it will be useful,
   but WITHOUT ANY WARRANTY; without even the implied warranty of
   MERCHANTABILITY or FITNESS FOR A PARTICULAR PURPOSE.  See the
   GNU Lesser General Public License for more details.
   
   Cite this work as:
   * C. Bannwarth, E. Caldeweyher, S. Ehlert, A. Hansen, P. Pracht,
     J. Seibert, S. Spicher, S. Grimme, WIREs Comput. Mol. Sci., 2020, 11,
     e01493. DOI: 10.1002/wcms.1493
   
   for GFN2-xTB:
   * C. Bannwarth, S. Ehlert and S. Grimme., J. Chem. Theory Comput., 2019,
     15, 1652-1671. DOI: 10.1021/acs.jctc.8b01176
   for GFN1-xTB:
   * S. Grimme, C. Bannwarth, P. Shushkov, J. Chem. Theory Comput., 2017,
     13, 1989-2009. DOI: 10.1021/acs.jctc.7b00118
   for GFN0-xTB:
   * P. Pracht, E. Caldeweyher, S. Ehlert, S. Grimme, ChemRxiv, 2019, preprint.
     DOI: 10.26434/chemrxiv.8326202.v1
   for GFN-FF:
   * S. Spicher and S. Grimme, Angew. Chem. Int. Ed., 2020, 59, 15665-15673.
     DOI: 10.1002/anie.202004239
   
   for ALPB and GBSA implicit solvation:
   * S. Ehlert, M. Stahn, S. Spicher, S. Grimme, J. Chem. Theory Comput.,
     2021, 17, 4250-4261. DOI: 10.1021/acs.jctc.1c00471
   
   for ddCOSMO and CPCM-X implicit solvation:
   * M. Stahn, S. Ehlert, S. Grimme, J. Phys. Chem. A,
     2023, XX, XXXX-XXXX. DOI: 10.1021/acs.jpca.3c04382
   
   for DFT-D4:
   * E. Caldeweyher, C. Bannwarth and S. Grimme, J. Chem. Phys., 2017,
     147, 034112. DOI: 10.1063/1.4993215
   * E. Caldeweyher, S. Ehlert, A. Hansen, H. Neugebauer, S. Spicher,
     C. Bannwarth and S. Grimme, J. Chem. Phys., 2019, 150, 154122.
     DOI: 10.1063/1.5090222
   * E. Caldeweyher, J.-M. Mewes, S. Ehlert and S. Grimme, Phys. Chem. Chem. Phys.
     2020, 22, 8499-8512. DOI: 10.1039/D0CP00502A
   
   for sTDA-xTB:
   * S. Grimme and C. Bannwarth, J. Chem. Phys., 2016, 145, 054103.
     DOI: 10.1063/1.4959605
   
   in the mass-spec context:
   * V. Asgeirsson, C. Bauer and S. Grimme, Chem. Sci., 2017, 8, 4879.
     DOI: 10.1039/c7sc00601b
   * J. Koopman and S. Grimme, ACS Omega 2019, 4, 12, 15120-15133.
     DOI: 10.1021/acsomega.9b02011
   
   for metadynamics refer to:
   * S. Grimme, J. Chem. Theory Comput., 2019, 155, 2847-2862
     DOI: 10.1021/acs.jctc.9b00143
   
   for SPH calculations refer to:
   * S. Spicher and S. Grimme, J. Chem. Theory Comput., 2021, 17, 1701-1714
     DOI: 10.1021/acs.jctc.0c01306
   
   for ONIOM refer to:
   * C. Plett, A. Katbashev, S. Ehlert, S. Grimme, M. Bursch,
     Phys. Chem. Chem. Phys., 2023, 25, 17860-17868. DOI: 10.1039/D3CP02178E
   
   for DIPRO refer to:
   * J. Kohn, N. Gildemeister, S. Grimme, D. Fazzi, A. Hansen,
     J. Chem. Phys., 2023, just accepted.
   
   for PTB refer to:
   * S. Grimme, M. Mueller, A. Hansen, J. Chem. Phys., 2023, 158, 124111.
     DOI: 10.1063/5.0137838
   
   with help from (in alphabetical order)
   P. Atkinson, C. Bannwarth, F. Bohle, G. Brandenburg, E. Caldeweyher
   M. Checinski, S. Dohm, S. Ehlert, S. Ehrlich, I. Gerasimov, C. Hölzer
   A. Katbashev, J. Kohn, J. Koopman, C. Lavigne, S. Lehtola, F. März, M. Müller,
   F. Musil, H. Neugebauer, J. Pisarek, C. Plett, P. Pracht, F. Pultar,
   J. Seibert, P. Shushkov, S. Spicher, M. Stahn, M. Steiner, T. Strunk,
   J. Stückrath, T. Rose, and J. Unsleber
   
 * started run on 2025/10/18 at 07:33:46.234     
   ID    Z sym.   atoms
    1    6 C      1-3
    2    8 O      4
    3    9 F      5-10
    4    1 H      11

           -------------------------------------------------
          |                Calculation Setup                |
           -------------------------------------------------

          program call               : xtb xyz.xyz --charge -1 --ohess
          hostname                   : m003
          coordinate file            : xyz.xyz
          omp threads                :                     2


           -------------------------------------------------
          |                 G F N 2 - x T B                 |
           -------------------------------------------------

        Reference                      10.1021/acs.jctc.8b01176
      * Hamiltonian:
        H0-scaling (s, p, d)           1.850000    2.230000    2.230000
        zeta-weighting                 0.500000
      * Dispersion:
        s8                             2.700000
        a1                             0.520000
        a2                             5.000000
        s9                             5.000000
      * Repulsion:
        kExp                           1.500000    1.000000
        rExp                           1.000000
      * Coulomb:
        alpha                          2.000000
        third order                    shell-resolved
        anisotropic                    true
        a3                             3.000000
        a5                             4.000000
        cn-shift                       1.200000
        cn-exp                         4.000000
        max-rad                        5.000000

q/qsh data taken from xtbrestart
CAMM data taken from xtbrestart

          ...................................................
          :                      SETUP                      :
          :.................................................:
          :  # basis functions                  41          :
          :  # atomic orbitals                  41          :
          :  # shells                           21          :
          :  # electrons                        62          :
          :  max. iterations                   250          :
          :  Hamiltonian                  GFN2-xTB          :
          :  restarted?                       true          :
          :  GBSA solvation                  false          :
          :  PC potential                    false          :
          :  electronic temp.          300.0000000     K    :
          :  accuracy                    1.0000000          :
          :  -> integral cutoff          0.2500000E+02      :
          :  -> integral neglect         0.1000000E-07      :
          :  -> SCF convergence          0.1000000E-05 Eh   :
          :  -> wf. convergence          0.1000000E-03 e    :
          :  Broyden damping             0.4000000          :
          :  net charge                         -1          :
          :  unpaired electrons                  0          :
          ...................................................

 iter      E             dE          RMSdq      gap      omega  full diag
   1    -39.7532334 -0.397532E+02  0.475E-01    9.32       0.0  T
   2    -39.7540121 -0.778709E-03  0.276E-01    9.10       1.0  T
   3    -39.7540799 -0.677978E-04  0.142E-01    9.05       1.0  T
   4    -39.7540915 -0.115489E-04  0.461E-02    9.02       1.0  T
   5    -39.7540945 -0.307411E-05  0.580E-03    9.03       5.2  T
   6    -39.7540946 -0.307844E-07  0.275E-03    9.04      11.0  T
   7    -39.7540946 -0.501930E-08  0.630E-04    9.04      47.8  T
   8    -39.7540946 -0.309122E-09  0.142E-04    9.04     212.2  T

   *** convergence criteria satisfied after 8 iterations ***

         #    Occupation            Energy/Eh            Energy/eV
      -------------------------------------------------------------
         1        2.0000           -0.7357222             -20.0200
       ...           ...                  ...                  ...
        25        2.0000           -0.3878191             -10.5531
        26        2.0000           -0.3861116             -10.5066
        27        2.0000           -0.3527250              -9.5981
        28        2.0000           -0.3386054              -9.2139
        29        2.0000           -0.3063568              -8.3364
        30        2.0000           -0.1826129              -4.9692
        31        2.0000           -0.1787281              -4.8634 (HOMO)
        32                          0.1533574               4.1731 (LUMO)
        33                          0.1729563               4.7064
        34                          0.2210404               6.0148
        35                          0.2372535               6.4560
        36                          0.2582859               7.0283
       ...                                ...                  ...
        41                          0.5605412              15.2531
      -------------------------------------------------------------
                  HL-Gap            0.3320855 Eh            9.0365 eV
             Fermi-level           -0.0126853 Eh           -0.3452 eV

 SCC (total)                   0 d,  0 h,  0 min,  0.011 sec
 SCC setup                      ...        0 min,  0.000 sec (  2.429%)
 Dispersion                     ...        0 min,  0.000 sec (  0.653%)
 classical contributions        ...        0 min,  0.000 sec (  0.212%)
 integral evaluation            ...        0 min,  0.001 sec (  9.087%)
 iterations                     ...        0 min,  0.008 sec ( 68.648%)
 molecular gradient             ...        0 min,  0.002 sec ( 17.750%)
 printout                       ...        0 min,  0.000 sec (  0.934%)

         :::::::::::::::::::::::::::::::::::::::::::::::::::::
         ::                     SUMMARY                     ::
         :::::::::::::::::::::::::::::::::::::::::::::::::::::
         :: total energy             -39.631053872935 Eh    ::
         :: gradient norm              0.083104100860 Eh/a0 ::
         :: HOMO-LUMO gap              9.036505526335 eV    ::
         ::.................................................::
         :: SCC energy               -39.754088193043 Eh    ::
         :: -> isotropic ES            0.231407647298 Eh    ::
         :: -> anisotropic ES         -0.006964289102 Eh    ::
         :: -> anisotropic XC         -0.044836395195 Eh    ::
         :: -> dispersion             -0.008016253114 Eh    ::
         :: repulsion energy           0.123034320108 Eh    ::
         :: add. restraining           0.000000000000 Eh    ::
         :: total charge              -1.000000000000 e     ::
         :::::::::::::::::::::::::::::::::::::::::::::::::::::

      ----------------------------------------------------------- 
     |                   =====================                   |
     |                        A N C O P T                        |
     |                   =====================                   |
     |               Approximate Normal Coordinate               |
     |                Rational Function Optimizer                |
      ----------------------------------------------------------- 
      ----------------------------------------------------------- 
     |                   =====================                   |
     |                        A N C O P T                        |
     |                   =====================                   |
     |               Approximate Normal Coordinate               |
     |                Rational Function Optimizer                |
      ----------------------------------------------------------- 

          ...................................................
          :                      SETUP                      :
          :.................................................:
          :   optimization level            normal          :
          :   max. optcycles                   200          :
          :   ANC micro-cycles                  20          :
          :   degrees of freedom                27          :
          :.................................................:
          :   RF solver                   davidson          :
          :   write xtbopt.log                true          :
          :   linear?                        false          :
          :   energy convergence         0.5000000E-05 Eh   :
          :   grad. convergence          0.1000000E-02 Eh/α :
          :   maxmium RF displ.          1.0000000          :
          :   Hlow (freq-cutoff)         0.1000000E-01      :
          :   Hmax (freq-cutoff)         5.0000000          :
          :   S6 in model hess.         20.0000000          :
          ...................................................

generating ANC from exact Hessian ...
Using Lindh-Hessian (1995)
 Shifting diagonal of input Hessian by   0.000000000000000E+000
 Lowest  eigenvalues of input Hessian
    0.000000    0.000000    0.000000    0.000000    0.000000    0.000000
    0.010727    0.013126    0.016776    0.046383    0.049224    0.065699
    0.070813    0.071942    0.085855    0.102998    0.140656    0.261694
 Highest eigenvalues
    1.377521    1.723512    1.783828    1.812312    1.820648    1.858801
 

........................................................................
.............................. CYCLE    1 ..............................
........................................................................

 iter      E             dE          RMSdq      gap      omega  full diag
   1    -39.7540946 -0.397541E+02  0.453E-05    9.04       0.0  T
   2    -39.7540946 -0.618172E-11  0.203E-05    9.04    1484.9  T
   3    -39.7540946 -0.397904E-12  0.964E-06    9.04    3128.3  T
     SCC iter.                  ...        0 min,  0.001 sec
     gradient                   ...        0 min,  0.002 sec
 * total energy  :   -39.6310539 Eh     change       -0.3502976E-10 Eh
   gradient norm :     0.0831049 Eh/α   predicted     0.0000000E+00 (-100.00%)
   displ. norm   :     0.1646793 α      lambda       -0.8779228E-02
   maximum displ.:     0.0866172 α      in ANC's #12, #11, #21, ...

........................................................................
.............................. CYCLE    2 ..............................
........................................................................

 iter      E             dE          RMSdq      gap      omega  full diag
   1    -39.7512211 -0.397512E+02  0.325E-01    8.91       0.0  T
   2    -39.7514533 -0.232289E-03  0.182E-01    9.05       1.0  T
   3    -39.7514673 -0.139966E-04  0.814E-02    9.08       1.0  T
   4    -39.7514742 -0.690117E-05  0.241E-02    9.09       1.2  T
   5    -39.7514753 -0.104155E-05  0.463E-03    9.09       6.5  T
   6    -39.7514753 -0.235319E-07  0.213E-03    9.09      14.2  T
   7    -39.7514753 -0.421424E-08  0.542E-04    9.09      55.7  T
   8    -39.7514753 -0.267619E-09  0.110E-04    9.09     275.2  T
     SCC iter.                  ...        0 min,  0.003 sec
     gradient                   ...        0 min,  0.002 sec
 * total energy  :   -39.6369301 Eh     change       -0.5876191E-02 Eh
   gradient norm :     0.0366556 Eh/α   predicted    -0.4508657E-02 ( -23.27%)
   displ. norm   :     0.0966587 α      lambda       -0.2174619E-02
   maximum displ.:     0.0540207 α      in ANC's #7, #21, #12, ...

........................................................................
.............................. CYCLE    3 ..............................
........................................................................

 iter      E             dE          RMSdq      gap      omega  full diag
   1    -39.7484921 -0.397485E+02  0.142E-01    8.83       0.0  T
   2    -39.7486048 -0.112731E-03  0.924E-02    8.91       1.0  T
   3    -39.7486151 -0.102934E-04  0.527E-02    8.93       1.0  T
   4    -39.7486156 -0.482188E-06  0.173E-02    8.94       1.7  T
   5    -39.7486160 -0.396390E-06  0.198E-03    8.94      15.2  T
   6    -39.7486160 -0.241434E-08  0.386E-04    8.94      78.2  T
   7    -39.7486160 -0.176733E-09  0.172E-04    8.94     175.2  T
     SCC iter.                  ...        0 min,  0.003 sec
     gradient                   ...        0 min,  0.002 sec
 * total energy  :   -39.6380471 Eh     change       -0.1117080E-02 Eh
   gradient norm :     0.0064480 Eh/α   predicted    -0.1097469E-02 (  -1.76%)
   displ. norm   :     0.0203385 α      lambda       -0.5066089E-04
   maximum displ.:     0.0156175 α      in ANC's #5, #7, #2, ...

........................................................................
.............................. CYCLE    4 ..............................
........................................................................

 iter      E             dE          RMSdq      gap      omega  full diag
   1    -39.7485963 -0.397486E+02  0.264E-02    8.97       0.0  T
   2    -39.7485993 -0.298553E-05  0.140E-02    8.98       2.2  T
   3    -39.7485995 -0.264634E-06  0.806E-03    8.98       3.7  T
   4    -39.7485996 -0.276202E-07  0.220E-03    8.98      13.7  T
   5    -39.7485996 -0.723742E-08  0.253E-04    8.98     119.1  T
   6    -39.7485996 -0.204210E-10  0.734E-05    8.98     410.9  T
     SCC iter.                  ...        0 min,  0.002 sec
     gradient                   ...        0 min,  0.002 sec
 * total energy  :   -39.6380832 Eh     change       -0.3609695E-04 Eh
   gradient norm :     0.0033209 Eh/α   predicted    -0.2533946E-04 ( -29.80%)
   displ. norm   :     0.0217040 α      lambda       -0.2605503E-04
   maximum displ.:     0.0187499 α      in ANC's #5, #3, #2, ...

........................................................................
.............................. CYCLE    5 ..............................
........................................................................

 iter      E             dE          RMSdq      gap      omega  full diag
   1    -39.7485787 -0.397486E+02  0.228E-02    8.99       0.0  T
   2    -39.7485810 -0.228303E-05  0.110E-02    9.00       2.7  T
   3    -39.7485812 -0.192747E-06  0.658E-03    9.00       4.6  T
   4    -39.7485812 -0.253267E-07  0.224E-03    9.00      13.5  T
   5    -39.7485812 -0.511645E-08  0.324E-04    9.00      93.1  T
   6    -39.7485812 -0.543281E-10  0.105E-04    9.00     288.3  T
     SCC iter.                  ...        0 min,  0.002 sec
     gradient                   ...        0 min,  0.002 sec
 * total energy  :   -39.6380981 Eh     change       -0.1490863E-04 Eh
   gradient norm :     0.0009503 Eh/α   predicted    -0.1303355E-04 ( -12.58%)
   displ. norm   :     0.0209965 α      lambda       -0.3834732E-05
   maximum displ.:     0.0130464 α      in ANC's #2, #3, #5, ...

........................................................................
.............................. CYCLE    6 ..............................
........................................................................

 iter      E             dE          RMSdq      gap      omega  full diag
   1    -39.7485389 -0.397485E+02  0.116E-02    9.00       0.0  T
   2    -39.7485392 -0.330479E-06  0.620E-03    9.00       4.9  T
   3    -39.7485393 -0.230748E-07  0.323E-03    9.00       9.3  T
   4    -39.7485393 -0.939318E-08  0.838E-04    9.00      36.0  T
   5    -39.7485393 -0.156842E-08  0.135E-04    9.00     222.9  T
     SCC iter.                  ...        0 min,  0.002 sec
     gradient                   ...        0 min,  0.002 sec
 * total energy  :   -39.6381019 Eh     change       -0.3790453E-05 Eh
   gradient norm :     0.0007676 Eh/α   predicted    -0.1919547E-05 ( -49.36%)
   displ. norm   :     0.0252457 α      lambda       -0.2891289E-05
   maximum displ.:     0.0175381 α      in ANC's #3, #2, #5, ...

   *** GEOMETRY OPTIMIZATION CONVERGED AFTER 6 ITERATIONS ***

------------------------------------------------------------------------
 total energy gain   :        -0.0070481 Eh       -4.4227 kcal/mol
 total RMSD          :         0.0780655 a0        0.0413 Å
 total power (kW/mol):        -3.0841164 (step) -504.0252 (real)
------------------------------------------------------------------------

 ANCopt (total)                0 d,  0 h,  0 min,  0.037 sec
 optimizer setup                ...        0 min,  0.000 sec (  0.381%)
 model hessian                  ...        0 min,  0.001 sec (  3.970%)
 ANC generation                 ...        0 min,  0.000 sec (  0.503%)
 coordinate transformation      ...        0 min,  0.000 sec (  0.125%)
 single point calculation       ...        0 min,  0.032 sec ( 86.335%)
 optimization log               ...        0 min,  0.003 sec (  6.951%)
 hessian update                 ...        0 min,  0.000 sec (  0.156%)
 rational function              ...        0 min,  0.000 sec (  0.828%)

================
 final structure:
================
11
 xtb: 6.7.1 (edcfbbe)
C           -3.79325510597456       -3.33472935005026        0.37350113464457
C           -5.27445324477022       -3.63650909459917        0.83922168733862
C           -5.55045919522508       -5.12663502658599        0.38573108161480
O           -5.49150570871596       -3.41487837987368        2.07495850738166
F           -2.85076634839235       -4.08581854407181        0.96514515813653
F           -3.58161703232933       -3.47930292839276       -0.96437543244652
F           -3.46425876129544       -2.05487774544461        0.63043973660858
F           -4.76780548294897       -6.04926850063966        0.96802437774706
F           -5.42423812420120       -5.34089534046048       -0.95359150488763
F           -6.81768610604968       -5.48345174001841        0.66625320862927
H           -5.88714389009719       -3.04103134986317        0.07689604523307
 
 Bond Distances (Angstroems)
 ---------------------------
C1-C2=1.5817         C1-F5=1.3426         C1-F6=1.3622         C1-F7=1.3462         C2-C1=1.5817         C2-C3=1.5819         
C2-O4=1.2741         C2-H11=1.1450        C3-C2=1.5819         C3-F8=1.3427         C3-F9=1.3622         C3-F10=1.3461        
O4-C2=1.2741         F5-C1=1.3426         F6-C1=1.3622         F7-C1=1.3462         F8-C3=1.3427         F9-C3=1.3622         
F10-C3=1.3461        H11-C2=1.1450        
 C  H  Rav=1.1450 sigma=0.0000  Rmin=1.1450  Rmax=1.1450     1
 C  C  Rav=1.5818 sigma=0.0001  Rmin=1.5817  Rmax=1.5819     2
 O  C  Rav=1.2741 sigma=0.0000  Rmin=1.2741  Rmax=1.2741     1
 F  C  Rav=1.3503 sigma=0.0085  Rmin=1.3426  Rmax=1.3622     6
 
 selected bond angles (degree)
 --------------------
F5-C1-C2=114.89                F6-C1-C2=114.48                F6-C1-F5=105.33                F7-C1-C2=110.73                
F7-C1-F5=106.03                F7-C1-F6=104.50                C3-C2-C1=104.99                O4-C2-C1=114.33                
O4-C2-C3=114.34                H11-C2-C1=101.88               H11-C2-C3=101.87               H11-C2-O4=117.65               
F8-C3-C2=114.91                F9-C3-C2=114.45                F9-C3-F8=105.32                F10-C3-C2=110.75               
F10-C3-F8=106.04               F10-C3-F9=104.50               
 
 selected dihedral angles (degree)
 ---------------------------------
C3-C2-C1-F5=296.22            C3-C2-C1-F6= 58.32            C3-C2-C1-F7=176.13            O4-C2-C1-F5= 62.33            
O4-C2-C1-F6=184.44            O4-C2-C1-F7=302.25            H11-C2-C1-F5=190.32           H11-C2-C1-F6=312.43           
H11-C2-C1-F7= 70.24           F8-C3-C2-C1= 63.12            F8-C3-C2-O4=297.02            F8-C3-C2-H11=169.03           
F9-C3-C2-C1=301.03            F9-C3-C2-O4=174.93            F9-C3-C2-H11= 46.94           F10-C3-C2-C1=183.23           
F10-C3-C2-O4= 57.13           F10-C3-C2-H11=289.14          
           -------------------------------------------------
          |                Final Singlepoint                |
           -------------------------------------------------

          ...................................................
          :                      SETUP                      :
          :.................................................:
          :  # basis functions                  41          :
          :  # atomic orbitals                  41          :
          :  # shells                           21          :
          :  # electrons                        62          :
          :  max. iterations                   250          :
          :  Hamiltonian                  GFN2-xTB          :
          :  restarted?                      false          :
          :  GBSA solvation                  false          :
          :  PC potential                    false          :
          :  electronic temp.          300.0000000     K    :
          :  accuracy                    1.0000000          :
          :  -> integral cutoff          0.2500000E+02      :
          :  -> integral neglect         0.1000000E-07      :
          :  -> SCF convergence          0.1000000E-05 Eh   :
          :  -> wf. convergence          0.1000000E-03 e    :
          :  Broyden damping             0.4000000          :
          :  net charge                         -1          :
          :  unpaired electrons                  0          :
          ...................................................

 iter      E             dE          RMSdq      gap      omega  full diag
   1    -39.7485393 -0.397485E+02  0.719E-05    9.00       0.0  T
   2    -39.7485393 -0.396483E-11  0.381E-05    9.00     792.1  T
   3    -39.7485393 -0.504485E-12  0.135E-05    9.00    2239.4  T

   *** convergence criteria satisfied after 3 iterations ***

         #    Occupation            Energy/Eh            Energy/eV
      -------------------------------------------------------------
         1        2.0000           -0.7318127             -19.9136
       ...           ...                  ...                  ...
        25        2.0000           -0.3855270             -10.4907
        26        2.0000           -0.3849172             -10.4741
        27        2.0000           -0.3641291              -9.9085
        28        2.0000           -0.3516352              -9.5685
        29        2.0000           -0.3236688              -8.8075
        30        2.0000           -0.2013163              -5.4781
        31        2.0000           -0.1965340              -5.3480 (HOMO)
        32                          0.1343786               3.6566 (LUMO)
        33                          0.1358410               3.6964
        34                          0.1593702               4.3367
        35                          0.1813921               4.9359
        36                          0.1922518               5.2314
       ...                                ...                  ...
        41                          0.5841511              15.8956
      -------------------------------------------------------------
                  HL-Gap            0.3309126 Eh            9.0046 eV
             Fermi-level           -0.0310777 Eh           -0.8457 eV

 SCC (total)                   0 d,  0 h,  0 min,  0.004 sec
 SCC setup                      ...        0 min,  0.000 sec (  1.903%)
 Dispersion                     ...        0 min,  0.000 sec (  0.951%)
 classical contributions        ...        0 min,  0.000 sec (  0.238%)
 integral evaluation            ...        0 min,  0.001 sec ( 21.214%)
 iterations                     ...        0 min,  0.001 sec ( 26.390%)
 molecular gradient             ...        0 min,  0.002 sec ( 46.891%)
 printout                       ...        0 min,  0.000 sec (  1.784%)

         :::::::::::::::::::::::::::::::::::::::::::::::::::::
         ::                     SUMMARY                     ::
         :::::::::::::::::::::::::::::::::::::::::::::::::::::
         :: total energy             -39.638101940275 Eh    ::
         :: gradient norm              0.000767317449 Eh/a0 ::
         :: HOMO-LUMO gap              9.004590354135 eV    ::
         ::.................................................::
         :: SCC energy               -39.748532443546 Eh    ::
         :: -> isotropic ES            0.224550843695 Eh    ::
         :: -> anisotropic ES         -0.006819357176 Eh    ::
         :: -> anisotropic XC         -0.041779776877 Eh    ::
         :: -> dispersion             -0.007950872320 Eh    ::
         :: repulsion energy           0.110430503271 Eh    ::
         :: add. restraining           0.000000000000 Eh    ::
         :: total charge              -1.000000000000 e     ::
         :::::::::::::::::::::::::::::::::::::::::::::::::::::

           ------------------------------------------------- 
          |                Numerical Hessian                |
           ------------------------------------------------- 
step length          :   0.00500
SCC accuracy         :   0.30000
Hessian scale factor :   1.00000
frozen atoms in %    :   0.00000    0
RMS gradient         :   0.00077
estimated CPU  time      0.01 min
estimated wall time      0.01 min

writing file <hessian>.

 projected vibrational frequencies (cm⁻¹)
eigval :       -0.00    -0.00     0.00     0.00     0.00     0.00
eigval :       -7.94    66.17   127.74   190.87   191.40   235.14
eigval :      286.54   310.48   417.67   461.15   461.64   474.48
eigval :      536.60   609.63   651.80   750.74   756.50   991.90
eigval :     1026.96  1030.25  1089.64  1114.73  1147.90  1224.86
eigval :     1317.45  1336.94  2356.08
           -------------------------------------------------
          |                Property Printout                |
           -------------------------------------------------

    * Orbital Energies and Occupations

         #    Occupation            Energy/Eh            Energy/eV
      -------------------------------------------------------------
         1        2.0000           -0.7318127             -19.9136
       ...           ...                  ...                  ...
        19        2.0000           -0.4001639             -10.8890
        20        2.0000           -0.3986541             -10.8479
        21        2.0000           -0.3886677             -10.5762
        22        2.0000           -0.3879094             -10.5556
        23        2.0000           -0.3870927             -10.5333
        24        2.0000           -0.3864079             -10.5147
        25        2.0000           -0.3855270             -10.4907
        26        2.0000           -0.3849172             -10.4741
        27        2.0000           -0.3641291              -9.9085
        28        2.0000           -0.3516352              -9.5685
        29        2.0000           -0.3236687              -8.8075
        30        2.0000           -0.2013162              -5.4781
        31        2.0000           -0.1965340              -5.3480 (HOMO)
        32                          0.1343786               3.6566 (LUMO)
        33                          0.1358411               3.6964
        34                          0.1593702               4.3367
        35                          0.1813921               4.9359
        36                          0.1922518               5.2314
        37                          0.2581842               7.0256
        38                          0.2880020               7.8369
        39                          0.2964064               8.0656
        40                          0.2983020               8.1172
        41                          0.5841512              15.8956
      -------------------------------------------------------------
                  HL-Gap            0.3309126 Eh            9.0046 eV
             Fermi-level           -0.0310777 Eh           -0.8457 eV

     #   Z          covCN         q      C6AA      α(0)
     1   6 C        3.323     0.442    18.071     6.762
     2   6 C        3.706     0.170    18.006     6.066
     3   6 C        3.322     0.442    18.072     6.762
     4   8 O        0.856    -0.659    27.609     7.045
     5   9 F        0.790    -0.214    11.376     3.984
     6   9 F        0.790    -0.244    11.703     4.041
     7   9 F        0.791    -0.217    11.409     3.990
     8   9 F        0.790    -0.214    11.379     3.985
     9   9 F        0.790    -0.244    11.702     4.041
    10   9 F        0.791    -0.216    11.406     3.989
    11   1 H        0.913    -0.046     4.002     3.129

 Mol. C6AA /au·bohr⁶  :       1606.906936
 Mol. C8AA /au·bohr⁸  :      33153.433168
 Mol. α(0) /au        :         53.793579


Wiberg/Mayer (AO) data.
largest (>0.10) Wiberg bond orders for each atom

 ---------------------------------------------------------------------------
     #   Z sym  total        # sym  WBO       # sym  WBO       # sym  WBO
 ---------------------------------------------------------------------------
     1   6 C    3.760 --     5 F    0.952     7 F    0.948     6 F    0.918
                             2 C    0.836
     2   6 C    3.970 --     4 O    1.288    11 H    0.894     1 C    0.836
                             3 C    0.836
     3   6 C    3.760 --     8 F    0.952    10 F    0.948     9 F    0.918
                             2 C    0.836
     4   8 O    1.566 --     2 C    1.288
     5   9 F    1.069 --     1 C    0.952
     6   9 F    1.035 --     1 C    0.918
     7   9 F    1.062 --     1 C    0.948
     8   9 F    1.069 --     3 C    0.952
     9   9 F    1.035 --     3 C    0.918
    10   9 F    1.063 --     3 C    0.948
    11   1 H    0.998 --     2 C    0.894
 ---------------------------------------------------------------------------

Topologies differ in total number of bonds
Writing topology from bond orders to xtbtopo.mol

molecular dipole:
                 x           y           z       tot (Debye)
 q only:        9.293       7.530      -2.112
   full:        9.330       7.491      -2.458      31.047
molecular quadrupole (traceless):
                xx          xy          yy          xz          yz          zz
 q only:      -55.335    -107.993     -11.023      32.817      20.556      66.358
  q+dip:      -54.890    -107.541      -8.655      38.514      23.584      63.544
   full:      -55.141    -107.713      -8.911      38.465      23.639      64.052

           -------------------------------------------------
          |                Geometry Summary                 |
           -------------------------------------------------

      molecular mass/u    :      167.0299723
   center of mass at/Å    :       -4.6731210      -4.2288086       0.4634025
  moments of inertia/u·Å² :        0.2379232E+03   0.4814269E+03   0.5425491E+03
rotational constants/cm⁻¹ :        0.7085326E-01   0.3501598E-01   0.3107117E-01

 * 8 selected distances

     #   Z          #   Z                                           value/Å
     2   6 C        4   8 O                                       1.2740792
     1   6 C        5   9 F                                       1.3425584
     1   6 C        6   9 F                                       1.3622064
     1   6 C        7   9 F                                       1.3462082
     3   6 C        8   9 F                                       1.3427082
     3   6 C        9   9 F                                       1.3622131 (max)
     3   6 C       10   9 F                                       1.3460591
     2   6 C       11   1 H                                       1.1450433 (min)

 * 3 distinct bonds (by element types)

   Z      Z             #   av. dist./Å        max./Å        min./Å
   1 H    6 C           1     1.1450433     1.1450433     1.1450433
   6 C    8 O           1     1.2740792     1.2740792     1.2740792
   6 C    9 F           6     1.3503256     1.3622131     1.3425584

           -------------------------------------------------
          |               Frequency Printout                |
           -------------------------------------------------
 projected vibrational frequencies (cm⁻¹)
eigval :       -0.00    -0.00     0.00     0.00     0.00     0.00
eigval :       -7.94    66.17   127.74   190.87   191.40   235.14
eigval :      286.54   310.48   417.67   461.15   461.64   474.48
eigval :      536.60   609.63   651.80   750.74   756.50   991.90
eigval :     1026.96  1030.25  1089.64  1114.73  1147.90  1224.86
eigval :     1317.45  1336.94  2356.08
 reduced masses (amu)
   1: 17.29   2: 18.33   3: 17.07   4: 17.95   5: 17.98   6: 16.70   7: 18.92   8: 17.63
   9: 18.22  10: 17.63  11: 17.62  12: 18.25  13: 18.38  14: 17.37  15: 17.22  16: 17.99
  17: 18.25  18: 17.87  19: 16.94  20: 16.57  21: 17.46  22: 13.28  23: 13.36  24: 13.45
  25: 13.20  26: 13.41  27: 13.48  28: 13.69  29: 13.78  30:  4.02  31:  3.28  32: 12.97
  33:  1.52
 IR intensities (km·mol⁻¹)
   1:  3.31   2:  0.39   3:  5.98   4:  3.17   5:  3.53   6:  6.10   7:  0.04   8:  3.76
   9:  0.20  10: 12.09  11: 11.19  12:  3.60  13:  4.79  14:  0.13  15: 15.61  16: 32.29
  17: 20.68  18:  3.32  19:  2.41  20: 65.15  21:  7.66  22: 75.29  23: 60.50  24:  0.08
  25:222.45  26:441.63  27:359.21  28:134.27  29: 75.03  30: 21.97  31: 21.46  32:561.31
  33:372.88
 Raman intensities (Ä⁴*amu⁻¹)
   1:  0.00   2:  0.00   3:  0.00   4:  0.00   5:  0.00   6:  0.00   7:  0.00   8:  0.00
   9:  0.00  10:  0.00  11:  0.00  12:  0.00  13:  0.00  14:  0.00  15:  0.00  16:  0.00
  17:  0.00  18:  0.00  19:  0.00  20:  0.00  21:  0.00  22:  0.00  23:  0.00  24:  0.00
  25:  0.00  26:  0.00  27:  0.00  28:  0.00  29:  0.00  30:  0.00  31:  0.00  32:  0.00
  33:  0.00
 output can be read by thermo (or use thermo option).
 writing <g98.out> molden fake output.
 recommended (thermochemical) frequency scaling factor: 1.0
           -------------------------------------------------
          |             Thermodynamic Functions             |
           -------------------------------------------------

Refinement of some symmetry elements was terminated before convergence was reached.
Some symmetry elements may remain unidentified.
Molecule has the following symmetry elements: (sigma) 
It seems to be the Cs point group
cs  symmetry found (for desy threshold:  0.10E+00) used in thermo
 inverting freq            1   7.93749799988555     

          ...................................................
          :                      SETUP                      :
          :.................................................:
          :  # frequencies                          27      :
          :  # imaginary freq.                       0      :
          :  linear?                             false      :
          :  only rotor calc.                    false      :
          :  symmetry                               cs      :
          :  rotational number                       1      :
          :  scaling factor                  1.0000000      :
          :  rotor cutoff                   50.0000000 cm⁻¹ :
          :  imag. cutoff                  -20.0000000 cm⁻¹ :
          :.................................................:

    mode    ω/cm⁻¹     T·S(HO)/kcal·mol⁻¹    T·S(FR)/kcal·mol⁻¹   T·S(vib)
   ------------------------------------------------------------------------
       1      7.94    -2.52533 (  0.06%)    -1.60027 ( 99.94%)    -1.60086
       2     66.17    -1.27139 ( 75.41%)    -0.97338 ( 24.59%)    -1.19811
       3    127.74    -0.88843 ( 97.71%)    -0.77860 (  2.29%)    -0.88591
       4    190.87    -0.66169 ( 99.53%)    -0.65965 (  0.47%)    -0.66168
       5    191.40    -0.66018 ( 99.54%)    -0.65883 (  0.46%)    -0.66017
       6    235.14    -0.54841 ( 99.80%)    -0.59787 (  0.20%)    -0.54851
       7    286.54    -0.44553 ( 99.91%)    -0.53932 (  0.09%)    -0.44562
   ------------------------------------------------------------------------

   temp. (K)  partition function   enthalpy   heat capacity  entropy
                                   cal/mol     cal/K/mol   cal/K/mol   J/K/mol
 298.15  VIB  0.313E+04             4291.640     25.778     27.034
         ROT  0.602E+06              888.752      2.981     29.428
         INT  0.188E+10             5180.393     28.759     56.462
         TR   0.209E+28             1481.254      4.968     41.228
         TOT                        6661.6465    33.7269    97.6903   408.7363

       T/K    H(0)-H(T)+PV         H(T)/Eh          T*S/Eh         G(T)/Eh
   ------------------------------------------------------------------------
    298.15    0.106160E-01    0.542958E-01    0.464158E-01    0.787996E-02
   ------------------------------------------------------------------------

         :::::::::::::::::::::::::::::::::::::::::::::::::::::
         ::                  THERMODYNAMIC                  ::
         :::::::::::::::::::::::::::::::::::::::::::::::::::::
         :: total free energy         -39.630221979699 Eh   ::
         ::.................................................::
         :: total energy              -39.638101940276 Eh   ::
         :: zero point energy           0.043679775612 Eh   ::
         :: G(RRHO) w/o ZPVE           -0.035799815035 Eh   ::
         :: G(RRHO) contrib.            0.007879960577 Eh   ::
         :::::::::::::::::::::::::::::::::::::::::::::::::::::
imag cut-off (cm-1) :    5.00
 found            1  significant imaginary frequency
 writing imag mode distorted coords to xtbhess.xyz
 for further optimization.

optimized geometry written to: xtbopt.xyz


           -------------------------------------------------
          | TOTAL ENERGY              -39.638101940276 Eh   |
          | TOTAL ENTHALPY            -39.583806155205 Eh   |
          | TOTAL FREE ENERGY         -39.630221979699 Eh   |
          | GRADIENT NORM               0.000767294884 Eh/α |
          | HOMO-LUMO GAP               9.004590356726 eV   |
           -------------------------------------------------

------------------------------------------------------------------------
 * finished run on 2025/10/18 at 07:33:46.649     
------------------------------------------------------------------------
 total:
 * wall-time:     0 d,  0 h,  0 min,  0.414 sec
 *  cpu-time:     0 d,  0 h,  0 min,  0.700 sec
 * ratio c/w:     1.692 speedup
 SCF:
 * wall-time:     0 d,  0 h,  0 min,  0.011 sec
 *  cpu-time:     0 d,  0 h,  0 min,  0.021 sec
 * ratio c/w:     1.855 speedup
 ANC optimizer:
 * wall-time:     0 d,  0 h,  0 min,  0.098 sec
 *  cpu-time:     0 d,  0 h,  0 min,  0.138 sec
 * ratio c/w:     1.412 speedup
 analytical hessian:
 * wall-time:     0 d,  0 h,  0 min,  0.264 sec
 *  cpu-time:     0 d,  0 h,  0 min,  0.492 sec
 * ratio c/w:     1.860 speedup

