11
 energy: -39.638101940275 gnorm: 0.000767317449 xtb: 6.7.1 (edcfbbe)
C           -3.79327126271286       -3.33470883668655        0.37352019580060
C           -5.27446935591673       -3.63648001286835        0.83924644555300
C           -5.55048469162317       -5.12660529115083        0.38575940403552
O           -5.49151634585728       -3.41484600491716        2.07498363642409
F           -2.85078437260591       -4.08580193295345        0.96516224027960
F           -3.58163861613887       -3.47928585817187       -0.96435685770805
F           -3.46426731987346       -2.05485850628346        0.63045541558632
F           -4.76783377766214       -6.04924184687282        0.96805157848571
F           -5.42426941759488       -5.34086860344845       -0.95356324909657
F           -6.81771249149893       -5.48341487979488        0.66628657726690
H           -5.88715954434648       -3.04100039059602        0.07692190284234
