11
 energy: -39.631053872970 gnorm: 0.083104908414 xtb: 6.7.1 (edcfbbe)
C           -3.76021684943202       -3.32497824757424        0.35694142497257
C           -5.25601985160694       -3.65507066297818        0.78356747444959
C           -5.55963611335423       -5.15998888080170        0.36964821218506
O           -5.45516776887801       -3.45055927601962        2.04129361694429
F           -2.88698647457853       -4.09147825365329        0.98531255447255
F           -3.59016537840483       -3.48169602674809       -0.95421236114473
F           -3.50330510495101       -2.05828363312899        0.64744460862051
F           -4.76325220005537       -6.01297454907643        0.98880589326793
F           -5.42096181725681       -5.33264374325173       -0.94323591260303
F           -6.81513848993469       -5.44390917512449        0.68237089377904
H           -5.89233895154754       -3.03581555164323        0.10426759505622
11
 energy: -39.636930063766 gnorm: 0.036655677455 xtb: 6.7.1 (edcfbbe)
C           -3.78332326614658       -3.33277013977271        0.36052477894472
C           -5.26957646223707       -3.64147570255896        0.82001704893434
C           -5.55229338901725       -5.13669409863594        0.37300844903551
O           -5.47441666157828       -3.43152967119140        2.07539365645320
F           -2.87190236899793       -4.08722097679632        0.97464286996381
F           -3.57507795597484       -3.48281597936172       -0.96293662090917
F           -3.48243221661767       -2.05858960847976        0.63073781161153
F           -4.76721106716456       -6.02814284469532        0.97824068251110
F           -5.41969432120345       -5.34772305120088       -0.95189327783542
F           -6.81456176397220       -5.46488954793868        0.66585164625462
H           -5.89269952709014       -3.03554637936829        0.09861695503577
11
 energy: -39.638047144203 gnorm: 0.006448069389 xtb: 6.7.1 (edcfbbe)
C           -3.79466453850487       -3.33230031154707        0.36989559622453
C           -5.27429928293142       -3.63671780750294        0.83495595344292
C           -5.55291352924038       -5.12531840145635        0.38227384831984
O           -5.48088972434536       -3.42519943513128        2.07932043774316
F           -2.85389505136294       -4.07995605676466        0.96868633829947
F           -3.57312375612401       -3.48019070695352       -0.96322268178156
F           -3.46446194778566       -2.05150302026728        0.62335569997169
F           -4.77404803056622       -6.04626560257560        0.97231113641741
F           -5.42243914097430       -5.34964876014586       -0.95220343736878
F           -6.82133071851071       -5.48315165726689        0.65875549623183
H           -5.89112327965410       -3.03714624038853        0.08807561249948
11
 energy: -39.638083241151 gnorm: 0.003320944996 xtb: 6.7.1 (edcfbbe)
C           -3.79513939243777       -3.33416655801481        0.37096062129335
C           -5.27420052619358       -3.63678637577540        0.83783419022633
C           -5.55105275872963       -5.12479779039601        0.38328981043484
O           -5.48394437672718       -3.42221850884841        2.07871473034309
F           -2.85276932186218       -4.08185576485168        0.96799770554542
F           -3.57734855253715       -3.48212798886206       -0.96418943900728
F           -3.46625384572596       -2.05290037722777        0.62426221656785
F           -4.77205219434398       -6.04735021765103        0.97147378346424
F           -5.42074663291366       -5.34532427735498       -0.95325681463324
F           -6.81992232387944       -5.48138423702358        0.65972933132833
H           -5.88975907464945       -3.03848590399427        0.08538786443706
11
 energy: -39.638098149780 gnorm: 0.000950279600 xtb: 6.7.1 (edcfbbe)
C           -3.79395316408172       -3.33438641629333        0.37249208736115
C           -5.27349024072458       -3.63745958493833        0.83953891528367
C           -5.55080731456213       -5.12596247253775        0.38477603342996
O           -5.48770816891938       -3.41856399270200        2.07672881086630
F           -2.85075943124398       -4.08307424952937        0.96673861886350
F           -3.58060090550657       -3.48128343539814       -0.96461928981545
F           -3.46641885961885       -2.05332126909735        0.62703456430007
F           -4.77067425037261       -6.04933638698078        0.96995119060180
F           -5.42193144372329       -5.34197602240697       -0.95377171879597
F           -6.81940531918504       -5.48127510328659        0.66266069534704
H           -5.88743990206182       -3.04075906682938        0.08067409255793
11
 energy: -39.638101940232 gnorm: 0.000767599131 xtb: 6.7.1 (edcfbbe)
C           -3.79325510597456       -3.33472935005026        0.37350113464457
C           -5.27445324477022       -3.63650909459917        0.83922168733862
C           -5.55045919522508       -5.12663502658599        0.38573108161480
O           -5.49150570871596       -3.41487837987368        2.07495850738166
F           -2.85076634839235       -4.08581854407181        0.96514515813653
F           -3.58161703232933       -3.47930292839276       -0.96437543244652
F           -3.46425876129544       -2.05487774544461        0.63043973660858
F           -4.76780548294897       -6.04926850063966        0.96802437774706
F           -5.42423812420120       -5.34089534046048       -0.95359150488763
F           -6.81768610604968       -5.48345174001841        0.66625320862927
H           -5.88714389009719       -3.04103134986317        0.07689604523307
