 Entering Gaussian System
 *********************************************
 Gaussian 98:
 frequency output generated by the xtb code
 *********************************************
                         Standard orientation:
 --------------------------------------------------------------------
  Center     Atomic     Atomic              Coordinates (Angstroms)
  Number     Number      Type              X           Y           Z
 --------------------------------------------------------------------
    1          6             0       -5.313407   -3.620524    0.506865
    2          6             0       -6.509412   -4.133869    1.291103
    3          1             0       -2.064209   -1.576796    2.213694
    4          1             0       -1.589442   -0.754488    0.724369
    5          1             0       -3.040643   -0.246185    1.593699
    6          6             0       -7.362642   -5.223788    0.496850
    7          1             0       -6.185332   -4.596905    2.228335
    8          1             0       -7.186209   -3.312230    1.545195
    9          8             0       -6.969858   -5.512648   -0.639714
   10          8             0       -8.337661   -5.660137    1.123916
   11          6             0       -4.481707   -2.608622    1.294402
   12          6             0       -3.278954   -2.097676    0.503957
   13          1             0       -5.114101   -1.760525    1.574293
   14          1             0       -4.130412   -3.074249    2.220250
   15          6             0       -2.440276   -1.107697    1.305987
   16          1             0       -2.656164   -2.946596    0.211203
   17          1             0       -3.629735   -1.617149   -0.412794
   18          1             0       -4.689596   -4.471490    0.223875
   19          1             0       -5.669540   -3.165373   -0.420183
 --------------------------------------------------------------------
     1 basis functions        1 primitive gaussians
     1 alpha electrons        1 beta electrons
 
 Harmonic frequencies (cm**-1), IR intensities (km*mol⁻¹),
 Raman scattering activities (A**4/amu), Raman depolarization ratios,
 reduced masses (AMU), force constants (mDyne/A) and normal coordinates:
                      1                      2                      3
                        a                      a                      a 
 Frequencies --   -24.9322                48.4232                93.1227
 Red. masses --     9.9475                10.6862                11.6133
 Frc consts  --     0.0000                 0.0000                 0.0000
 IR Inten    --     0.0251                 4.6651                 3.0027
 Raman Activ --     0.0000                 0.0000                 0.0000
 Depolar     --     0.0000                 0.0000                 0.0000
 Atom AN      X      Y      Z        X      Y      Z        X      Y      Z
   1   6     0.18  -0.23   0.11    -0.22   0.28  -0.14     0.16  -0.08  -0.32
   2   6    -0.06   0.08  -0.05    -0.23   0.30  -0.16     0.14   0.01  -0.27
   3   1    -0.09   0.13   0.07     0.03  -0.16   0.02    -0.06  -0.03   0.09
   4   1     0.02  -0.03   0.02     0.09  -0.13   0.06    -0.02   0.10   0.17
   5   1    -0.05   0.06  -0.15     0.13  -0.06   0.08    -0.08  -0.02   0.15
   6   6    -0.03   0.04  -0.02     0.05  -0.05   0.03    -0.06  -0.03   0.02
   7   1    -0.10   0.08   0.04    -0.08   0.17  -0.00     0.05   0.03  -0.07
   8   1    -0.01   0.07  -0.12    -0.11   0.07  -0.13     0.06   0.03  -0.09
   9   8    -0.31   0.37  -0.20     0.05  -0.06   0.03    -0.35  -0.28  -0.01
  10   8     0.23  -0.29   0.16     0.28  -0.34   0.18     0.03   0.19   0.33
  11   6    -0.07   0.09  -0.05    -0.14   0.18  -0.09     0.08  -0.09  -0.20
  12   6     0.15  -0.19   0.09    -0.01   0.01  -0.00     0.11   0.17   0.02
  13   1    -0.05   0.06  -0.16    -0.01   0.08  -0.04    -0.01  -0.05  -0.04
  14   1    -0.09   0.13   0.07    -0.08   0.04  -0.02     0.01  -0.05  -0.07
  15   6    -0.08   0.11  -0.04     0.23  -0.32   0.15    -0.12   0.09   0.38
  16   1     0.07  -0.09   0.17    -0.06  -0.03  -0.03     0.07   0.09  -0.02
  17   1     0.12  -0.16  -0.05     0.04   0.06   0.02     0.05   0.10   0.02
  18   1     0.08  -0.10   0.19    -0.08   0.07  -0.05     0.05  -0.03  -0.08
  19   1     0.13  -0.18  -0.05    -0.05   0.10  -0.04     0.06  -0.02  -0.09
                      4                      5                      6
                        a                      a                      a 
 Frequencies --   102.2162               117.7010               211.4652
 Red. masses --     5.7945                 7.8663                11.1862
 Frc consts  --     0.0000                 0.0000                 0.0000
 IR Inten    --     0.2060                 0.6398                 2.6040
 Raman Activ --     0.0000                 0.0000                 0.0000
 Depolar     --     0.0000                 0.0000                 0.0000
 Atom AN      X      Y      Z        X      Y      Z        X      Y      Z
   1   6     0.21  -0.29   0.19    -0.13   0.17  -0.08     0.10   0.15   0.13
   2   6    -0.19   0.23  -0.09    -0.20   0.25  -0.13    -0.01  -0.10  -0.19
   3   1     0.17  -0.13  -0.14    -0.02   0.16   0.01     0.14   0.10  -0.05
   4   1    -0.09   0.11  -0.08    -0.07   0.09  -0.05     0.08  -0.06  -0.15
   5   1     0.02  -0.08   0.21    -0.12   0.04  -0.11     0.18   0.11  -0.08
   6   6    -0.02   0.04  -0.02    -0.02   0.03  -0.02    -0.10  -0.15  -0.15
   7   1    -0.20   0.17   0.07    -0.08   0.12  -0.01    -0.03  -0.05  -0.05
   8   1    -0.05   0.13  -0.22    -0.08   0.07  -0.09    -0.03  -0.05  -0.05
   9   8     0.05   0.01   0.01     0.02  -0.02   0.01    -0.34  -0.37  -0.19
  10   8     0.01  -0.04  -0.03     0.08  -0.10   0.05    -0.04  -0.01   0.05
  11   6     0.11  -0.15   0.11     0.29  -0.39   0.19     0.00   0.16   0.33
  12   6    -0.20   0.23  -0.12     0.14  -0.20   0.09    -0.02   0.11   0.23
  13   1    -0.01  -0.10   0.09     0.15  -0.12   0.22    -0.01   0.04   0.09
  14   1     0.12  -0.04   0.00     0.13  -0.25  -0.04    -0.00   0.04   0.09
  15   6     0.05  -0.05  -0.04    -0.16   0.23  -0.11     0.34   0.16  -0.19
  16   1    -0.08   0.11  -0.20     0.11  -0.02   0.07    -0.04   0.01   0.06
  17   1    -0.17   0.17   0.06    -0.01  -0.13   0.01    -0.04   0.01   0.06
  18   1     0.05  -0.15   0.21    -0.13   0.02  -0.14     0.07   0.08   0.03
  19   1     0.18  -0.16  -0.03    -0.03   0.19   0.04     0.07   0.08   0.04
                      7                      8                      9
                        a                      a                      a 
 Frequencies --   231.2209               310.5210               399.3494
 Red. masses --     2.1596                11.6391                 9.7380
 Frc consts  --     0.0000                 0.0000                 0.0000
 IR Inten    --     0.0086                 0.3455                 0.2500
 Raman Activ --     0.0000                 0.0000                 0.0000
 Depolar     --     0.0000                 0.0000                 0.0000
 Atom AN      X      Y      Z        X      Y      Z        X      Y      Z
   1   6     0.05  -0.08   0.02     0.09   0.01  -0.11     0.05   0.22   0.38
   2   6    -0.01   0.02   0.00     0.17   0.03  -0.17    -0.03   0.01   0.05
   3   1    -0.44   0.07   0.24    -0.02  -0.04  -0.04    -0.18  -0.12   0.02
   4   1     0.30  -0.42   0.20    -0.08  -0.10  -0.09    -0.03   0.05   0.16
   5   1     0.18   0.24  -0.38    -0.03  -0.04  -0.04    -0.18  -0.12   0.02
   6   6     0.00   0.01   0.01     0.21   0.14  -0.05     0.06  -0.03  -0.14
   7   1    -0.02   0.02   0.01     0.05   0.01  -0.05    -0.06  -0.04   0.02
   8   1     0.00   0.02  -0.03     0.05   0.01  -0.04    -0.06  -0.04   0.01
   9   8     0.02   0.02   0.01     0.08   0.02  -0.09    -0.14  -0.21  -0.18
  10   8     0.00   0.00  -0.00     0.32   0.36   0.20     0.13   0.11   0.02
  11   6     0.08  -0.11   0.04    -0.26  -0.08   0.23     0.24   0.22   0.10
  12   6    -0.15   0.20  -0.10    -0.37  -0.21   0.14     0.07  -0.11  -0.35
  13   1     0.01  -0.08   0.11    -0.10  -0.04   0.06     0.14   0.11   0.03
  14   1     0.10  -0.08  -0.04    -0.10  -0.04   0.06     0.14   0.11   0.03
  15   6     0.01  -0.04   0.02    -0.20  -0.21  -0.13    -0.31  -0.21   0.04
  16   1    -0.06   0.08  -0.13    -0.14  -0.09   0.04     0.01  -0.04  -0.09
  17   1    -0.09   0.13   0.03    -0.14  -0.09   0.04     0.01  -0.03  -0.09
  18   1     0.00  -0.03   0.01     0.06   0.03  -0.03     0.03   0.07   0.10
  19   1     0.03  -0.02   0.00     0.05   0.03  -0.03     0.03   0.07   0.10
                     10                     11                     12
                        a                      a                      a 
 Frequencies --   516.7731               578.3903               652.8126
 Red. masses --    11.4992                 7.9801                13.0630
 Frc consts  --     0.0000                 0.0000                 0.0000
 IR Inten    --     2.7007                17.1325                25.4080
 Raman Activ --     0.0000                 0.0000                 0.0000
 Depolar     --     0.0000                 0.0000                 0.0000
 Atom AN      X      Y      Z        X      Y      Z        X      Y      Z
   1   6     0.37   0.20  -0.16    -0.03   0.04  -0.02    -0.02  -0.02  -0.02
   2   6     0.27   0.12  -0.18     0.09  -0.13   0.06     0.19   0.35   0.38
   3   1    -0.07  -0.05  -0.01     0.00  -0.00  -0.00     0.02   0.01  -0.00
   4   1    -0.03  -0.01   0.02    -0.00   0.00  -0.00    -0.02  -0.03  -0.04
   5   1    -0.06  -0.05  -0.01     0.00  -0.00   0.00     0.02   0.02  -0.00
   6   6    -0.17  -0.04   0.18     0.37  -0.47   0.25     0.23   0.20   0.07
   7   1     0.14   0.09  -0.04    -0.07   0.36   0.24     0.08   0.12   0.11
   8   1     0.14   0.09  -0.04    -0.17  -0.07  -0.40     0.08   0.12   0.10
   9   8    -0.03   0.11   0.25    -0.14   0.19  -0.10    -0.42  -0.32   0.01
  10   8    -0.32  -0.35  -0.18    -0.15   0.20  -0.09     0.17  -0.08  -0.42
  11   6     0.06   0.14   0.19    -0.01   0.01  -0.01    -0.05  -0.07  -0.07
  12   6    -0.09  -0.08  -0.03     0.00  -0.00   0.00    -0.06  -0.01   0.08
  13   1     0.02   0.04   0.05     0.00   0.00   0.02    -0.04  -0.04  -0.02
  14   1     0.02   0.03   0.05     0.00  -0.01  -0.01    -0.04  -0.04  -0.02
  15   6    -0.15  -0.13  -0.05     0.00  -0.00   0.00    -0.01  -0.00  -0.00
  16   1    -0.05  -0.04  -0.00    -0.00  -0.01   0.01    -0.01  -0.00   0.02
  17   1    -0.05  -0.04  -0.01     0.01  -0.01  -0.01    -0.01  -0.00   0.02
  18   1     0.16   0.10  -0.05     0.01   0.06  -0.10    -0.05  -0.04   0.00
  19   1     0.16   0.10  -0.04    -0.09   0.05   0.05    -0.05  -0.04  -0.00
                     13                     14                     15
                        a                      a                      a 
 Frequencies --   761.9556               793.3021               831.7664
 Red. masses --     2.0533                 3.2432                12.0753
 Frc consts  --     0.0000                 0.0000                 0.0000
 IR Inten    --    16.3517                 2.7665               174.3734
 Raman Activ --     0.0000                 0.0000                 0.0000
 Depolar     --     0.0000                 0.0000                 0.0000
 Atom AN      X      Y      Z        X      Y      Z        X      Y      Z
   1   6    -0.09   0.12  -0.06    -0.10   0.14  -0.07     0.07   0.03  -0.02
   2   6    -0.03   0.04  -0.02    -0.08   0.11  -0.05     0.21   0.35   0.36
   3   1    -0.01  -0.09  -0.04     0.05   0.22   0.10     0.02   0.00  -0.01
   4   1     0.01  -0.02   0.01    -0.05   0.07  -0.03    -0.03  -0.05  -0.05
   5   1     0.06   0.02   0.08    -0.17  -0.07  -0.18     0.02   0.02  -0.00
   6   6     0.09  -0.12   0.06     0.16  -0.21   0.10    -0.29  -0.39  -0.30
   7   1     0.14  -0.04  -0.08     0.19  -0.06  -0.13     0.10   0.13   0.10
   8   1    -0.05  -0.07   0.13    -0.07  -0.09   0.21     0.11   0.14   0.09
   9   8    -0.02   0.03  -0.02    -0.04   0.06  -0.04     0.21  -0.01  -0.34
  10   8    -0.03   0.03  -0.01    -0.05   0.06  -0.02    -0.16   0.02   0.28
  11   6    -0.09   0.12  -0.06     0.03  -0.04   0.02     0.02  -0.03  -0.08
  12   6    -0.05   0.07  -0.03     0.12  -0.16   0.08    -0.06  -0.00   0.08
  13   1     0.07  -0.04   0.42     0.10   0.10  -0.10    -0.02  -0.02  -0.03
  14   1     0.18  -0.29  -0.25    -0.16  -0.02   0.06    -0.02  -0.02  -0.02
  15   6    -0.00   0.01  -0.00     0.03  -0.04   0.02    -0.04  -0.03  -0.00
  16   1    -0.01  -0.08   0.28    -0.05   0.05  -0.39    -0.01   0.00   0.03
  17   1     0.18  -0.15  -0.17    -0.17   0.26   0.25    -0.01  -0.00   0.02
  18   1     0.08  -0.03   0.38    -0.03  -0.07   0.29    -0.02  -0.02  -0.01
  19   1     0.15  -0.28  -0.23     0.19  -0.14  -0.18    -0.02  -0.01   0.00
                     16                     17                     18
                        a                      a                      a 
 Frequencies --   863.8341               938.9892               959.6232
 Red. masses --     4.3286                 5.8809                 3.5609
 Frc consts  --     0.0000                 0.0000                 0.0000
 IR Inten    --    20.6177                14.2863                 4.6786
 Raman Activ --     0.0000                 0.0000                 0.0000
 Depolar     --     0.0000                 0.0000                 0.0000
 Atom AN      X      Y      Z        X      Y      Z        X      Y      Z
   1   6    -0.01   0.02  -0.01     0.07   0.12   0.11    -0.12   0.17  -0.09
   2   6     0.16  -0.20   0.11    -0.04  -0.07  -0.06     0.14  -0.18   0.09
   3   1     0.09   0.25   0.12     0.19   0.10  -0.02    -0.10  -0.25  -0.12
   4   1    -0.07   0.09  -0.05    -0.24  -0.37  -0.40     0.07  -0.08   0.05
   5   1    -0.19  -0.10  -0.19     0.18   0.15  -0.02     0.19   0.11   0.19
   6   6    -0.20   0.25  -0.14     0.02   0.03   0.03    -0.14   0.18  -0.10
   7   1    -0.16   0.12   0.18    -0.05  -0.05  -0.02     0.02   0.16   0.13
   8   1     0.04   0.04  -0.26    -0.06  -0.05  -0.02    -0.08  -0.08  -0.17
   9   8     0.05  -0.07   0.03    -0.01   0.01   0.04     0.03  -0.04   0.02
  10   8     0.05  -0.06   0.04     0.00  -0.01  -0.01     0.03  -0.04   0.02
  11   6    -0.13   0.17  -0.09     0.26   0.03  -0.33     0.06  -0.09   0.05
  12   6     0.07  -0.10   0.05    -0.11   0.03   0.25     0.05  -0.07   0.03
  13   1     0.08   0.03   0.26     0.13   0.05  -0.09     0.22   0.17  -0.11
  14   1     0.05  -0.21  -0.18     0.11   0.05  -0.08    -0.28  -0.11   0.08
  15   6     0.06  -0.08   0.04    -0.32  -0.18   0.09    -0.08   0.13  -0.06
  16   1    -0.15  -0.08  -0.17     0.10   0.10   0.06     0.25   0.18  -0.08
  17   1     0.06   0.20   0.11     0.08   0.09   0.07    -0.29  -0.14   0.06
  18   1     0.19   0.13   0.02     0.01   0.02   0.03     0.11   0.07   0.20
  19   1    -0.18  -0.15  -0.01     0.02   0.01   0.02    -0.01  -0.19  -0.14
                     19                     20                     21
                        a                      a                      a 
 Frequencies --  1045.0129              1055.7605              1090.5949
 Red. masses --     3.0140                10.2375                 7.7832
 Frc consts  --     0.0000                 0.0000                 0.0000
 IR Inten    --    10.3651                 0.2546                 4.6287
 Raman Activ --     0.0000                 0.0000                 0.0000
 Depolar     --     0.0000                 0.0000                 0.0000
 Atom AN      X      Y      Z        X      Y      Z        X      Y      Z
   1   6     0.05  -0.07   0.07    -0.00  -0.21  -0.40     0.40   0.34   0.09
   2   6    -0.10   0.15  -0.09    -0.21  -0.05   0.18    -0.16  -0.03   0.17
   3   1    -0.03  -0.07  -0.04    -0.13  -0.13  -0.06    -0.12  -0.10  -0.04
   4   1     0.02  -0.03   0.01    -0.01   0.01   0.03     0.05   0.08   0.09
   5   1     0.07   0.05   0.07    -0.13  -0.12  -0.06    -0.11  -0.11  -0.04
   6   6     0.17  -0.22   0.11     0.03   0.00   0.00     0.02   0.01  -0.00
   7   1    -0.33  -0.31  -0.09    -0.07  -0.04   0.04    -0.19  -0.13   0.03
   8   1     0.35   0.32   0.09    -0.04   0.00   0.05    -0.18  -0.12   0.04
   9   8    -0.03   0.04  -0.02    -0.00  -0.02  -0.03    -0.01   0.00   0.01
  10   8    -0.03   0.04  -0.02     0.03   0.03   0.00    -0.01  -0.00   0.01
  11   6    -0.08   0.07  -0.05     0.27   0.31   0.20    -0.18  -0.25  -0.24
  12   6     0.05  -0.09   0.02     0.17   0.26   0.30     0.12   0.16   0.16
  13   1     0.17   0.13   0.08     0.04   0.05   0.06    -0.19  -0.18  -0.07
  14   1    -0.14  -0.18  -0.07     0.01   0.04   0.05    -0.19  -0.18  -0.07
  15   6    -0.03   0.06  -0.01    -0.15  -0.24  -0.27     0.00  -0.10  -0.21
  16   1     0.10   0.07  -0.09    -0.00   0.03   0.08     0.04   0.05   0.03
  17   1    -0.13  -0.03   0.06    -0.02   0.03   0.09     0.04   0.04   0.04
  18   1     0.24   0.18  -0.10    -0.04  -0.08  -0.11     0.13   0.11   0.02
  19   1    -0.28  -0.12   0.08    -0.07  -0.11  -0.10     0.13   0.11   0.02
                     22                     23                     24
                        a                      a                      a 
 Frequencies --  1103.1337              1128.0453              1205.9350
 Red. masses --     8.7403                 8.2395                 5.8650
 Frc consts  --     0.0000                 0.0000                 0.0000
 IR Inten    --     0.1471                 3.6349                 0.1348
 Raman Activ --     0.0000                 0.0000                 0.0000
 Depolar     --     0.0000                 0.0000                 0.0000
 Atom AN      X      Y      Z        X      Y      Z        X      Y      Z
   1   6     0.26   0.07  -0.26    -0.17   0.02   0.29     0.16  -0.21   0.11
   2   6    -0.24  -0.07   0.23     0.26   0.06  -0.26    -0.05   0.06  -0.03
   3   1     0.03   0.06   0.06    -0.16  -0.10  -0.02    -0.09  -0.21  -0.13
   4   1     0.05   0.08   0.08     0.11   0.16   0.18     0.06  -0.08   0.04
   5   1     0.04   0.05   0.06    -0.14  -0.13  -0.01     0.15   0.11   0.17
   6   6     0.02   0.02   0.00    -0.03  -0.01   0.01    -0.02   0.03  -0.01
   7   1    -0.15  -0.09   0.05     0.04  -0.02  -0.07     0.20   0.10  -0.04
   8   1    -0.14  -0.08   0.05     0.03  -0.01  -0.08    -0.17  -0.14   0.06
   9   8    -0.00  -0.01  -0.02    -0.00   0.03   0.05     0.00  -0.00   0.00
  10   8     0.01   0.02   0.01    -0.02  -0.02  -0.01     0.00  -0.00   0.00
  11   6     0.26   0.13  -0.15     0.25   0.02  -0.33    -0.20   0.27  -0.13
  12   6    -0.38  -0.29  -0.01    -0.19   0.05   0.38     0.21  -0.29   0.14
  13   1     0.08   0.04  -0.05     0.04  -0.01  -0.08    -0.02  -0.00   0.22
  14   1     0.08   0.03  -0.05     0.03  -0.01  -0.08     0.11  -0.10  -0.17
  15   6     0.18   0.21   0.18     0.11  -0.01  -0.19    -0.14   0.20  -0.10
  16   1    -0.23  -0.17  -0.00    -0.18  -0.08   0.10    -0.03  -0.03  -0.23
  17   1    -0.24  -0.17  -0.00    -0.17  -0.08   0.10    -0.05   0.14   0.18
  18   1     0.04   0.00  -0.08    -0.17  -0.09   0.07    -0.12  -0.10  -0.16
  19   1     0.04  -0.01  -0.07    -0.16  -0.09   0.07     0.07   0.18   0.13
                     25                     26                     27
                        a                      a                      a 
 Frequencies --  1217.4850              1250.7544              1274.4350
 Red. masses --     4.1178                 3.5575                 1.7730
 Frc consts  --     0.0000                 0.0000                 0.0000
 IR Inten    --     7.6175                 3.0904                 5.1532
 Raman Activ --     0.0000                 0.0000                 0.0000
 Depolar     --     0.0000                 0.0000                 0.0000
 Atom AN      X      Y      Z        X      Y      Z        X      Y      Z
   1   6    -0.10  -0.04   0.05     0.17  -0.22   0.11    -0.03   0.05  -0.02
   2   6    -0.34  -0.25   0.03    -0.10   0.14  -0.07    -0.09   0.11  -0.06
   3   1    -0.06  -0.03  -0.00     0.07   0.17   0.11    -0.01  -0.05  -0.03
   4   1     0.04   0.07   0.07    -0.05   0.07  -0.03     0.02  -0.03   0.01
   5   1    -0.06  -0.05  -0.00    -0.12  -0.09  -0.15     0.03   0.02   0.04
   6   6     0.03   0.03   0.01    -0.02   0.03  -0.02    -0.01   0.01  -0.01
   7   1     0.31   0.33   0.08     0.29   0.13  -0.07     0.18   0.08  -0.06
   8   1     0.34   0.27   0.10    -0.26  -0.20   0.10    -0.14  -0.10   0.08
   9   8     0.00  -0.03  -0.06     0.00  -0.00   0.00     0.00  -0.00   0.00
  10   8     0.05   0.03  -0.00     0.00  -0.00   0.00     0.00  -0.00   0.00
  11   6    -0.03  -0.10  -0.16    -0.07   0.09  -0.04     0.08  -0.09   0.05
  12   6    -0.10   0.01   0.15    -0.10   0.14  -0.06     0.08  -0.10   0.05
  13   1     0.16   0.10  -0.03     0.15   0.12   0.07    -0.33  -0.27  -0.06
  14   1     0.15   0.11  -0.03    -0.13  -0.14  -0.05     0.30   0.26   0.06
  15   6     0.06  -0.00  -0.09     0.13  -0.18   0.08    -0.04   0.05  -0.02
  16   1     0.02   0.03   0.03     0.28   0.22   0.10     0.00  -0.01  -0.07
  17   1     0.02   0.02   0.03    -0.25  -0.26  -0.08    -0.03   0.03   0.06
  18   1     0.26   0.20   0.00     0.12   0.07  -0.17     0.39   0.30   0.02
  19   1     0.26   0.20   0.00    -0.16   0.00   0.13    -0.39  -0.31  -0.02
                     28                     29                     30
                        a                      a                      a 
 Frequencies --  1280.8370              1285.5389              1310.1455
 Red. masses --     4.2581                 2.2468                12.6387
 Frc consts  --     0.0000                 0.0000                 0.0000
 IR Inten    --    31.2712                 0.0267               332.2126
 Raman Activ --     0.0000                 0.0000                 0.0000
 Depolar     --     0.0000                 0.0000                 0.0000
 Atom AN      X      Y      Z        X      Y      Z        X      Y      Z
   1   6     0.12   0.14   0.11     0.09  -0.10   0.06    -0.11  -0.08   0.01
   2   6    -0.19  -0.20  -0.09    -0.07   0.08  -0.05    -0.01   0.00   0.03
   3   1     0.06   0.02   0.00    -0.03  -0.07  -0.05     0.02  -0.00  -0.00
   4   1    -0.07  -0.09  -0.10     0.01  -0.02   0.00    -0.03  -0.04  -0.05
   5   1     0.03   0.04  -0.03     0.05   0.05   0.06     0.01   0.02  -0.01
   6   6     0.06   0.08   0.06    -0.01   0.02  -0.00    -0.30  -0.38  -0.26
   7   1     0.18   0.23   0.06     0.18   0.09  -0.04     0.02  -0.01  -0.01
   8   1     0.24   0.17   0.09    -0.13  -0.10   0.07     0.00   0.01  -0.02
   9   8     0.03  -0.04  -0.11     0.00  -0.00  -0.00    -0.14   0.14   0.46
  10   8    -0.05  -0.02   0.04    -0.00  -0.00   0.00     0.41   0.20  -0.23
  11   6     0.17   0.14  -0.01     0.13  -0.16   0.08     0.09   0.06  -0.02
  12   6     0.20   0.09  -0.11    -0.06   0.10  -0.05     0.09   0.05  -0.03
  13   1    -0.30  -0.22  -0.00     0.28   0.19  -0.11    -0.10  -0.08  -0.00
  14   1    -0.29  -0.23  -0.01    -0.34  -0.17   0.09    -0.11  -0.08  -0.01
  15   6    -0.06  -0.00   0.12    -0.07   0.09  -0.04    -0.03   0.00   0.05
  16   1    -0.18  -0.15  -0.01    -0.39  -0.27   0.06    -0.11  -0.08  -0.00
  17   1    -0.23  -0.17  -0.02     0.39   0.24  -0.06    -0.11  -0.08  -0.01
  18   1    -0.19  -0.12   0.02     0.15   0.09  -0.07     0.12   0.09  -0.01
  19   1    -0.14  -0.11   0.02    -0.17  -0.08   0.07     0.13   0.09  -0.01
                     31                     32                     33
                        a                      a                      a 
 Frequencies --  1337.9142              1365.7063              1409.1470
 Red. masses --     5.8865                 5.4151                 3.1478
 Frc consts  --     0.0000                 0.0000                 0.0000
 IR Inten    --    48.6359                 3.6471                 0.0734
 Raman Activ --     0.0000                 0.0000                 0.0000
 Depolar     --     0.0000                 0.0000                 0.0000
 Atom AN      X      Y      Z        X      Y      Z        X      Y      Z
   1   6     0.30   0.21  -0.02    -0.20  -0.13   0.04     0.02   0.01  -0.01
   2   6    -0.14  -0.14  -0.06     0.03   0.03   0.01    -0.00  -0.00  -0.00
   3   1    -0.02   0.04   0.02    -0.03   0.03   0.02    -0.25  -0.44  -0.11
   4   1     0.06   0.09   0.10     0.04   0.05   0.06    -0.14  -0.28  -0.40
   5   1     0.02  -0.01   0.04     0.00  -0.02   0.04    -0.42  -0.21  -0.22
   6   6    -0.13  -0.15  -0.09     0.05   0.05   0.03    -0.00  -0.00  -0.00
   7   1     0.07   0.15   0.05     0.00  -0.03  -0.01    -0.00   0.01   0.00
   8   1     0.12   0.07   0.09    -0.01  -0.00  -0.03     0.00   0.00   0.01
   9   8    -0.05   0.05   0.17     0.02  -0.02  -0.06    -0.00   0.00   0.00
  10   8     0.18   0.09  -0.10    -0.06  -0.03   0.03     0.00   0.00  -0.00
  11   6    -0.05   0.00   0.08     0.33   0.26   0.03    -0.01   0.00   0.02
  12   6    -0.24  -0.17   0.01    -0.29  -0.22  -0.03    -0.06  -0.04   0.01
  13   1     0.03   0.04  -0.01    -0.31  -0.22  -0.04     0.01   0.01   0.01
  14   1     0.04   0.01   0.00    -0.29  -0.26  -0.02     0.00   0.01   0.01
  15   6     0.05  -0.01  -0.09     0.06   0.02  -0.05     0.25   0.28   0.21
  16   1     0.26   0.20  -0.00     0.27   0.19   0.00     0.05   0.05  -0.05
  17   1     0.26   0.19  -0.00     0.26   0.20  -0.00     0.08   0.01  -0.03
  18   1    -0.31  -0.22   0.01     0.15   0.12  -0.02    -0.02  -0.02   0.00
  19   1    -0.31  -0.23   0.01     0.16   0.10  -0.01    -0.02  -0.02   0.00
                     34                     35                     36
                        a                      a                      a 
 Frequencies --  1485.8976              1500.0362              1503.8929
 Red. masses --     2.0935                 1.8959                 1.8804
 Frc consts  --     0.0000                 0.0000                 0.0000
 IR Inten    --     1.9289                 0.3878                 0.7336
 Raman Activ --     0.0000                 0.0000                 0.0000
 Depolar     --     0.0000                 0.0000                 0.0000
 Atom AN      X      Y      Z        X      Y      Z        X      Y      Z
   1   6    -0.06  -0.06  -0.03    -0.02   0.05   0.12     0.01   0.00  -0.01
   2   6     0.16  -0.01  -0.25     0.00   0.01   0.00     0.01  -0.00  -0.02
   3   1     0.00  -0.00  -0.00     0.07  -0.09  -0.08     0.03  -0.01  -0.02
   4   1    -0.00  -0.00  -0.00     0.01   0.03   0.03     0.00   0.04   0.03
   5   1    -0.00   0.00  -0.00    -0.02   0.03  -0.13     0.03   0.03  -0.04
   6   6    -0.01  -0.01  -0.00    -0.00  -0.00   0.00    -0.00  -0.00   0.00
   7   1    -0.45   0.36   0.33    -0.00  -0.00   0.00    -0.05   0.04   0.04
   8   1    -0.00  -0.20   0.63    -0.00  -0.00   0.00    -0.00  -0.02   0.07
   9   8     0.00   0.00   0.01    -0.00  -0.00   0.00     0.00   0.00  -0.00
  10   8    -0.00  -0.00  -0.00     0.00   0.00  -0.00     0.00   0.00  -0.00
  11   6    -0.00   0.01   0.03    -0.00  -0.03  -0.07     0.08  -0.06  -0.25
  12   6     0.01   0.00  -0.01     0.03  -0.08  -0.22    -0.04  -0.00   0.07
  13   1    -0.00   0.02  -0.06     0.03  -0.03   0.16     0.07  -0.15   0.62
  14   1     0.04  -0.04  -0.03    -0.07   0.12   0.09    -0.35   0.41   0.34
  15   6    -0.00  -0.00   0.00    -0.00   0.01   0.04    -0.01  -0.01   0.01
  16   1    -0.00  -0.01   0.02     0.11  -0.11   0.54    -0.01   0.06  -0.20
  17   1    -0.02   0.01   0.01    -0.26   0.39   0.30     0.12  -0.12  -0.11
  18   1     0.05   0.03   0.01    -0.06   0.06  -0.30    -0.00  -0.00  -0.01
  19   1     0.04   0.04  -0.00     0.16  -0.22  -0.16     0.00  -0.01  -0.01
                     37                     38                     39
                        a                      a                      a 
 Frequencies --  1506.2459              1509.3587              1513.5054
 Red. masses --     1.9293                 1.5482                 1.6322
 Frc consts  --     0.0000                 0.0000                 0.0000
 IR Inten    --     0.0917                 0.6185                 0.3116
 Raman Activ --     0.0000                 0.0000                 0.0000
 Depolar     --     0.0000                 0.0000                 0.0000
 Atom AN      X      Y      Z        X      Y      Z        X      Y      Z
   1   6    -0.05   0.08   0.23    -0.00   0.00   0.00     0.00   0.00   0.00
   2   6     0.01   0.01   0.00    -0.00   0.00   0.00     0.00   0.00  -0.00
   3   1    -0.02   0.04   0.03    -0.43  -0.16   0.11    -0.42   0.33   0.34
   4   1    -0.00  -0.01  -0.00    -0.40   0.54  -0.25    -0.09  -0.18  -0.26
   5   1     0.01  -0.01   0.05     0.34   0.28  -0.17    -0.02  -0.22   0.59
   6   6    -0.01  -0.00   0.00     0.00  -0.00   0.00    -0.00  -0.00  -0.00
   7   1    -0.01   0.00   0.01     0.00  -0.00  -0.00    -0.01   0.00   0.00
   8   1    -0.00  -0.00   0.01     0.00   0.00  -0.00    -0.00  -0.00   0.01
   9   8    -0.00  -0.00  -0.00    -0.00   0.00  -0.00    -0.00   0.00   0.00
  10   8     0.00   0.00  -0.00    -0.00   0.00   0.00     0.00   0.00  -0.00
  11   6    -0.03   0.01   0.06    -0.00   0.00   0.01    -0.00  -0.02  -0.03
  12   6    -0.01   0.05   0.12     0.03  -0.03   0.02     0.05  -0.00  -0.08
  13   1    -0.00   0.03  -0.09    -0.02  -0.01  -0.02     0.01  -0.02   0.09
  14   1     0.06  -0.06  -0.05     0.03  -0.00  -0.01    -0.05   0.06   0.05
  15   6    -0.00  -0.00  -0.01     0.12  -0.16   0.08     0.13   0.02  -0.17
  16   1    -0.06   0.06  -0.28    -0.01  -0.01  -0.02     0.00  -0.04   0.10
  17   1     0.14  -0.21  -0.16     0.01   0.01   0.02    -0.07   0.06   0.05
  18   1    -0.11   0.12  -0.58     0.00   0.00  -0.00    -0.01   0.00  -0.02
  19   1     0.30  -0.42  -0.31     0.00  -0.01  -0.00     0.01  -0.02  -0.01
                     40                     41                     42
                        a                      a                      a 
 Frequencies --  1782.5724              2927.0719              2934.6536
 Red. masses --    13.1590                 1.9783                 1.9249
 Frc consts  --     0.0000                 0.0000                 0.0000
 IR Inten    --   671.6219                58.6008                39.7147
 Raman Activ --     0.0000                 0.0000                 0.0000
 Depolar     --     0.0000                 0.0000                 0.0000
 Atom AN      X      Y      Z        X      Y      Z        X      Y      Z
   1   6    -0.00  -0.00  -0.00    -0.02   0.02  -0.01    -0.03   0.04  -0.02
   2   6    -0.02  -0.01   0.02     0.16  -0.21   0.11     0.03  -0.03   0.02
   3   1     0.00   0.00   0.00     0.00  -0.00   0.00    -0.00  -0.00  -0.00
   4   1    -0.00   0.00   0.00    -0.00  -0.00   0.00     0.00   0.00  -0.00
   5   1     0.00   0.00   0.00     0.00  -0.00  -0.00     0.00   0.00   0.00
   6   6     0.51   0.05  -0.66     0.00  -0.01   0.00     0.00  -0.00   0.00
   7   1     0.02   0.03   0.01    -0.18   0.27  -0.57    -0.03   0.05  -0.10
   8   1     0.03   0.02   0.01    -0.41   0.48   0.17    -0.07   0.08   0.03
   9   8    -0.13   0.09   0.36    -0.00   0.00  -0.00    -0.00   0.00  -0.00
  10   8    -0.30  -0.13   0.20    -0.00   0.00  -0.00    -0.00   0.00  -0.00
  11   6    -0.00   0.00   0.00    -0.03   0.04  -0.02     0.15  -0.20   0.10
  12   6    -0.00  -0.00  -0.00     0.00  -0.00   0.00    -0.04   0.05  -0.02
  13   1     0.00   0.00   0.00     0.08  -0.10  -0.03    -0.37   0.49   0.18
  14   1     0.00   0.00   0.00     0.04  -0.06   0.11    -0.19   0.25  -0.53
  15   6    -0.00   0.00   0.00     0.00  -0.00   0.00    -0.00   0.00  -0.00
  16   1    -0.00  -0.00  -0.00    -0.01   0.01   0.01     0.09  -0.12  -0.05
  17   1    -0.00  -0.00  -0.00    -0.01   0.01  -0.02     0.05  -0.07   0.15
  18   1    -0.01  -0.01  -0.01     0.05  -0.06  -0.03     0.08  -0.12  -0.05
  19   1    -0.01  -0.01  -0.01     0.03  -0.04   0.08     0.05  -0.06   0.13
                     43                     44                     45
                        a                      a                      a 
 Frequencies --  2945.2050              2956.0335              2958.8284
 Red. masses --     1.4695                 1.4526                 1.9806
 Frc consts  --     0.0000                 0.0000                 0.0000
 IR Inten    --    34.8301                62.3579                15.2578
 Raman Activ --     0.0000                 0.0000                 0.0000
 Depolar     --     0.0000                 0.0000                 0.0000
 Atom AN      X      Y      Z        X      Y      Z        X      Y      Z
   1   6    -0.00   0.00   0.00    -0.00   0.00   0.01     0.07  -0.09   0.05
   2   6     0.06  -0.05  -0.18     0.02  -0.02  -0.06     0.01  -0.01   0.01
   3   1     0.00  -0.00   0.00    -0.01   0.01  -0.02    -0.03   0.04  -0.08
   4   1    -0.01  -0.00   0.00     0.02   0.01  -0.01     0.01  -0.00   0.00
   5   1    -0.00   0.00   0.00     0.02  -0.02  -0.01    -0.05   0.07   0.03
   6   6     0.00  -0.00  -0.01     0.00   0.00  -0.00     0.00  -0.00   0.00
   7   1     0.21  -0.31   0.53     0.07  -0.10   0.18    -0.01   0.01  -0.02
   8   1    -0.42   0.50   0.11    -0.14   0.16   0.04    -0.02   0.03   0.01
   9   8    -0.00  -0.00   0.00    -0.00  -0.00   0.00    -0.00   0.00  -0.00
  10   8    -0.00  -0.00   0.00    -0.00  -0.00   0.00    -0.00   0.00  -0.00
  11   6    -0.01   0.02   0.06     0.04  -0.05  -0.18    -0.03   0.03  -0.02
  12   6    -0.00  -0.00  -0.00    -0.00   0.00   0.02    -0.15   0.20  -0.10
  13   1     0.13  -0.16  -0.04    -0.38   0.50   0.13     0.05  -0.07  -0.02
  14   1    -0.08   0.11  -0.18     0.23  -0.31   0.53     0.03  -0.04   0.09
  15   6     0.00   0.00  -0.00    -0.01   0.00   0.01     0.02  -0.02   0.01
  16   1    -0.01   0.01   0.00     0.05  -0.06  -0.02     0.33  -0.45  -0.17
  17   1     0.01  -0.01   0.02    -0.03   0.04  -0.08     0.20  -0.26   0.53
  18   1     0.02  -0.02  -0.01     0.05  -0.06  -0.02    -0.15   0.21   0.08
  19   1    -0.00   0.01  -0.01    -0.03   0.04  -0.07    -0.09   0.11  -0.24
                     46                     47                     48
                        a                      a                      a 
 Frequencies --  2969.0936              2973.6113              2985.3037
 Red. masses --     2.0156                 1.4890                 1.5000
 Frc consts  --     0.0000                 0.0000                 0.0000
 IR Inten    --   174.2896                17.0044                82.4776
 Raman Activ --     0.0000                 0.0000                 0.0000
 Depolar     --     0.0000                 0.0000                 0.0000
 Atom AN      X      Y      Z        X      Y      Z        X      Y      Z
   1   6    -0.15   0.19  -0.10    -0.02   0.02   0.06    -0.04   0.06   0.18
   2   6    -0.03   0.04  -0.02    -0.00   0.00   0.00    -0.01   0.00   0.02
   3   1    -0.02   0.02  -0.05    -0.03   0.03  -0.05     0.02  -0.02   0.03
   4   1     0.00  -0.00   0.00     0.09   0.04  -0.06    -0.08  -0.03   0.05
   5   1    -0.03   0.04   0.02     0.03  -0.06  -0.01    -0.02   0.04   0.01
   6   6    -0.00   0.00  -0.00    -0.00   0.00   0.00    -0.00   0.00   0.01
   7   1     0.03  -0.04   0.09    -0.00   0.00  -0.00    -0.02   0.02  -0.04
   8   1     0.07  -0.08  -0.02     0.00  -0.00  -0.00     0.03  -0.03  -0.01
   9   8     0.00  -0.00   0.00     0.00   0.00  -0.00     0.00  -0.00  -0.00
  10   8     0.00  -0.00   0.00     0.00   0.00  -0.00     0.00   0.00  -0.00
  11   6    -0.05   0.07  -0.03     0.01  -0.00  -0.02    -0.01   0.01   0.03
  12   6    -0.06   0.08  -0.04     0.04  -0.06  -0.18    -0.01   0.02   0.05
  13   1     0.10  -0.14  -0.05    -0.03   0.04   0.01     0.05  -0.07  -0.02
  14   1     0.06  -0.08   0.16     0.02  -0.03   0.05    -0.03   0.04  -0.07
  15   6     0.01  -0.02   0.01    -0.03  -0.01   0.03     0.02   0.00  -0.03
  16   1     0.13  -0.18  -0.07    -0.38   0.52   0.14     0.12  -0.16  -0.04
  17   1     0.07  -0.10   0.20     0.22  -0.30   0.51    -0.07   0.09  -0.16
  18   1     0.33  -0.45  -0.16     0.13  -0.18  -0.05     0.38  -0.52  -0.14
  19   1     0.19  -0.24   0.52    -0.07   0.10  -0.17    -0.23   0.29  -0.52
                     49                     50                     51
                        a                      a                      a 
 Frequencies --  3006.0716              3016.1854              3023.3670
 Red. masses --     1.8281                 1.9561                 1.3432
 Frc consts  --     0.0000                 0.0000                 0.0000
 IR Inten    --    98.3581                83.1847                47.4760
 Raman Activ --     0.0000                 0.0000                 0.0000
 Depolar     --     0.0000                 0.0000                 0.0000
 Atom AN      X      Y      Z        X      Y      Z        X      Y      Z
   1   6     0.00  -0.00  -0.01    -0.00   0.01  -0.00     0.00  -0.00  -0.00
   2   6     0.00   0.00  -0.00    -0.00   0.00  -0.00     0.00  -0.00  -0.00
   3   1     0.08  -0.06   0.09     0.21  -0.28   0.56     0.24  -0.32   0.55
   4   1    -0.72  -0.29   0.51    -0.03   0.03  -0.01     0.17   0.06  -0.14
   5   1    -0.05   0.12   0.01     0.38  -0.52  -0.20    -0.38   0.52   0.15
   6   6    -0.00  -0.00  -0.00    -0.00   0.00  -0.00     0.00   0.00  -0.00
   7   1     0.00  -0.00   0.00     0.00  -0.00   0.00     0.00  -0.00   0.01
   8   1    -0.00   0.00   0.00     0.00  -0.00  -0.00    -0.00   0.01   0.00
   9   8    -0.00   0.00   0.00     0.00  -0.00   0.00    -0.00  -0.00   0.00
  10   8     0.00   0.00   0.00     0.00  -0.00   0.00    -0.00  -0.00   0.00
  11   6     0.00  -0.00  -0.01    -0.01   0.01  -0.00     0.00  -0.00  -0.01
  12   6     0.01  -0.01  -0.04    -0.03   0.04  -0.02     0.00  -0.01  -0.02
  13   1    -0.02   0.03   0.01     0.02  -0.02  -0.01    -0.02   0.02   0.01
  14   1     0.01  -0.02   0.03     0.01  -0.01   0.02     0.01  -0.02   0.03
  15   6     0.20   0.06  -0.17    -0.16   0.22  -0.10    -0.00  -0.07  -0.16
  16   1    -0.07   0.09   0.02     0.06  -0.07  -0.03    -0.03   0.04   0.01
  17   1     0.04  -0.05   0.09     0.03  -0.04   0.08     0.02  -0.02   0.04
  18   1    -0.02   0.03   0.01     0.01  -0.01  -0.00    -0.00   0.01   0.00
  19   1     0.02  -0.02   0.03     0.01  -0.01   0.01     0.00  -0.00   0.01
