      -----------------------------------------------------------      
     |                   =====================                   |     
     |                           x T B                           |     
     |                   =====================                   |     
     |                         S. Grimme                         |     
     |          Mulliken Center for Theoretical Chemistry        |     
     |                    University of Bonn                     |     
      -----------------------------------------------------------      

   * xtb version 6.7.1 (edcfbbe) compiled by 'albert@albert-system' on 2024-07-22

   xtb is free software: you can redistribute it and/or modify it under
   the terms of the GNU Lesser General Public License as published by
   the Free Software Foundation, either version 3 of the License, or
   (at your option) any later version.
   
   xtb is distributed in the hope that it will be useful,
   but WITHOUT ANY WARRANTY; without even the implied warranty of
   MERCHANTABILITY or FITNESS FOR A PARTICULAR PURPOSE.  See the
   GNU Lesser General Public License for more details.
   
   Cite this work as:
   * C. Bannwarth, E. Caldeweyher, S. Ehlert, A. Hansen, P. Pracht,
     J. Seibert, S. Spicher, S. Grimme, WIREs Comput. Mol. Sci., 2020, 11,
     e01493. DOI: 10.1002/wcms.1493
   
   for GFN2-xTB:
   * C. Bannwarth, S. Ehlert and S. Grimme., J. Chem. Theory Comput., 2019,
     15, 1652-1671. DOI: 10.1021/acs.jctc.8b01176
   for GFN1-xTB:
   * S. Grimme, C. Bannwarth, P. Shushkov, J. Chem. Theory Comput., 2017,
     13, 1989-2009. DOI: 10.1021/acs.jctc.7b00118
   for GFN0-xTB:
   * P. Pracht, E. Caldeweyher, S. Ehlert, S. Grimme, ChemRxiv, 2019, preprint.
     DOI: 10.26434/chemrxiv.8326202.v1
   for GFN-FF:
   * S. Spicher and S. Grimme, Angew. Chem. Int. Ed., 2020, 59, 15665-15673.
     DOI: 10.1002/anie.202004239
   
   for ALPB and GBSA implicit solvation:
   * S. Ehlert, M. Stahn, S. Spicher, S. Grimme, J. Chem. Theory Comput.,
     2021, 17, 4250-4261. DOI: 10.1021/acs.jctc.1c00471
   
   for ddCOSMO and CPCM-X implicit solvation:
   * M. Stahn, S. Ehlert, S. Grimme, J. Phys. Chem. A,
     2023, XX, XXXX-XXXX. DOI: 10.1021/acs.jpca.3c04382
   
   for DFT-D4:
   * E. Caldeweyher, C. Bannwarth and S. Grimme, J. Chem. Phys., 2017,
     147, 034112. DOI: 10.1063/1.4993215
   * E. Caldeweyher, S. Ehlert, A. Hansen, H. Neugebauer, S. Spicher,
     C. Bannwarth and S. Grimme, J. Chem. Phys., 2019, 150, 154122.
     DOI: 10.1063/1.5090222
   * E. Caldeweyher, J.-M. Mewes, S. Ehlert and S. Grimme, Phys. Chem. Chem. Phys.
     2020, 22, 8499-8512. DOI: 10.1039/D0CP00502A
   
   for sTDA-xTB:
   * S. Grimme and C. Bannwarth, J. Chem. Phys., 2016, 145, 054103.
     DOI: 10.1063/1.4959605
   
   in the mass-spec context:
   * V. Asgeirsson, C. Bauer and S. Grimme, Chem. Sci., 2017, 8, 4879.
     DOI: 10.1039/c7sc00601b
   * J. Koopman and S. Grimme, ACS Omega 2019, 4, 12, 15120-15133.
     DOI: 10.1021/acsomega.9b02011
   
   for metadynamics refer to:
   * S. Grimme, J. Chem. Theory Comput., 2019, 155, 2847-2862
     DOI: 10.1021/acs.jctc.9b00143
   
   for SPH calculations refer to:
   * S. Spicher and S. Grimme, J. Chem. Theory Comput., 2021, 17, 1701-1714
     DOI: 10.1021/acs.jctc.0c01306
   
   for ONIOM refer to:
   * C. Plett, A. Katbashev, S. Ehlert, S. Grimme, M. Bursch,
     Phys. Chem. Chem. Phys., 2023, 25, 17860-17868. DOI: 10.1039/D3CP02178E
   
   for DIPRO refer to:
   * J. Kohn, N. Gildemeister, S. Grimme, D. Fazzi, A. Hansen,
     J. Chem. Phys., 2023, just accepted.
   
   for PTB refer to:
   * S. Grimme, M. Mueller, A. Hansen, J. Chem. Phys., 2023, 158, 124111.
     DOI: 10.1063/5.0137838
   
   with help from (in alphabetical order)
   P. Atkinson, C. Bannwarth, F. Bohle, G. Brandenburg, E. Caldeweyher
   M. Checinski, S. Dohm, S. Ehlert, S. Ehrlich, I. Gerasimov, C. Hölzer
   A. Katbashev, J. Kohn, J. Koopman, C. Lavigne, S. Lehtola, F. März, M. Müller,
   F. Musil, H. Neugebauer, J. Pisarek, C. Plett, P. Pracht, F. Pultar,
   J. Seibert, P. Shushkov, S. Spicher, M. Stahn, M. Steiner, T. Strunk,
   J. Stückrath, T. Rose, and J. Unsleber
   
 * started run on 2025/10/18 at 03:37:28.757     
   ID    Z sym.   atoms
    1    6 C      1, 2, 6, 11, 12, 15
    2    1 H      3-5, 7, 8, 13, 14, 16-19
    3    8 O      9, 10

           -------------------------------------------------
          |                Calculation Setup                |
           -------------------------------------------------

          program call               : xtb xyz.xyz --charge -1 --ohess
          hostname                   : m003
          coordinate file            : xyz.xyz
          omp threads                :                     2


           -------------------------------------------------
          |                 G F N 2 - x T B                 |
           -------------------------------------------------

        Reference                      10.1021/acs.jctc.8b01176
      * Hamiltonian:
        H0-scaling (s, p, d)           1.850000    2.230000    2.230000
        zeta-weighting                 0.500000
      * Dispersion:
        s8                             2.700000
        a1                             0.520000
        a2                             5.000000
        s9                             5.000000
      * Repulsion:
        kExp                           1.500000    1.000000
        rExp                           1.000000
      * Coulomb:
        alpha                          2.000000
        third order                    shell-resolved
        anisotropic                    true
        a3                             3.000000
        a5                             4.000000
        cn-shift                       1.200000
        cn-exp                         4.000000
        max-rad                        5.000000

q/qsh data taken from xtbrestart
CAMM data taken from xtbrestart

          ...................................................
          :                      SETUP                      :
          :.................................................:
          :  # basis functions                  43          :
          :  # atomic orbitals                  43          :
          :  # shells                           27          :
          :  # electrons                        48          :
          :  max. iterations                   250          :
          :  Hamiltonian                  GFN2-xTB          :
          :  restarted?                       true          :
          :  GBSA solvation                  false          :
          :  PC potential                    false          :
          :  electronic temp.          300.0000000     K    :
          :  accuracy                    1.0000000          :
          :  -> integral cutoff          0.2500000E+02      :
          :  -> integral neglect         0.1000000E-07      :
          :  -> SCF convergence          0.1000000E-05 Eh   :
          :  -> wf. convergence          0.1000000E-03 e    :
          :  Broyden damping             0.4000000          :
          :  net charge                         -1          :
          :  unpaired electrons                  0          :
          ...................................................

 iter      E             dE          RMSdq      gap      omega  full diag
   1    -27.0969646 -0.270970E+02  0.138E+00    4.92       0.0  T
   2    -27.1114906 -0.145260E-01  0.900E-01    4.98       1.0  T
   3    -27.1143194 -0.282876E-02  0.465E-01    5.02       1.0  T
   4    -27.1148432 -0.523825E-03  0.249E-01    5.05       1.0  T
   5    -27.1148990 -0.557400E-04  0.461E-02    5.03       1.0  T
   6    -27.1149083 -0.937760E-05  0.177E-02    5.04       1.3  T
   7    -27.1149091 -0.781198E-06  0.705E-03    5.04       3.3  T
   8    -27.1149092 -0.121159E-06  0.149E-03    5.04      15.4  T
   9    -27.1149092 -0.416828E-08  0.757E-04    5.04      30.3  T
  10    -27.1149092 -0.492459E-09  0.128E-04    5.04     178.9  T

   *** convergence criteria satisfied after 10 iterations ***

         #    Occupation            Energy/Eh            Energy/eV
      -------------------------------------------------------------
         1        2.0000           -0.5235537             -14.2466
       ...           ...                  ...                  ...
        18        2.0000           -0.2960252              -8.0553
        19        2.0000           -0.2950630              -8.0291
        20        2.0000           -0.2694082              -7.3310
        21        2.0000           -0.2669238              -7.2634
        22        2.0000           -0.1856326              -5.0513
        23        2.0000           -0.1728235              -4.7028
        24        2.0000           -0.1590857              -4.3289 (HOMO)
        25                          0.0260193               0.7080 (LUMO)
        26                          0.1843794               5.0172
        27                          0.2153026               5.8587
        28                          0.2194916               5.9727
        29                          0.2428125               6.6073
       ...                                ...                  ...
        43                          0.8128550              22.1189
      -------------------------------------------------------------
                  HL-Gap            0.1851050 Eh            5.0370 eV
             Fermi-level           -0.0665332 Eh           -1.8105 eV

 SCC (total)                   0 d,  0 h,  0 min,  0.062 sec
 SCC setup                      ...        0 min,  0.000 sec (  0.286%)
 Dispersion                     ...        0 min,  0.000 sec (  0.248%)
 classical contributions        ...        0 min,  0.000 sec (  0.055%)
 integral evaluation            ...        0 min,  0.001 sec (  1.710%)
 iterations                     ...        0 min,  0.057 sec ( 92.069%)
 molecular gradient             ...        0 min,  0.003 sec (  5.346%)
 printout                       ...        0 min,  0.000 sec (  0.240%)

         :::::::::::::::::::::::::::::::::::::::::::::::::::::
         ::                     SUMMARY                     ::
         :::::::::::::::::::::::::::::::::::::::::::::::::::::
         :: total energy             -26.821969770351 Eh    ::
         :: gradient norm              0.055974676767 Eh/a0 ::
         :: HOMO-LUMO gap              5.036964651030 eV    ::
         ::.................................................::
         :: SCC energy               -27.114939265012 Eh    ::
         :: -> isotropic ES            0.207234305487 Eh    ::
         :: -> anisotropic ES          0.009501339321 Eh    ::
         :: -> anisotropic XC          0.006696632446 Eh    ::
         :: -> dispersion             -0.011993472777 Eh    ::
         :: repulsion energy           0.292969494662 Eh    ::
         :: add. restraining           0.000000000000 Eh    ::
         :: total charge              -1.000004060618 e     ::
         :::::::::::::::::::::::::::::::::::::::::::::::::::::

      ----------------------------------------------------------- 
     |                   =====================                   |
     |                        A N C O P T                        |
     |                   =====================                   |
     |               Approximate Normal Coordinate               |
     |                Rational Function Optimizer                |
      ----------------------------------------------------------- 
      ----------------------------------------------------------- 
     |                   =====================                   |
     |                        A N C O P T                        |
     |                   =====================                   |
     |               Approximate Normal Coordinate               |
     |                Rational Function Optimizer                |
      ----------------------------------------------------------- 

          ...................................................
          :                      SETUP                      :
          :.................................................:
          :   optimization level            normal          :
          :   max. optcycles                   200          :
          :   ANC micro-cycles                  20          :
          :   degrees of freedom                51          :
          :.................................................:
          :   RF solver                   davidson          :
          :   write xtbopt.log                true          :
          :   linear?                        false          :
          :   energy convergence         0.5000000E-05 Eh   :
          :   grad. convergence          0.1000000E-02 Eh/α :
          :   maxmium RF displ.          1.0000000          :
          :   Hlow (freq-cutoff)         0.1000000E-01      :
          :   Hmax (freq-cutoff)         5.0000000          :
          :   S6 in model hess.         20.0000000          :
          ...................................................

generating ANC from exact Hessian ...
Using Lindh-Hessian (1995)
 Shifting diagonal of input Hessian by   8.143106515920581E-003
 Lowest  eigenvalues of input Hessian
    0.000000    0.000000    0.000000    0.000000    0.000000    0.000000
    0.010000    0.010701    0.011224    0.014444    0.018344    0.018459
    0.022191    0.022422    0.029275    0.043077    0.047944    0.050288
 Highest eigenvalues
    1.181571    1.196736    1.238229    1.284825    1.641376    2.276985
 

........................................................................
.............................. CYCLE    1 ..............................
........................................................................

 iter      E             dE          RMSdq      gap      omega  full diag
   1    -27.1149092 -0.271149E+02  0.548E-05    5.04       0.0  T
   2    -27.1149092 -0.241229E-11  0.317E-05    5.04     723.4  T
   3    -27.1149092 -0.820677E-12  0.672E-06    5.04    3413.3  T
     SCC iter.                  ...        0 min,  0.001 sec
     gradient                   ...        0 min,  0.003 sec
 * total energy  :   -26.8219698 Eh     change       -0.8152767E-10 Eh
   gradient norm :     0.0559750 Eh/α   predicted     0.0000000E+00 (-100.00%)
   displ. norm   :     0.1379490 α      lambda       -0.3470010E-02
   maximum displ.:     0.0794264 α      in ANC's #8, #20, #14, ...

........................................................................
.............................. CYCLE    2 ..............................
........................................................................

 iter      E             dE          RMSdq      gap      omega  full diag
   1    -27.1261894 -0.271262E+02  0.133E-01    5.30       0.0  T
   2    -27.1263155 -0.126078E-03  0.801E-02    5.24       1.0  T
   3    -27.1263272 -0.116832E-04  0.444E-02    5.26       1.0  T
   4    -27.1263286 -0.145267E-05  0.611E-03    5.25       3.8  T
   5    -27.1263289 -0.250130E-06  0.321E-03    5.25       7.1  T
   6    -27.1263289 -0.269102E-07  0.776E-04    5.25      29.6  T
   7    -27.1263289 -0.112705E-08  0.322E-04    5.25      71.2  T
     SCC iter.                  ...        0 min,  0.003 sec
     gradient                   ...        0 min,  0.003 sec
 * total energy  :   -26.8242770 Eh     change       -0.2307255E-02 Eh
   gradient norm :     0.0243887 Eh/α   predicted    -0.1768100E-02 ( -23.37%)
   displ. norm   :     0.0921898 α      lambda       -0.9001698E-03
   maximum displ.:     0.0470440 α      in ANC's #2, #8, #5, ...

........................................................................
.............................. CYCLE    3 ..............................
........................................................................

 iter      E             dE          RMSdq      gap      omega  full diag
   1    -27.1304625 -0.271305E+02  0.693E-02    5.39       0.0  T
   2    -27.1305335 -0.710375E-04  0.418E-02    5.35       1.0  T
   3    -27.1305390 -0.551483E-05  0.238E-02    5.36       1.0  T
   4    -27.1305393 -0.303786E-06  0.493E-03    5.36       4.7  T
   5    -27.1305394 -0.116663E-06  0.245E-03    5.36       9.4  T
   6    -27.1305394 -0.143188E-07  0.379E-04    5.36      60.5  T
   7    -27.1305394 -0.612612E-09  0.142E-04    5.36     161.5  T
     SCC iter.                  ...        0 min,  0.003 sec
     gradient                   ...        0 min,  0.003 sec
 * total energy  :   -26.8247896 Eh     change       -0.5126065E-03 Eh
   gradient norm :     0.0079936 Eh/α   predicted    -0.4539107E-03 ( -11.45%)
   displ. norm   :     0.0584178 α      lambda       -0.1249483E-03
   maximum displ.:     0.0450608 α      in ANC's #2, #8, #7, ...

........................................................................
.............................. CYCLE    4 ..............................
........................................................................

 iter      E             dE          RMSdq      gap      omega  full diag
   1    -27.1301022 -0.271301E+02  0.268E-02    5.35       0.0  T
   2    -27.1301085 -0.628370E-05  0.159E-02    5.35       1.4  T
   3    -27.1301089 -0.393165E-06  0.859E-03    5.35       2.7  T
   4    -27.1301089 -0.517212E-07  0.179E-03    5.35      12.8  T
   5    -27.1301089 -0.367567E-08  0.699E-04    5.35      32.8  T
   6    -27.1301089 -0.912042E-09  0.150E-04    5.35     153.4  T
     SCC iter.                  ...        0 min,  0.003 sec
     gradient                   ...        0 min,  0.003 sec
 * total energy  :   -26.8248766 Eh     change       -0.8695310E-04 Eh
   gradient norm :     0.0036448 Eh/α   predicted    -0.6273681E-04 ( -27.85%)
   displ. norm   :     0.0608402 α      lambda       -0.5721549E-04
   maximum displ.:     0.0530430 α      in ANC's #2, #1, #7, ...

........................................................................
.............................. CYCLE    5 ..............................
........................................................................

 iter      E             dE          RMSdq      gap      omega  full diag
   1    -27.1294823 -0.271295E+02  0.273E-02    5.33       0.0  T
   2    -27.1294852 -0.294608E-05  0.159E-02    5.33       1.4  T
   3    -27.1294854 -0.176275E-06  0.731E-03    5.33       3.1  T
   4    -27.1294855 -0.609846E-07  0.143E-03    5.33      16.0  T
   5    -27.1294855 -0.266933E-08  0.583E-04    5.33      39.3  T
   6    -27.1294855 -0.108924E-08  0.136E-04    5.33     168.8  T
     SCC iter.                  ...        0 min,  0.002 sec
     gradient                   ...        0 min,  0.003 sec
 * total energy  :   -26.8249011 Eh     change       -0.2447935E-04 Eh
   gradient norm :     0.0020837 Eh/α   predicted    -0.2873117E-04 (  17.37%)
   displ. norm   :     0.0382203 α      lambda       -0.3117217E-04
   maximum displ.:     0.0320483 α      in ANC's #2, #10, #1, ...

........................................................................
.............................. CYCLE    6 ..............................
........................................................................

 iter      E             dE          RMSdq      gap      omega  full diag
   1    -27.1293059 -0.271293E+02  0.191E-02    5.33       0.0  T
   2    -27.1293062 -0.352450E-06  0.114E-02    5.32       2.0  T
   3    -27.1293062 -0.720540E-08  0.291E-03    5.32       7.9  T
   4    -27.1293063 -0.272407E-07  0.624E-04    5.32      36.8  T
   5    -27.1293063 -0.509051E-09  0.199E-04    5.32     115.1  T
     SCC iter.                  ...        0 min,  0.002 sec
     gradient                   ...        0 min,  0.003 sec
 * total energy  :   -26.8249033 Eh     change       -0.2246916E-05 Eh
   gradient norm :     0.0026432 Eh/α   predicted    -0.1561994E-04 ( 595.17%)
   displ. norm   :     0.0120558 α      lambda       -0.1800779E-04
   maximum displ.:     0.0054149 α      in ANC's #5, #10, #8, ...

........................................................................
.............................. CYCLE    7 ..............................
........................................................................

 iter      E             dE          RMSdq      gap      omega  full diag
   1    -27.1296026 -0.271296E+02  0.104E-02    5.33       0.0  T
   2    -27.1296029 -0.295782E-06  0.618E-03    5.33       3.7  T
   3    -27.1296029 -0.118529E-07  0.261E-03    5.33       8.8  T
   4    -27.1296029 -0.108152E-07  0.427E-04    5.33      53.7  T
   5    -27.1296029 -0.653163E-09  0.207E-04    5.33     111.0  T
     SCC iter.                  ...        0 min,  0.002 sec
     gradient                   ...        0 min,  0.003 sec
 * total energy  :   -26.8249140 Eh     change       -0.1069120E-04 Eh
   gradient norm :     0.0006835 Eh/α   predicted    -0.9010956E-05 ( -15.72%)
   displ. norm   :     0.0253395 α      lambda       -0.3370747E-05
   maximum displ.:     0.0187447 α      in ANC's #2, #1, #8, ...

........................................................................
.............................. CYCLE    8 ..............................
........................................................................

 iter      E             dE          RMSdq      gap      omega  full diag
   1    -27.1297186 -0.271297E+02  0.857E-03    5.33       0.0  T
   2    -27.1297186 -0.622353E-07  0.508E-03    5.33       4.5  T
   3    -27.1297186  0.225940E-08  0.114E-03    5.33      20.0  T
   4    -27.1297186 -0.767917E-08  0.202E-04    5.33     113.4  T
   5    -27.1297186 -0.149079E-09  0.105E-04    5.33     217.6  T
     SCC iter.                  ...        0 min,  0.002 sec
     gradient                   ...        0 min,  0.003 sec
 * total energy  :   -26.8249176 Eh     change       -0.3590113E-05 Eh
   gradient norm :     0.0004278 Eh/α   predicted    -0.1688496E-05 ( -52.97%)
   displ. norm   :     0.0298405 α      lambda       -0.2403935E-05
   maximum displ.:     0.0213451 α      in ANC's #2, #1, #7, ...

   *** GEOMETRY OPTIMIZATION CONVERGED AFTER 8 ITERATIONS ***

------------------------------------------------------------------------
 total energy gain   :        -0.0029478 Eh       -1.8498 kcal/mol
 total RMSD          :         0.0750605 a0        0.0397 Å
 total power (kW/mol):        -0.9674384 (step) -139.2848 (real)
------------------------------------------------------------------------

 ANCopt (total)                0 d,  0 h,  0 min,  0.056 sec
 optimizer setup                ...        0 min,  0.000 sec (  0.502%)
 model hessian                  ...        0 min,  0.005 sec (  9.032%)
 ANC generation                 ...        0 min,  0.000 sec (  0.830%)
 coordinate transformation      ...        0 min,  0.000 sec (  0.125%)
 single point calculation       ...        0 min,  0.048 sec ( 86.816%)
 optimization log               ...        0 min,  0.001 sec (  1.045%)
 hessian update                 ...        0 min,  0.000 sec (  0.146%)
 rational function              ...        0 min,  0.000 sec (  0.871%)

================
 final structure:
================
19
 xtb: 6.7.1 (edcfbbe)
C           -5.31338885183332       -3.62055192657390        0.50684041060101
C           -6.50939425722315       -4.13390454378611        1.29107256490841
H           -2.06420779663545       -1.57681074164261        2.21368401523935
H           -1.58944051711286       -0.75449723715802        0.72436250172648
H           -3.04064679040203       -0.24620318880380        1.59368754142178
C           -7.36261532762818       -5.22382662233619        0.49681467833541
H           -6.18531526994368       -4.59694059056357        2.22830541304553
H           -7.18619680272411       -3.31227011269368        1.54516412040996
O           -6.96982578386164       -5.51268271657706       -0.63974761031500
O           -8.33763438855621       -5.66018167015659        1.12387664289049
C           -4.48169734894290       -2.60864710919646        1.29438136633641
C           -3.27894407504473       -2.09769359887662        0.50394189381398
H           -5.11409672971260       -1.76055406073115        1.57427193369816
H           -4.13040354090880       -3.07427397510365        2.22023033524635
C           -2.44027475114859       -1.10771234856077        1.30597618456240
H           -2.65614889326682       -2.94661039295170        0.21118828604563
H           -3.62972515852648       -1.61716668108374       -0.41280924824741
H           -4.68957281701833       -4.47151421146602        0.22385076326576
H           -5.66952189951010       -3.16540127173837       -0.42020779298474
 
 Bond Distances (Angstroems)
 ---------------------------
C1-C2=1.5195         C1-C11=1.5284        C1-H18=1.0924        C1-H19=1.0924        C2-C1=1.5195         C2-C6=1.5959         
C2-H7=1.0945         C2-H8=1.0944         H3-C15=1.0888        H4-C15=1.0895        H5-C15=1.0888        C6-C2=1.5959         
C6-O9=1.2367         C6-O10=1.2387        H7-C2=1.0945         H8-C2=1.0944         O9-C6=1.2367         O10-C6=1.2387        
C11-C1=1.5284        C11-C12=1.5272       C11-H13=1.0943       C11-H14=1.0943       C12-C11=1.5272       C12-C15=1.5253       
C12-H16=1.0928       C12-H17=1.0929       H13-C11=1.0943       H14-C11=1.0943       C15-H3=1.0888        C15-H4=1.0895        
C15-H5=1.0888        C15-C12=1.5253       H16-C12=1.0928       H17-C12=1.0929       H18-C1=1.0924        H19-C1=1.0924        
 C  H  Rav=1.0923 sigma=0.0021  Rmin=1.0888  Rmax=1.0945    11
 C  C  Rav=1.5393 sigma=0.0285  Rmin=1.5195  Rmax=1.5959     5
 O  C  Rav=1.2377 sigma=0.0010  Rmin=1.2367  Rmax=1.2387     2
 
 selected bond angles (degree)
 --------------------
C11-C1-C2=112.71               H18-C1-C2=108.66               H18-C1-C11=109.78              H19-C1-C2=108.79               
H19-C1-C11=109.81              H19-C1-H18=106.91              C6-C2-C1=113.25                H7-C2-C1=110.60                
H7-C2-C6=107.19                H8-C2-C1=110.67                H8-C2-C6=107.32                H8-C2-H7=107.57                
O9-C6-C2=116.56                O10-C6-C2=114.17               O10-C6-O9=129.27               
 
 selected dihedral angles (degree)
 ---------------------------------
C6-C2-C1-C11=181.70           C6-C2-C1-H18=303.62           C6-C2-C1-H19= 59.67           H7-C2-C1-C11=302.04           
H7-C2-C1-H18= 63.95           H7-C2-C1-H19=180.01           H8-C2-C1-C11= 61.15           H8-C2-C1-H18=183.07           
H8-C2-C1-H19=299.12           O9-C6-C2-C1=359.53            O9-C6-C2-H7=237.27            O9-C6-C2-H8=121.96            
O10-C6-C2-C1=179.58           O10-C6-C2-H7= 57.33           O10-C6-C2-H8=302.02           
           -------------------------------------------------
          |                Final Singlepoint                |
           -------------------------------------------------

          ...................................................
          :                      SETUP                      :
          :.................................................:
          :  # basis functions                  43          :
          :  # atomic orbitals                  43          :
          :  # shells                           27          :
          :  # electrons                        48          :
          :  max. iterations                   250          :
          :  Hamiltonian                  GFN2-xTB          :
          :  restarted?                      false          :
          :  GBSA solvation                  false          :
          :  PC potential                    false          :
          :  electronic temp.          300.0000000     K    :
          :  accuracy                    1.0000000          :
          :  -> integral cutoff          0.2500000E+02      :
          :  -> integral neglect         0.1000000E-07      :
          :  -> SCF convergence          0.1000000E-05 Eh   :
          :  -> wf. convergence          0.1000000E-03 e    :
          :  Broyden damping             0.4000000          :
          :  net charge                         -1          :
          :  unpaired electrons                  0          :
          ...................................................

 iter      E             dE          RMSdq      gap      omega  full diag
   1    -27.1297186 -0.271297E+02  0.254E-05    5.33       0.0  T
   2    -27.1297186 -0.108358E-11  0.163E-05    5.33    1411.3  T
   3    -27.1297186 -0.497380E-13  0.638E-06    5.33    3596.5  T

   *** convergence criteria satisfied after 3 iterations ***

         #    Occupation            Energy/Eh            Energy/eV
      -------------------------------------------------------------
         1        2.0000           -0.5220032             -14.2044
       ...           ...                  ...                  ...
        18        2.0000           -0.2977527              -8.1023
        19        2.0000           -0.2944439              -8.0122
        20        2.0000           -0.2727229              -7.4212
        21        2.0000           -0.2694802              -7.3329
        22        2.0000           -0.1910156              -5.1978
        23        2.0000           -0.1764028              -4.8002
        24        2.0000           -0.1593568              -4.3363 (HOMO)
        25                          0.0366091               0.9962 (LUMO)
        26                          0.1776972               4.8354
        27                          0.2243433               6.1047
        28                          0.2267823               6.1711
        29                          0.2498880               6.7998
       ...                                ...                  ...
        43                          0.8818783              23.9971
      -------------------------------------------------------------
                  HL-Gap            0.1959659 Eh            5.3325 eV
             Fermi-level           -0.0613738 Eh           -1.6701 eV

 SCC (total)                   0 d,  0 h,  0 min,  0.005 sec
 SCC setup                      ...        0 min,  0.000 sec (  1.818%)
 Dispersion                     ...        0 min,  0.000 sec (  1.644%)
 classical contributions        ...        0 min,  0.000 sec (  0.377%)
 integral evaluation            ...        0 min,  0.001 sec ( 18.114%)
 iterations                     ...        0 min,  0.001 sec ( 26.333%)
 molecular gradient             ...        0 min,  0.003 sec ( 49.623%)
 printout                       ...        0 min,  0.000 sec (  1.559%)

         :::::::::::::::::::::::::::::::::::::::::::::::::::::
         ::                     SUMMARY                     ::
         :::::::::::::::::::::::::::::::::::::::::::::::::::::
         :: total energy             -26.824917592986 Eh    ::
         :: gradient norm              0.000428307837 Eh/a0 ::
         :: HOMO-LUMO gap              5.332504532797 eV    ::
         ::.................................................::
         :: SCC energy               -27.129749887602 Eh    ::
         :: -> isotropic ES            0.202030476404 Eh    ::
         :: -> anisotropic ES          0.009247105537 Eh    ::
         :: -> anisotropic XC          0.006165616296 Eh    ::
         :: -> dispersion             -0.011993357971 Eh    ::
         :: repulsion energy           0.304832294616 Eh    ::
         :: add. restraining           0.000000000000 Eh    ::
         :: total charge              -1.000000000000 e     ::
         :::::::::::::::::::::::::::::::::::::::::::::::::::::

           ------------------------------------------------- 
          |                Numerical Hessian                |
           ------------------------------------------------- 
step length          :   0.00500
SCC accuracy         :   0.30000
Hessian scale factor :   1.00000
frozen atoms in %    :   0.00000    0
RMS gradient         :   0.00043
estimated CPU  time      0.03 min
estimated wall time      0.02 min

writing file <hessian>.

 projected vibrational frequencies (cm⁻¹)
eigval :       -0.00    -0.00     0.00     0.00     0.00     0.00
eigval :      -24.93    48.42    93.12   102.22   117.70   211.47
eigval :      231.22   310.52   399.35   516.77   578.39   652.81
eigval :      761.96   793.30   831.77   863.83   938.99   959.62
eigval :     1045.01  1055.76  1090.59  1103.13  1128.05  1205.93
eigval :     1217.48  1250.75  1274.43  1280.84  1285.54  1310.15
eigval :     1337.91  1365.71  1409.15  1485.90  1500.04  1503.89
eigval :     1506.25  1509.36  1513.51  1782.57  2927.07  2934.65
eigval :     2945.21  2956.03  2958.83  2969.09  2973.61  2985.30
eigval :     3006.07  3016.19  3023.37
           -------------------------------------------------
          |                Property Printout                |
           -------------------------------------------------

    * Orbital Energies and Occupations

         #    Occupation            Energy/Eh            Energy/eV
      -------------------------------------------------------------
         1        2.0000           -0.5220032             -14.2044
       ...           ...                  ...                  ...
        12        2.0000           -0.3586445              -9.7592
        13        2.0000           -0.3427120              -9.3257
        14        2.0000           -0.3404985              -9.2654
        15        2.0000           -0.3274218              -8.9096
        16        2.0000           -0.3215500              -8.7498
        17        2.0000           -0.3035911              -8.2611
        18        2.0000           -0.2977527              -8.1023
        19        2.0000           -0.2944439              -8.0122
        20        2.0000           -0.2727230              -7.4212
        21        2.0000           -0.2694802              -7.3329
        22        2.0000           -0.1910156              -5.1978
        23        2.0000           -0.1764028              -4.8002
        24        2.0000           -0.1593568              -4.3363 (HOMO)
        25                          0.0366092               0.9962 (LUMO)
        26                          0.1776972               4.8354
        27                          0.2243433               6.1047
        28                          0.2267823               6.1711
        29                          0.2498880               6.7998
        30                          0.2570952               6.9959
        31                          0.2657674               7.2319
        32                          0.2898806               7.8881
        33                          0.2976794               8.1003
        34                          0.3154983               8.5851
        35                          0.3269920               8.8979
       ...                                ...                  ...
        43                          0.8818783              23.9971
      -------------------------------------------------------------
                  HL-Gap            0.1959660 Eh            5.3325 eV
             Fermi-level           -0.0613738 Eh           -1.6701 eV

     #   Z          covCN         q      C6AA      α(0)
     1   6 C        3.801    -0.045    21.384     6.584
     2   6 C        3.792    -0.093    22.292     6.724
     3   1 H        0.925     0.025     2.666     2.553
     4   1 H        0.925     0.017     2.782     2.609
     5   1 H        0.925     0.024     2.670     2.555
     6   6 C        2.677     0.366    20.793     7.462
     7   1 H        0.924    -0.007     3.187     2.792
     8   1 H        0.924    -0.008     3.192     2.794
     9   8 O        0.856    -0.597    26.051     6.843
    10   8 O        0.856    -0.603    26.187     6.861
    11   6 C        3.802    -0.054    21.540     6.608
    12   6 C        3.800    -0.050    21.479     6.599
    13   1 H        0.924     0.014     2.821     2.627
    14   1 H        0.924     0.015     2.813     2.623
    15   6 C        3.751    -0.095    22.370     6.745
    16   1 H        0.924     0.023     2.695     2.567
    17   1 H        0.924     0.022     2.706     2.572
    18   1 H        0.924     0.025     2.664     2.553
    19   1 H        0.924     0.023     2.693     2.566

 Mol. C6AA /au·bohr⁶  :       3181.551973
 Mol. C8AA /au·bohr⁸  :      67314.628202
 Mol. α(0) /au        :         83.235090


Wiberg/Mayer (AO) data.
largest (>0.10) Wiberg bond orders for each atom

 ---------------------------------------------------------------------------
     #   Z sym  total        # sym  WBO       # sym  WBO       # sym  WBO
 ---------------------------------------------------------------------------
     1   6 C    3.993 --     2 C    1.012    11 C    1.001    19 H    0.978
                            18 H    0.977
     2   6 C    3.963 --     1 C    1.012     8 H    0.976     7 H    0.976
                             6 C    0.861
     3   1 H    0.999 --    15 C    0.989
     4   1 H    0.999 --    15 C    0.988
     5   1 H    0.999 --    15 C    0.989
     6   6 C    3.945 --     9 O    1.537    10 O    1.528     2 C    0.861
     7   1 H    1.000 --     2 C    0.976
     8   1 H    1.000 --     2 C    0.976
     9   8 O    1.846 --     6 C    1.537    10 O    0.230
    10   8 O    1.837 --     6 C    1.528     9 O    0.230
    11   6 C    3.995 --    12 C    1.006     1 C    1.001    13 H    0.978
                            14 H    0.978
    12   6 C    3.996 --    15 C    1.017    11 C    1.006    17 H    0.979
                            16 H    0.979
    13   1 H    1.000 --    11 C    0.978
    14   1 H    1.000 --    11 C    0.978
    15   6 C    3.998 --    12 C    1.017     5 H    0.989     3 H    0.989
                             4 H    0.988
    16   1 H    0.999 --    12 C    0.979
    17   1 H    1.000 --    12 C    0.979
    18   1 H    0.999 --     1 C    0.977
    19   1 H    0.999 --     1 C    0.978
 ---------------------------------------------------------------------------

Topologies differ in total number of bonds
Writing topology from bond orders to xtbtopo.mol

molecular dipole:
                 x           y           z       tot (Debye)
 q only:       14.003      10.091      -0.664
   full:       14.245      10.373      -0.486      44.806
molecular quadrupole (traceless):
                xx          xy          yy          xz          yz          zz
 q only:     -147.181    -217.768      -2.155      15.979       8.603     149.335
  q+dip:     -151.539    -227.828      -3.340      14.206       6.313     154.879
   full:     -151.284    -227.592      -3.307      14.253       6.207     154.592

           -------------------------------------------------
          |                Geometry Summary                 |
           -------------------------------------------------

      molecular mass/u    :      115.1505735
   center of mass at/Å    :       -5.5942730      -3.7534010       0.7328641
  moments of inertia/u·Å² :        0.6742184E+02   0.7565304E+03   0.8082226E+03
rotational constants/cm⁻¹ :        0.2500322E+00   0.2228282E-01   0.2085766E-01

 * 17 selected distances

     #   Z          #   Z                                           value/Å
     1   6 C        2   6 C                                       1.5195329
     2   6 C        7   1 H                                       1.0944566
     2   6 C        8   1 H                                       1.0943983
     6   6 C        9   8 O                                       1.2367278
     6   6 C       10   8 O                                       1.2386585
     1   6 C       11   6 C                                       1.5283597 (max)
    11   6 C       12   6 C                                       1.5272472
    11   6 C       13   1 H                                       1.0943170
    11   6 C       14   1 H                                       1.0942633
     3   1 H       15   6 C                                       1.0887669 (min)
     4   1 H       15   6 C                                       1.0894744
     5   1 H       15   6 C                                       1.0887712
    12   6 C       15   6 C                                       1.5253487
    12   6 C       16   1 H                                       1.0928122
    12   6 C       17   1 H                                       1.0928798
     1   6 C       18   1 H                                       1.0924132
     1   6 C       19   1 H                                       1.0924337

 * 3 distinct bonds (by element types)

   Z      Z             #   av. dist./Å        max./Å        min./Å
   1 H    6 C          11     1.0922715     1.0944566     1.0887669
   6 C    6 C           4     1.5251221     1.5283597     1.5195329
   6 C    8 O           2     1.2376931     1.2386585     1.2367278

           -------------------------------------------------
          |               Frequency Printout                |
           -------------------------------------------------
 projected vibrational frequencies (cm⁻¹)
eigval :       -0.00    -0.00     0.00     0.00     0.00     0.00
eigval :      -24.93    48.42    93.12   102.22   117.70   211.47
eigval :      231.22   310.52   399.35   516.77   578.39   652.81
eigval :      761.96   793.30   831.77   863.83   938.99   959.62
eigval :     1045.01  1055.76  1090.59  1103.13  1128.05  1205.93
eigval :     1217.48  1250.75  1274.43  1280.84  1285.54  1310.15
eigval :     1337.91  1365.71  1409.15  1485.90  1500.04  1503.89
eigval :     1506.25  1509.36  1513.51  1782.57  2927.07  2934.65
eigval :     2945.21  2956.03  2958.83  2969.09  2973.61  2985.30
eigval :     3006.07  3016.19  3023.37
 reduced masses (amu)
   1: 10.96   2: 13.08   3: 12.34   4: 12.23   5: 11.25   6: 11.27   7:  9.95   8: 10.69
   9: 11.61  10:  5.79  11:  7.87  12: 11.19  13:  2.16  14: 11.64  15:  9.74  16: 11.50
  17:  7.98  18: 13.06  19:  2.05  20:  3.24  21: 12.08  22:  4.33  23:  5.88  24:  3.56
  25:  3.01  26: 10.24  27:  7.78  28:  8.74  29:  8.24  30:  5.86  31:  4.12  32:  3.56
  33:  1.77  34:  4.26  35:  2.25  36: 12.64  37:  5.89  38:  5.42  39:  3.15  40:  2.09
  41:  1.90  42:  1.88  43:  1.93  44:  1.55  45:  1.63  46: 13.16  47:  1.98  48:  1.92
  49:  1.47  50:  1.45  51:  1.98  52:  2.02  53:  1.49  54:  1.50  55:  1.83  56:  1.96
  57:  1.34
 IR intensities (km·mol⁻¹)
   1:  3.34   2: 13.80   3:  9.29   4:  8.33   5:  4.41   6:  4.51   7:  0.03   8:  4.67
   9:  3.00  10:  0.21  11:  0.64  12:  2.60  13:  0.01  14:  0.35  15:  0.25  16:  2.70
  17: 17.13  18: 25.41  19: 16.35  20:  2.77  21:174.37  22: 20.62  23: 14.29  24:  4.68
  25: 10.37  26:  0.25  27:  4.63  28:  0.15  29:  3.63  30:  0.13  31:  7.62  32:  3.09
  33:  5.15  34: 31.27  35:  0.03  36:332.21  37: 48.64  38:  3.65  39:  0.07  40:  1.93
  41:  0.39  42:  0.73  43:  0.09  44:  0.62  45:  0.31  46:671.62  47: 58.60  48: 39.71
  49: 34.83  50: 62.36  51: 15.26  52:174.29  53: 17.00  54: 82.48  55: 98.36  56: 83.18
  57: 47.48
 Raman intensities (Ä⁴*amu⁻¹)
   1:  0.00   2:  0.00   3:  0.00   4:  0.00   5:  0.00   6:  0.00   7:  0.00   8:  0.00
   9:  0.00  10:  0.00  11:  0.00  12:  0.00  13:  0.00  14:  0.00  15:  0.00  16:  0.00
  17:  0.00  18:  0.00  19:  0.00  20:  0.00  21:  0.00  22:  0.00  23:  0.00  24:  0.00
  25:  0.00  26:  0.00  27:  0.00  28:  0.00  29:  0.00  30:  0.00  31:  0.00  32:  0.00
  33:  0.00  34:  0.00  35:  0.00  36:  0.00  37:  0.00  38:  0.00  39:  0.00  40:  0.00
  41:  0.00  42:  0.00  43:  0.00  44:  0.00  45:  0.00  46:  0.00  47:  0.00  48:  0.00
  49:  0.00  50:  0.00  51:  0.00  52:  0.00  53:  0.00  54:  0.00  55:  0.00  56:  0.00
  57:  0.00
 output can be read by thermo (or use thermo option).
 writing <g98.out> molden fake output.
 recommended (thermochemical) frequency scaling factor: 1.0
           -------------------------------------------------
          |             Thermodynamic Functions             |
           -------------------------------------------------

Refinement of some symmetry elements was terminated before convergence was reached.
Some symmetry elements may remain unidentified.
Molecule has no symmetry elements
It seems to be the C1 point group
c1  symmetry found (for desy threshold:  0.10E+00) used in thermo

          ...................................................
          :                      SETUP                      :
          :.................................................:
          :  # frequencies                          50      :
          :  # imaginary freq.                       1      :
          :  linear?                             false      :
          :  only rotor calc.                    false      :
          :  symmetry                               c1      :
          :  rotational number                       1      :
          :  scaling factor                  1.0000000      :
          :  rotor cutoff                   50.0000000 cm⁻¹ :
          :  imag. cutoff                  -20.0000000 cm⁻¹ :
          :.................................................:

    mode    ω/cm⁻¹     T·S(HO)/kcal·mol⁻¹    T·S(FR)/kcal·mol⁻¹   T·S(vib)
   ------------------------------------------------------------------------
       1     48.42    -1.45520 ( 46.80%)    -1.06585 ( 53.20%)    -1.24807
       2     93.12    -1.07136 ( 92.33%)    -0.87222 (  7.67%)    -1.05608
       3    102.22    -1.01717 ( 94.58%)    -0.84463 (  5.42%)    -1.00783
       4    117.70    -0.93553 ( 96.85%)    -0.80285 (  3.15%)    -0.93134
       5    211.47    -0.60554 ( 99.69%)    -0.62931 (  0.31%)    -0.60561
       6    231.22    -0.55737 ( 99.78%)    -0.60286 (  0.22%)    -0.55747
   ------------------------------------------------------------------------

   temp. (K)  partition function   enthalpy   heat capacity  entropy
                                   cal/mol     cal/K/mol   cal/K/mol   J/K/mol
 298.15  VIB   390.                 3754.159     23.972     23.656
         ROT  0.490E+06              888.752      2.981     29.020
         INT  0.191E+09             4642.912     26.953     52.676
         TR   0.120E+28             1481.254      4.968     40.120
         TOT                        6124.1658    31.9211    92.7964   388.2602

       T/K    H(0)-H(T)+PV         H(T)/Eh          T*S/Eh         G(T)/Eh
   ------------------------------------------------------------------------
    298.15    0.975948E-02    0.169844E+00    0.440906E-01    0.125753E+00
   ------------------------------------------------------------------------

         :::::::::::::::::::::::::::::::::::::::::::::::::::::
         ::                  THERMODYNAMIC                  ::
         :::::::::::::::::::::::::::::::::::::::::::::::::::::
         :: total free energy         -26.699164479786 Eh   ::
         ::.................................................::
         :: total energy              -26.824917592986 Eh   ::
         :: zero point energy           0.160084210042 Eh   ::
         :: G(RRHO) w/o ZPVE           -0.034331096841 Eh   ::
         :: G(RRHO) contrib.            0.125753113200 Eh   ::
         :::::::::::::::::::::::::::::::::::::::::::::::::::::
imag cut-off (cm-1) :    5.00
 found            1  significant imaginary frequency
 writing imag mode distorted coords to xtbhess.xyz
 for further optimization.

optimized geometry written to: xtbopt.xyz


           -------------------------------------------------
          | TOTAL ENERGY              -26.824917592986 Eh   |
          | TOTAL ENTHALPY            -26.655073903567 Eh   |
          | TOTAL FREE ENERGY         -26.699164479786 Eh   |
          | GRADIENT NORM               0.000428259505 Eh/α |
          | HOMO-LUMO GAP               5.332506064119 eV   |
           -------------------------------------------------
########################################################################
[WARNING] Runtime exception occurred
-2- restart_readRestart: Multiplicity missmatch in restart file.
-1- restart_readRestart: Number of electron missmatch in restart file.
########################################################################

------------------------------------------------------------------------
 * finished run on 2025/10/18 at 03:37:29.672     
------------------------------------------------------------------------
 total:
 * wall-time:     0 d,  0 h,  0 min,  0.914 sec
 *  cpu-time:     0 d,  0 h,  0 min,  1.508 sec
 * ratio c/w:     1.650 speedup
 SCF:
 * wall-time:     0 d,  0 h,  0 min,  0.062 sec
 *  cpu-time:     0 d,  0 h,  0 min,  0.076 sec
 * ratio c/w:     1.226 speedup
 ANC optimizer:
 * wall-time:     0 d,  0 h,  0 min,  0.136 sec
 *  cpu-time:     0 d,  0 h,  0 min,  0.197 sec
 * ratio c/w:     1.453 speedup
 analytical hessian:
 * wall-time:     0 d,  0 h,  0 min,  0.590 sec
 *  cpu-time:     0 d,  0 h,  0 min,  1.113 sec
 * ratio c/w:     1.885 speedup

