19
 energy: -26.824917592986 gnorm: 0.000428307837 xtb: 6.7.1 (edcfbbe)
C           -5.31340603966019       -3.62052322108565        0.50686527687831
C           -6.50941139543742       -4.13386820729140        1.29110250199552
H           -2.06420832551155       -1.57679606988483        2.21369397272090
H           -1.58944193910634       -0.75448765061762        0.72436936676111
H           -3.04064251642368       -0.24618448653033        1.59369858497485
C           -7.36264094512788       -5.22378720459681        0.49684949600484
H           -6.18533156104425       -4.59690431517264        2.22833502702678
H           -7.18620875191300       -3.31222978901286        1.54519498595909
O           -6.96985688117554       -5.51264733912916       -0.63971365958208
O           -8.33766010191873       -5.66013605280457        1.12391562559695
C           -4.48170648942744       -2.60862138394628        1.29440156334962
C           -3.27895329937137       -2.09767555079832        0.50395700065016
H           -5.11410045258002       -1.76052453576240        1.57429285799792
H           -4.13041188758299       -3.07424847332209        2.22025011867798
C           -2.44027599233301       -1.10769729196061        1.30598663604104
H           -2.65616358442410       -2.94659611675451        0.21120270055805
H           -3.62973506688959       -1.61714839634313       -0.41279375562497
H           -4.68959544830328       -4.47148926616287        0.22387493722584
H           -5.66953994018660       -3.16537231953618       -0.42018247794928
