19
 energy: -26.821969770432 gnorm: 0.055974988962 xtb: 6.7.1 (edcfbbe)
C           -5.30340300000000       -3.62324100000000        0.47188600000000
C           -6.50324200000000       -4.14249600000000        1.25759200000000
H           -2.08107100000000       -1.60336800000000        2.23283600000000
H           -1.60455900000000       -0.77139800000000        0.74287700000000
H           -3.05693100000000       -0.25468900000000        1.61746100000000
C           -7.34628300000000       -5.20124200000000        0.53935400000000
H           -6.15944200000000       -4.58084700000000        2.20272200000000
H           -7.16558800000000       -3.30479500000000        1.50874900000000
O           -6.98097300000000       -5.52260500000000       -0.62416300000000
O           -8.32385800000000       -5.62951900000000        1.21865700000000
C           -4.49565100000000       -2.61311800000000        1.28852100000000
C           -3.28923500000000       -2.10051700000000        0.50225200000000
H           -5.13689100000000       -1.76876700000000        1.56948800000000
H           -4.15432300000000       -3.08324600000000        2.21885600000000
C           -2.46166300000000       -1.12534700000000        1.32440600000000
H           -2.65542300000000       -2.94250200000000        0.20047100000000
H           -3.62655500000000       -1.60327200000000       -0.41464500000000
H           -4.65717300000000       -4.46229600000000        0.18603600000000
H           -5.64678700000000       -3.15417800000000       -0.45847200000000
19
 energy: -26.824277025798 gnorm: 0.024388658135 xtb: 6.7.1 (edcfbbe)
C           -5.30926003046647       -3.62407726217133        0.47978475096245
C           -6.50558944786245       -4.13898024470659        1.26790133348176
H           -2.07647465638653       -1.59316941014489        2.22833023441706
H           -1.58985855046985       -0.75604528927528        0.74941096753401
H           -3.04659879836561       -0.25339894535035        1.61607325987629
C           -7.35521772502162       -5.21322336788400        0.52718786064157
H           -6.16530581754291       -4.57827778774529        2.21262430846645
H           -7.16925023530302       -3.30443136429256        1.52150592419174
O           -6.99549799982024       -5.53181783214956       -0.62177467353486
O           -8.32393159480461       -5.64447784048290        1.18581847353493
C           -4.48918120059162       -2.61332946471644        1.27934463641738
C           -3.28123926373383       -2.09317283712844        0.50589774077506
H           -5.12722631181815       -1.76895865250928        1.55893546845716
H           -4.14578287982294       -3.08192846532172        2.20704813628127
C           -2.44677345997478       -1.11454145555529        1.32173821010223
H           -2.65762536146602       -2.94010808702925        0.20635579027711
H           -3.62612349595948       -1.60324635800991       -0.40900551752109
H           -4.67729281835820       -4.46970869855820        0.19557277051129
H           -5.66082135223165       -3.16454963696873       -0.44786567487183
19
 energy: -26.824789632287 gnorm: 0.007993667183 xtb: 6.7.1 (edcfbbe)
C           -5.31016363474602       -3.62160023541523        0.48833559413711
C           -6.50462030209379       -4.13229773261756        1.27984550363418
H           -2.07530987056748       -1.59006756266118        2.22458174770439
H           -1.58904971792231       -0.75361363155933        0.74801933608402
H           -3.04547551447951       -0.25351247865033        1.61151518069938
C           -7.35985482503018       -5.22100331630437        0.51618171330735
H           -6.17187054987295       -4.58021198687243        2.22242160763382
H           -7.17584183774616       -3.30452880426043        1.53292237744241
O           -6.99398913293811       -5.52980635392801       -0.62406123366952
O           -8.32633079749785       -5.65617472694124        1.15821674684748
C           -4.48386935961065       -2.61015682419970        1.28054872450930
C           -3.27712497633364       -2.09322834918782        0.50138992396823
H           -5.12092289633564       -1.76534158563977        1.55934923187963
H           -4.13859991959966       -3.07853287668839        2.20713800058951
C           -2.44395083561379       -1.11201245662517        1.31912471559979
H           -2.65396935001091       -2.94031193514450        0.20464526671761
H           -3.62286528200242       -1.60431766800727       -0.41266783375213
H           -4.68713770949011       -4.47281870628779        0.20564238233590
H           -5.66810448810881       -3.16790576900949       -0.43826498566847
19
 energy: -26.824876585385 gnorm: 0.003644835455 xtb: 6.7.1 (edcfbbe)
C           -5.31262935805526       -3.62124401310289        0.49501578555285
C           -6.50688394438732       -4.13099373703496        1.28616018086906
H           -2.07236421790999       -1.58756039921579        2.22135523578468
H           -1.58729943339784       -0.75246494100051        0.74296091656836
H           -3.04413483413178       -0.25208225051720        1.60673077384328
C           -7.36284673657651       -5.22365967258286        0.50910429867599
H           -6.17768460275137       -4.58476877278006        2.22671162811584
H           -7.18136819663391       -3.30619800457152        1.53819624949454
O           -6.98475352147949       -5.52478123718285       -0.62921534914918
O           -8.33078199593740       -5.66273785997942        1.14554725770622
C           -4.48215528723133       -2.60919536685395        1.28286404697462
C           -3.27613422830542       -2.09383736163738        0.50063117164415
H           -5.11695439969310       -1.76273493524596        1.56174454758789
H           -4.13422235221623       -3.07608856924435        2.20918324578525
C           -2.44161575648493       -1.11044217300475        1.31552829005413
H           -2.65269544215099       -2.94097853299141        0.20499331893150
H           -3.62249910632953       -1.60622488953620       -0.41377962887560
H           -4.69077190340155       -4.47346150958552        0.21271916353205
H           -5.67125568292604       -3.16798877393242       -0.43156713309565
19
 energy: -26.824901064732 gnorm: 0.002083701191 xtb: 6.7.1 (edcfbbe)
C           -5.31408226564621       -3.62086039371940        0.50193705493669
C           -6.50832900063064       -4.13147131272771        1.29104826242355
H           -2.06881668847174       -1.58382430827654        2.21760719454237
H           -1.58760503703508       -0.75319362370537        0.73497803949782
H           -3.04268076154453       -0.24990568620497        1.60080231298476
C           -7.36159498126524       -5.22780858622443        0.50343112434764
H           -6.18223808631447       -4.58995687569035        2.22980898059888
H           -7.18589873596142       -3.30949320151799        1.54211817762091
O           -6.97530579343945       -5.51624981867754       -0.63594236879509
O           -8.33592001620413       -5.66324856295827        1.13259626937593
C           -4.48151716141693       -2.60824064001632        1.28772834729633
C           -3.27696794101423       -2.09565054394672        0.50069555545802
H           -5.11422050807506       -1.76012193415412        1.56683694789620
H           -4.13090619970584       -3.07365756563229        2.21393798277736
C           -2.44075118648769       -1.10954230345961        1.31099346226841
H           -2.65341236937970       -2.94329714718924        0.20622796619106
H           -3.62464485520307       -1.61043454515955       -0.41466387991891
H           -4.69179169092686       -4.47302918819901        0.21974300209670
H           -5.67236772127768       -3.16745676254057       -0.42500043159867
19
 energy: -26.824903311648 gnorm: 0.002643216845 xtb: 6.7.1 (edcfbbe)
C           -5.31453217387091       -3.62035041869889        0.50558919295718
C           -6.50977762702972       -4.13145311056193        1.29207234387499
H           -2.06619415109579       -1.58091176511176        2.21522618095374
H           -1.58845179066743       -0.75417892527186        0.72909800822111
H           -3.04160739130022       -0.24835277532664        1.59696202372977
C           -7.36509691846805       -5.22340603117255        0.49707166178274
H           -6.18572840766214       -4.59414024152332        2.22935636899552
H           -7.18710107873796       -3.31008590687951        1.54438987021850
O           -6.96775820431682       -5.51477481115618       -0.63788004590005
O           -8.33504669879460       -5.66552148097028        1.12798676116140
C           -4.48138683915463       -2.60814910980306        1.29162485420359
C           -3.27800623659736       -2.09713478647519        0.50163187834115
H           -5.11305011468421       -1.75930825057481        1.57120605254865
H           -4.12961283385082       -3.07325012793434        2.21764711252500
C           -2.44051289541136       -1.10911239559669        1.30804520232857
H           -2.65462330639961       -2.94529116146019        0.20780820831277
H           -3.62705686532140       -1.61393602014346       -0.41442563163125
H           -4.69179545991436       -4.47223935935789        0.22287511700283
H           -5.67171200672257       -3.16584632198147       -0.42140115962627
19
 energy: -26.824914002853 gnorm: 0.000683488157 xtb: 6.7.1 (edcfbbe)
C           -5.31390118421042       -3.62049604517436        0.50493394578172
C           -6.50924739976628       -4.13247245530656        1.29101766823721
H           -2.06608509344384       -1.58026312061448        2.21526263188400
H           -1.58858408932183       -0.75417748263257        0.72882349450985
H           -3.04140638811403       -0.24798718319309        1.59686092863765
C           -7.36324248725677       -5.22458332756727        0.49872509372290
H           -6.18459253093436       -4.59394335533044        2.22876337191375
H           -7.18634688002590       -3.31077014063807        1.54367523746407
O           -6.97078855754147       -5.51463786797019       -0.63784821784850
O           -8.33579298206544       -5.66277741343715        1.12830245425682
C           -4.48167238709720       -2.60836057547800        1.29169380633349
C           -3.27821582813972       -2.09692376483309        0.50242766441137
H           -5.11397398210354       -1.76006653486187        1.57126983927560
H           -4.13050497183038       -3.07380057850550        2.21770995021742
C           -2.44047067214444       -1.10878096335744        1.30806751302849
H           -2.65512595331743       -2.94529812082901        0.20875339052801
H           -3.62759932704115       -1.61420656166261       -0.41370410533032
H           -4.69069018699150       -4.47196334635984        0.22222506953854
H           -5.67081009865429       -3.16593416224849       -0.42207573656212
19
 energy: -26.824917592966 gnorm: 0.000427824471 xtb: 6.7.1 (edcfbbe)
C           -5.31338885183332       -3.62055192657390        0.50684041060101
C           -6.50939425722315       -4.13390454378611        1.29107256490841
H           -2.06420779663545       -1.57681074164261        2.21368401523935
H           -1.58944051711286       -0.75449723715802        0.72436250172648
H           -3.04064679040203       -0.24620318880380        1.59368754142178
C           -7.36261532762818       -5.22382662233619        0.49681467833541
H           -6.18531526994368       -4.59694059056357        2.22830541304553
H           -7.18619680272411       -3.31227011269368        1.54516412040996
O           -6.96982578386164       -5.51268271657706       -0.63974761031500
O           -8.33763438855621       -5.66018167015659        1.12387664289049
C           -4.48169734894290       -2.60864710919646        1.29438136633641
C           -3.27894407504473       -2.09769359887662        0.50394189381398
H           -5.11409672971260       -1.76055406073115        1.57427193369816
H           -4.13040354090880       -3.07427397510365        2.22023033524635
C           -2.44027475114859       -1.10771234856077        1.30597618456240
H           -2.65614889326682       -2.94661039295170        0.21118828604563
H           -3.62972515852648       -1.61716668108374       -0.41280924824741
H           -4.68957281701833       -4.47151421146602        0.22385076326576
H           -5.66952189951010       -3.16540127173837       -0.42020779298474
