 Entering Gaussian System
 *********************************************
 Gaussian 98:
 frequency output generated by the xtb code
 *********************************************
                         Standard orientation:
 --------------------------------------------------------------------
  Center     Atomic     Atomic              Coordinates (Angstroms)
  Number     Number      Type              X           Y           Z
 --------------------------------------------------------------------
    1          6             0       -1.551374   -0.147118    0.454749
    2          6             0       -2.434016    1.188787    0.050537
    3          9             0       -2.179955   -1.308372    0.122557
    4          9             0       -0.339500   -0.215785   -0.151717
    5          9             0       -1.287458   -0.255489    1.781428
    6          8             0       -3.195870    1.534276    0.937241
    7          8             0       -2.182894    1.596820   -1.070334
 --------------------------------------------------------------------
     1 basis functions        1 primitive gaussians
     1 alpha electrons        1 beta electrons
 
 Harmonic frequencies (cm**-1), IR intensities (km*mol⁻¹),
 Raman scattering activities (A**4/amu), Raman depolarization ratios,
 reduced masses (AMU), force constants (mDyne/A) and normal coordinates:
                      1                      2                      3
                        a                      a                      a 
 Frequencies --     3.4157               161.1585               185.8327
 Red. masses --    16.9429                17.6772                17.9627
 Frc consts  --     0.0000                 0.0000                 0.0000
 IR Inten    --     0.0309                 2.3063                 9.4089
 Raman Activ --     0.0000                 0.0000                 0.0000
 Depolar     --     0.0000                 0.0000                 0.0000
 Atom AN      X      Y      Z        X      Y      Z        X      Y      Z
   1   6     0.00  -0.00  -0.01     0.08   0.01  -0.16    -0.19  -0.17  -0.10
   2   6     0.00  -0.00  -0.01     0.03   0.00  -0.05    -0.01   0.01  -0.01
   3   9    -0.14  -0.01   0.29     0.01   0.01  -0.04     0.33  -0.62   0.14
   4   9    -0.12  -0.19  -0.24     0.29  -0.45   0.15    -0.24   0.19  -0.15
   5   9     0.26   0.19  -0.04    -0.30   0.44  -0.12    -0.28   0.20  -0.10
   6   8    -0.40  -0.37  -0.21     0.19  -0.31   0.21     0.20   0.19   0.10
   7   8     0.40   0.37   0.22    -0.29   0.30  -0.02     0.19   0.19   0.11
                      4                      5                      6
                        a                      a                      a 
 Frequencies --   304.1950               399.1863               452.6747
 Red. masses --    16.5366                17.6723                18.3433
 Frc consts  --     0.0000                 0.0000                 0.0000
 IR Inten    --    21.5950                 6.4562                15.2245
 Raman Activ --     0.0000                 0.0000                 0.0000
 Depolar     --     0.0000                 0.0000                 0.0000
 Atom AN      X      Y      Z        X      Y      Z        X      Y      Z
   1   6     0.06  -0.07   0.03    -0.03  -0.00   0.06     0.19   0.16   0.10
   2   6    -0.22   0.32  -0.10    -0.11  -0.01   0.22     0.09   0.08   0.05
   3   9     0.21  -0.23   0.10     0.24   0.01  -0.51     0.37   0.25   0.18
   4   9     0.17  -0.32   0.13    -0.13  -0.38  -0.05    -0.06  -0.18  -0.55
   5   9     0.21  -0.32   0.05     0.13   0.38   0.08    -0.46  -0.19   0.29
   6   8    -0.23   0.37  -0.16    -0.25   0.27   0.05    -0.04  -0.04  -0.02
   7   8    -0.28   0.36  -0.07     0.12  -0.28   0.22    -0.04  -0.04  -0.02
                      7                      8                      9
                        a                      a                      a 
 Frequencies --   530.7157               622.3615               692.5261
 Red. masses --    17.2878                17.6684                14.1250
 Frc consts  --     0.0000                 0.0000                 0.0000
 IR Inten    --     0.0189                 1.4529               268.3218
 Raman Activ --     0.0000                 0.0000                 0.0000
 Depolar     --     0.0000                 0.0000                 0.0000
 Atom AN      X      Y      Z        X      Y      Z        X      Y      Z
   1   6     0.12   0.01  -0.23    -0.23   0.34  -0.10     0.03  -0.05   0.01
   2   6    -0.11  -0.01   0.22     0.04  -0.03   0.02     0.42  -0.51   0.20
   3   9    -0.13   0.00   0.28     0.40   0.24   0.20     0.02   0.04   0.01
   4   9     0.49   0.04  -0.10    -0.36  -0.20   0.32    -0.06   0.01   0.03
   5   9    -0.23  -0.03  -0.44     0.04  -0.18  -0.49    -0.01   0.01  -0.07
   6   8    -0.25   0.26   0.06     0.01  -0.06   0.08     0.03   0.22  -0.45
   7   8     0.11  -0.27   0.23     0.07  -0.06  -0.04    -0.35   0.19   0.30
                     10                     11                     12
                        a                      a                      a 
 Frequencies --   715.1265              1009.6130              1042.2727
 Red. masses --    13.0890                13.7938                13.5218
 Frc consts  --     0.0000                 0.0000                 0.0000
 IR Inten    --    72.5442               288.4459               261.5079
 Raman Activ --     0.0000                 0.0000                 0.0000
 Depolar     --     0.0000                 0.0000                 0.0000
 Atom AN      X      Y      Z        X      Y      Z        X      Y      Z
   1   6    -0.01  -0.01  -0.01     0.60   0.52   0.32    -0.40  -0.02   0.79
   2   6     0.60   0.57   0.32    -0.08  -0.07  -0.04     0.03   0.00  -0.06
   3   9    -0.06  -0.22  -0.03    -0.19  -0.36  -0.10     0.03   0.01  -0.05
   4   9    -0.07   0.04   0.05    -0.19  -0.02   0.05     0.28  -0.02  -0.17
   5   9    -0.01   0.04  -0.09    -0.07  -0.01  -0.19    -0.03   0.03  -0.32
   6   8    -0.19  -0.17  -0.06     0.02   0.02   0.01     0.04  -0.04  -0.01
   7   8    -0.16  -0.17  -0.13     0.02   0.02   0.01    -0.01   0.04  -0.03
                     13                     14                     15
                        a                      a                      a 
 Frequencies --  1121.0264              1297.0544              1914.7015
 Red. masses --    13.9864                15.0337                13.2161
 Frc consts  --     0.0000                 0.0000                 0.0000
 IR Inten    --    44.5589               291.9192               746.8283
 Raman Activ --     0.0000                 0.0000                 0.0000
 Depolar     --     0.0000                 0.0000                 0.0000
 Atom AN      X      Y      Z        X      Y      Z        X      Y      Z
   1   6    -0.46   0.66  -0.21    -0.02   0.03  -0.01     0.01   0.00  -0.02
   2   6     0.07  -0.10   0.03    -0.27   0.40  -0.12     0.38   0.02  -0.75
   3   9    -0.08  -0.27  -0.05     0.01   0.03   0.01    -0.00  -0.00   0.00
   4   9     0.29  -0.07  -0.11    -0.03   0.00   0.02    -0.01   0.00   0.01
   5   9     0.09  -0.07   0.29    -0.01   0.01  -0.04     0.00  -0.00   0.01
   6   8     0.04  -0.02  -0.03     0.39  -0.19  -0.43    -0.24   0.11   0.28
   7   8    -0.00  -0.02   0.05    -0.11  -0.22   0.56    -0.08  -0.13   0.36
