      -----------------------------------------------------------      
     |                   =====================                   |     
     |                           x T B                           |     
     |                   =====================                   |     
     |                         S. Grimme                         |     
     |          Mulliken Center for Theoretical Chemistry        |     
     |                    University of Bonn                     |     
      -----------------------------------------------------------      

   * xtb version 6.7.1 (edcfbbe) compiled by 'albert@albert-system' on 2024-07-22

   xtb is free software: you can redistribute it and/or modify it under
   the terms of the GNU Lesser General Public License as published by
   the Free Software Foundation, either version 3 of the License, or
   (at your option) any later version.
   
   xtb is distributed in the hope that it will be useful,
   but WITHOUT ANY WARRANTY; without even the implied warranty of
   MERCHANTABILITY or FITNESS FOR A PARTICULAR PURPOSE.  See the
   GNU Lesser General Public License for more details.
   
   Cite this work as:
   * C. Bannwarth, E. Caldeweyher, S. Ehlert, A. Hansen, P. Pracht,
     J. Seibert, S. Spicher, S. Grimme, WIREs Comput. Mol. Sci., 2020, 11,
     e01493. DOI: 10.1002/wcms.1493
   
   for GFN2-xTB:
   * C. Bannwarth, S. Ehlert and S. Grimme., J. Chem. Theory Comput., 2019,
     15, 1652-1671. DOI: 10.1021/acs.jctc.8b01176
   for GFN1-xTB:
   * S. Grimme, C. Bannwarth, P. Shushkov, J. Chem. Theory Comput., 2017,
     13, 1989-2009. DOI: 10.1021/acs.jctc.7b00118
   for GFN0-xTB:
   * P. Pracht, E. Caldeweyher, S. Ehlert, S. Grimme, ChemRxiv, 2019, preprint.
     DOI: 10.26434/chemrxiv.8326202.v1
   for GFN-FF:
   * S. Spicher and S. Grimme, Angew. Chem. Int. Ed., 2020, 59, 15665-15673.
     DOI: 10.1002/anie.202004239
   
   for ALPB and GBSA implicit solvation:
   * S. Ehlert, M. Stahn, S. Spicher, S. Grimme, J. Chem. Theory Comput.,
     2021, 17, 4250-4261. DOI: 10.1021/acs.jctc.1c00471
   
   for ddCOSMO and CPCM-X implicit solvation:
   * M. Stahn, S. Ehlert, S. Grimme, J. Phys. Chem. A,
     2023, XX, XXXX-XXXX. DOI: 10.1021/acs.jpca.3c04382
   
   for DFT-D4:
   * E. Caldeweyher, C. Bannwarth and S. Grimme, J. Chem. Phys., 2017,
     147, 034112. DOI: 10.1063/1.4993215
   * E. Caldeweyher, S. Ehlert, A. Hansen, H. Neugebauer, S. Spicher,
     C. Bannwarth and S. Grimme, J. Chem. Phys., 2019, 150, 154122.
     DOI: 10.1063/1.5090222
   * E. Caldeweyher, J.-M. Mewes, S. Ehlert and S. Grimme, Phys. Chem. Chem. Phys.
     2020, 22, 8499-8512. DOI: 10.1039/D0CP00502A
   
   for sTDA-xTB:
   * S. Grimme and C. Bannwarth, J. Chem. Phys., 2016, 145, 054103.
     DOI: 10.1063/1.4959605
   
   in the mass-spec context:
   * V. Asgeirsson, C. Bauer and S. Grimme, Chem. Sci., 2017, 8, 4879.
     DOI: 10.1039/c7sc00601b
   * J. Koopman and S. Grimme, ACS Omega 2019, 4, 12, 15120-15133.
     DOI: 10.1021/acsomega.9b02011
   
   for metadynamics refer to:
   * S. Grimme, J. Chem. Theory Comput., 2019, 155, 2847-2862
     DOI: 10.1021/acs.jctc.9b00143
   
   for SPH calculations refer to:
   * S. Spicher and S. Grimme, J. Chem. Theory Comput., 2021, 17, 1701-1714
     DOI: 10.1021/acs.jctc.0c01306
   
   for ONIOM refer to:
   * C. Plett, A. Katbashev, S. Ehlert, S. Grimme, M. Bursch,
     Phys. Chem. Chem. Phys., 2023, 25, 17860-17868. DOI: 10.1039/D3CP02178E
   
   for DIPRO refer to:
   * J. Kohn, N. Gildemeister, S. Grimme, D. Fazzi, A. Hansen,
     J. Chem. Phys., 2023, just accepted.
   
   for PTB refer to:
   * S. Grimme, M. Mueller, A. Hansen, J. Chem. Phys., 2023, 158, 124111.
     DOI: 10.1063/5.0137838
   
   with help from (in alphabetical order)
   P. Atkinson, C. Bannwarth, F. Bohle, G. Brandenburg, E. Caldeweyher
   M. Checinski, S. Dohm, S. Ehlert, S. Ehrlich, I. Gerasimov, C. Hölzer
   A. Katbashev, J. Kohn, J. Koopman, C. Lavigne, S. Lehtola, F. März, M. Müller,
   F. Musil, H. Neugebauer, J. Pisarek, C. Plett, P. Pracht, F. Pultar,
   J. Seibert, P. Shushkov, S. Spicher, M. Stahn, M. Steiner, T. Strunk,
   J. Stückrath, T. Rose, and J. Unsleber
   
 * started run on 2025/10/18 at 19:01:33.432     
   ID    Z sym.   atoms
    1    6 C      1, 2
    2    9 F      3-5
    3    8 O      6, 7

           -------------------------------------------------
          |                Calculation Setup                |
           -------------------------------------------------

          program call               : xtb xyz.xyz --charge -1 --ohess
          hostname                   : m003
          coordinate file            : xyz.xyz
          omp threads                :                     2


molecular fragmentation (1/2 indicates fragments):
1211122
# atoms in fragment 1/2:     4     3
 fragment masses (1/2) :       69.01       44.01
CMA distance (Bohr)    :   7.218
constraining FC (au)   :  0.0500

           -------------------------------------------------
          |                 G F N 2 - x T B                 |
           -------------------------------------------------

        Reference                      10.1021/acs.jctc.8b01176
      * Hamiltonian:
        H0-scaling (s, p, d)           1.850000    2.230000    2.230000
        zeta-weighting                 0.500000
      * Dispersion:
        s8                             2.700000
        a1                             0.520000
        a2                             5.000000
        s9                             5.000000
      * Repulsion:
        kExp                           1.500000    1.000000
        rExp                           1.000000
      * Coulomb:
        alpha                          2.000000
        third order                    shell-resolved
        anisotropic                    true
        a3                             3.000000
        a5                             4.000000
        cn-shift                       1.200000
        cn-exp                         4.000000
        max-rad                        5.000000


          ...................................................
          :                      SETUP                      :
          :.................................................:
          :  # basis functions                  28          :
          :  # atomic orbitals                  28          :
          :  # shells                           14          :
          :  # electrons                        42          :
          :  max. iterations                   250          :
          :  Hamiltonian                  GFN2-xTB          :
          :  restarted?                      false          :
          :  GBSA solvation                  false          :
          :  PC potential                    false          :
          :  electronic temp.          300.0000000     K    :
          :  accuracy                    1.0000000          :
          :  -> integral cutoff          0.2500000E+02      :
          :  -> integral neglect         0.1000000E-07      :
          :  -> SCF convergence          0.1000000E-05 Eh   :
          :  -> wf. convergence          0.1000000E-03 e    :
          :  Broyden damping             0.4000000          :
          :  net charge                         -1          :
          :  unpaired electrons                  0          :
          ...................................................

 iter      E             dE          RMSdq      gap      omega  full diag
   1    -26.8961056 -0.268961E+02  0.756E+00    4.38       0.0  T
   2    -26.9401355 -0.440300E-01  0.415E+00    1.06       1.0  T
   3    -26.0161069  0.924029E+00  0.935E+00    0.01       1.0  T
   4    -26.9240887 -0.907982E+00  0.303E+00    2.60       1.0  T
   5    -26.9409167 -0.168280E-01  0.125E+00    1.18       1.0  T
   6    -26.9431032 -0.218651E-02  0.952E-01    0.82       1.0  T
   7    -26.9456535 -0.255028E-02  0.699E-01    0.53       1.0  T
   8    -26.9454282  0.225300E-03  0.733E-01    0.55       1.0  T
   9    -26.1488692  0.796559E+00  0.917E+00    0.01       1.0  T
  10    -26.9396841 -0.790815E+00  0.141E+00    1.67       1.0  T
  11    -26.9414716 -0.178754E-02  0.114E+00    1.14       1.0  T
  12    -26.9414955 -0.238669E-04  0.114E+00    1.14       1.0  T
  13    -26.9441598 -0.266430E-02  0.845E-01    0.67       1.0  T
  14    -26.9478684 -0.370865E-02  0.444E-01    0.38       1.0  T
  15    -26.8867313  0.611372E-01  0.260E+00    0.12       1.0  T
  16    -26.9441614 -0.574302E-01  0.847E-01    0.67       1.0  T
  17    -26.9474203 -0.325883E-02  0.498E-01    0.40       1.0  T
  18    -26.9437357  0.368459E-02  0.812E-01    0.19       1.0  T
  19    -26.9489809 -0.524519E-02  0.268E-01    0.23       1.0  T
  20    -26.9445222  0.445870E-02  0.748E-01    0.19       1.0  T
  21    -26.9493834 -0.486127E-02  0.126E-01    0.29       1.0  T
  22    -26.9495220 -0.138540E-03  0.227E-02    0.27       1.7  T
  23    -26.9494196  0.102409E-03  0.111E-01    0.25       1.0  T
  24    -26.9494932 -0.736575E-04  0.601E-02    0.26       1.0  T
  25    -26.9495223 -0.290647E-04  0.105E-02    0.26       3.6  T
  26    -26.9495197  0.256268E-05  0.193E-02    0.27       2.0  T
  27    -26.9495215 -0.177006E-05  0.131E-02    0.27       2.9  T
  28    -26.9495230 -0.145934E-05  0.230E-03    0.26      16.4  T
  29    -26.9495230 -0.270560E-07  0.145E-03    0.26      26.1  T
  30    -26.9495230 -0.971645E-08  0.984E-04    0.26      38.4  T
  31    -26.9495230 -0.831907E-08  0.770E-05    0.26     490.7  T

   *** convergence criteria satisfied after 31 iterations ***

         #    Occupation            Energy/Eh            Energy/eV
      -------------------------------------------------------------
         1        2.0000           -0.6462509             -17.5854
       ...           ...                  ...                  ...
        15        2.0000           -0.3237826              -8.8106
        16        2.0000           -0.2831485              -7.7049
        17        2.0000           -0.2830712              -7.7028
        18        2.0000           -0.2728703              -7.4252
        19        2.0000           -0.2728119              -7.4236
        20        2.0000           -0.2727630              -7.4223
        21        1.9875           -0.0704861              -1.9180 (HOMO)
        22        0.0117           -0.0607897              -1.6542 (LUMO)
        23        0.0008           -0.0582763              -1.5858
        24                          0.3955143              10.7625
        25                          0.4613891              12.5550
        26                          0.4625813              12.5875
       ...                                ...                  ...
        28                          1.5274195              41.5632
      -------------------------------------------------------------
                  HL-Gap            0.0096963 Eh            0.2639 eV
             Fermi-level           -0.0656708 Eh           -1.7870 eV

 SCC (total)                   0 d,  0 h,  0 min,  0.036 sec
 SCC setup                      ...        0 min,  0.000 sec (  0.594%)
 Dispersion                     ...        0 min,  0.000 sec (  0.211%)
 classical contributions        ...        0 min,  0.000 sec (  0.114%)
 integral evaluation            ...        0 min,  0.001 sec (  2.389%)
 iterations                     ...        0 min,  0.034 sec ( 93.162%)
 molecular gradient             ...        0 min,  0.001 sec (  3.078%)
 printout                       ...        0 min,  0.000 sec (  0.341%)

         :::::::::::::::::::::::::::::::::::::::::::::::::::::
         ::                     SUMMARY                     ::
         :::::::::::::::::::::::::::::::::::::::::::::::::::::
         :: total energy             -26.789412746459 Eh    ::
         :: gradient norm              0.213298047910 Eh/a0 ::
         :: HOMO-LUMO gap              0.263851101626 eV    ::
         ::.................................................::
         :: SCC energy               -26.949518906009 Eh    ::
         :: -> isotropic ES            0.186436807982 Eh    ::
         :: -> anisotropic ES         -0.006836831441 Eh    ::
         :: -> anisotropic XC         -0.015680984030 Eh    ::
         :: -> dispersion             -0.003079797988 Eh    ::
         :: repulsion energy           0.160106159550 Eh    ::
         :: add. restraining           0.000000000000 Eh    ::
         :: total charge              -1.000000000000 e     ::
         :::::::::::::::::::::::::::::::::::::::::::::::::::::

      ----------------------------------------------------------- 
     |                   =====================                   |
     |                        A N C O P T                        |
     |                   =====================                   |
     |               Approximate Normal Coordinate               |
     |                Rational Function Optimizer                |
      ----------------------------------------------------------- 
      ----------------------------------------------------------- 
     |                   =====================                   |
     |                        A N C O P T                        |
     |                   =====================                   |
     |               Approximate Normal Coordinate               |
     |                Rational Function Optimizer                |
      ----------------------------------------------------------- 

          ...................................................
          :                      SETUP                      :
          :.................................................:
          :   optimization level            normal          :
          :   max. optcycles                   200          :
          :   ANC micro-cycles                  20          :
          :   degrees of freedom                15          :
          :.................................................:
          :   RF solver                   davidson          :
          :   write xtbopt.log                true          :
          :   linear?                        false          :
          :   energy convergence         0.5000000E-05 Eh   :
          :   grad. convergence          0.1000000E-02 Eh/α :
          :   maxmium RF displ.          1.0000000          :
          :   Hlow (freq-cutoff)         0.1000000E-01      :
          :   Hmax (freq-cutoff)         5.0000000          :
          :   S6 in model hess.         20.0000000          :
          ...................................................

generating ANC from exact Hessian ...
Using Lindh-Hessian (1995)
 Shifting diagonal of input Hessian by   9.591922057077202E-003
 Lowest  eigenvalues of input Hessian
    0.000000    0.000000    0.000000    0.000000    0.000000    0.000000
    0.010000    0.010242    0.010304    0.010561    0.010649    0.010703
    0.202201    0.292550    0.293254    0.987718    1.138792    1.252928
 Highest eigenvalues
    0.987718    1.138792    1.252928    1.828342    1.830694    3.266562
 

........................................................................
.............................. CYCLE    1 ..............................
........................................................................

 iter      E             dE          RMSdq      gap      omega  full diag
   1    -26.9495230 -0.269495E+02  0.761E-05    0.26       0.0  T
   2    -26.9495230  0.172442E-08  0.443E-04    0.26      85.3  T
   3    -26.9495230 -0.177024E-08  0.152E-05    0.26    2478.8  T
     SCC iter.                  ...        0 min,  0.001 sec
     gradient                   ...        0 min,  0.001 sec
 * total energy  :   -26.7894127 Eh     change       -0.5200462E-10 Eh
   gradient norm :     0.2132933 Eh/α   predicted     0.0000000E+00 (-100.00%)
   displ. norm   :     0.3686452 α      lambda       -0.6302215E-01
   maximum displ.:     0.3175042 α      in ANC's #7, #10, #11, ...

........................................................................
.............................. CYCLE    2 ..............................
........................................................................

 iter      E             dE          RMSdq      gap      omega  full diag
   1    -26.9575610 -0.269576E+02  0.151E+00    1.69       0.0  T
   2    -26.9583374 -0.776393E-03  0.895E-01    1.03       1.0  T
   3    -26.9585607 -0.223315E-03  0.294E-01    0.61       1.0  T
   4    -26.9587020 -0.141286E-03  0.138E-01    0.66       1.0  T
   5    -26.9587272 -0.251574E-04  0.273E-02    0.71       1.4  T
   6    -26.9587278 -0.668382E-06  0.739E-03    0.70       5.1  T
   7    -26.9587276  0.237699E-06  0.777E-03    0.71       4.9  T
   8    -26.9587278 -0.252491E-06  0.191E-03    0.71      19.8  T
   9    -26.9587279 -0.193099E-07  0.191E-04    0.71     197.5  T
  10    -26.9587279  0.989893E-10  0.192E-04    0.71     196.7  T
     SCC iter.                  ...        0 min,  0.002 sec
     gradient                   ...        0 min,  0.001 sec
 * total energy  :   -26.8297253 Eh     change       -0.4031251E-01 Eh
   gradient norm :     0.0613925 Eh/α   predicted    -0.3579341E-01 ( -11.21%)
   displ. norm   :     0.2094182 α      lambda       -0.6667263E-02
   maximum displ.:     0.1663012 α      in ANC's #2, #7, #10, ...

........................................................................
.............................. CYCLE    3 ..............................
........................................................................

 iter      E             dE          RMSdq      gap      omega  full diag
   1    -26.9676174 -0.269676E+02  0.455E-01    1.62       0.0  T
   2    -26.9677505 -0.133111E-03  0.276E-01    1.47       1.0  T
   3    -26.9677620 -0.115105E-04  0.123E-01    1.41       1.0  T
   4    -26.9677818 -0.198323E-04  0.235E-02    1.35       1.6  T
   5    -26.9677824 -0.626408E-06  0.790E-03    1.37       4.8  T
   6    -26.9677826 -0.125821E-06  0.302E-03    1.38      12.5  T
   7    -26.9677826  0.427725E-09  0.134E-03    1.38      28.2  T
   8    -26.9677826 -0.301257E-08  0.113E-04    1.38     335.1  T
   9    -26.9677826 -0.356337E-11  0.428E-05    1.38     884.1  T
     SCC iter.                  ...        0 min,  0.002 sec
     gradient                   ...        0 min,  0.001 sec
 * total energy  :   -26.8328407 Eh     change       -0.3115484E-02 Eh
   gradient norm :     0.0199449 Eh/α   predicted    -0.3479834E-02 (  11.69%)
   displ. norm   :     0.2245732 α      lambda       -0.1256974E-02
   maximum displ.:     0.2200561 α      in ANC's #2, #7, #6, ...

........................................................................
.............................. CYCLE    4 ..............................
........................................................................

 iter      E             dE          RMSdq      gap      omega  full diag
   1    -26.9695786 -0.269696E+02  0.943E-02    1.44       0.0  T
   2    -26.9695835 -0.489432E-05  0.536E-02    1.48       1.0  T
   3    -26.9695847 -0.120634E-05  0.136E-02    1.50       2.8  T
   4    -26.9695849 -0.144515E-06  0.700E-03    1.51       5.4  T
   5    -26.9695849 -0.478514E-07  0.126E-03    1.50      30.0  T
   6    -26.9695849 -0.154971E-08  0.683E-04    1.50      55.3  T
   7    -26.9695849 -0.207816E-09  0.112E-04    1.50     337.1  T
     SCC iter.                  ...        0 min,  0.001 sec
     gradient                   ...        0 min,  0.001 sec
 * total energy  :   -26.8339641 Eh     change       -0.1123396E-02 Eh
   gradient norm :     0.0166427 Eh/α   predicted    -0.6601829E-03 ( -41.23%)
   displ. norm   :     0.5228370 α      lambda       -0.2390966E-02
   maximum displ.:     0.5159611 α      in ANC's #2, #7, #12, ...

........................................................................
.............................. CYCLE    5 ..............................
........................................................................

 iter      E             dE          RMSdq      gap      omega  full diag
   1    -26.9695212 -0.269695E+02  0.282E-01    1.63       0.0  T
   2    -26.9696722 -0.150988E-03  0.126E-01    1.83       1.0  T
   3    -26.9696904 -0.182757E-04  0.573E-02    1.83       1.0  T
   4    -26.9696976 -0.721557E-05  0.217E-02    1.87       1.7  T
   5    -26.9696977 -0.438098E-07  0.710E-03    1.87       5.3  T
   6    -26.9696978 -0.989248E-07  0.223E-03    1.87      16.9  T
   7    -26.9696978 -0.301838E-08  0.122E-03    1.87      31.0  T
   8    -26.9696978 -0.524792E-08  0.986E-05    1.87     383.2  T
   9    -26.9696978 -0.179625E-10  0.180E-05    1.87    2095.7  T
     SCC iter.                  ...        0 min,  0.002 sec
     gradient                   ...        0 min,  0.001 sec
 * total energy  :   -26.8362547 Eh     change       -0.2290556E-02 Eh
   gradient norm :     0.0200871 Eh/α   predicted    -0.1522276E-02 ( -33.54%)
   displ. norm   :     0.9515114 α      lambda       -0.4487524E-02
   maximum displ.:     0.9407291 α      in ANC's #2, #7, #12, ...

........................................................................
.............................. CYCLE    6 ..............................
........................................................................

 iter      E             dE          RMSdq      gap      omega  full diag
   1    -26.9633478 -0.269633E+02  0.112E+00    2.11       0.0  T
   2    -26.9667574 -0.340966E-02  0.430E-01    2.91       1.0  T
   3    -26.9676456 -0.888195E-03  0.164E-01    2.73       1.0  T
   4    -26.9677191 -0.734171E-04  0.530E-02    2.83       1.0  T
   5    -26.9677200 -0.929599E-06  0.214E-02    2.85       1.8  T
   6    -26.9677205 -0.550192E-06  0.961E-03    2.84       3.9  T
   7    -26.9677208 -0.220815E-06  0.396E-03    2.83       9.5  T
   8    -26.9677208 -0.621893E-07  0.255E-04    2.84     148.3  T
   9    -26.9677208 -0.116923E-09  0.489E-05    2.84     773.6  T
     SCC iter.                  ...        0 min,  0.002 sec
     gradient                   ...        0 min,  0.001 sec
 * total energy  :   -26.8414554 Eh     change       -0.5200696E-02 Eh
   gradient norm :     0.0447607 Eh/α   predicted    -0.4275230E-02 ( -17.80%)
   displ. norm   :     0.8825883 α      lambda       -0.6190435E-02
   maximum displ.:     0.8729123 α      in ANC's #2, #12, #7, ...

........................................................................
.............................. CYCLE    7 ..............................
........................................................................

 iter      E             dE          RMSdq      gap      omega  full diag
   1    -26.9524430 -0.269524E+02  0.174E+00    3.02       0.0  T
   2    -26.9615207 -0.907768E-02  0.734E-01    4.13       1.0  T
   3    -26.9642826 -0.276193E-02  0.225E-01    3.88       1.0  T
   4    -26.9644378 -0.155190E-03  0.608E-02    4.02       1.0  T
   5    -26.9644378  0.556705E-08  0.299E-02    4.04       1.3  T
   6    -26.9644389 -0.106131E-05  0.106E-02    4.04       3.6  T
   7    -26.9644393 -0.410760E-06  0.209E-03    4.03      18.1  T
   8    -26.9644393 -0.836363E-08  0.849E-04    4.03      44.5  T
   9    -26.9644393 -0.261167E-08  0.113E-04    4.03     334.7  T
     SCC iter.                  ...        0 min,  0.002 sec
     gradient                   ...        0 min,  0.001 sec
 * total energy  :   -26.8473682 Eh     change       -0.5912829E-02 Eh
   gradient norm :     0.0798140 Eh/α   predicted    -0.5506246E-02 (  -6.88%)
   displ. norm   :     0.6430765 α      lambda       -0.1375853E-01
   maximum displ.:     0.6081472 α      in ANC's #2, #12, #6, ...

........................................................................
.............................. CYCLE    8 ..............................
........................................................................

 iter      E             dE          RMSdq      gap      omega  full diag
   1    -26.9317439 -0.269317E+02  0.224E+00    3.78       0.0  T
   2    -26.9512910 -0.195471E-01  0.109E+00    4.96       1.0  T
   3    -26.9565306 -0.523960E-02  0.333E-01    4.74       1.0  T
   4    -26.9567833 -0.252761E-03  0.135E-01    4.91       1.0  T
   5    -26.9567853 -0.195252E-05  0.568E-02    4.92       1.0  T
   6    -26.9567901 -0.479787E-05  0.889E-03    4.92       4.3  T
   7    -26.9567904 -0.357764E-06  0.205E-03    4.91      18.5  T
   8    -26.9567905 -0.397664E-08  0.608E-04    4.91      62.2  T
   9    -26.9567905 -0.896367E-09  0.786E-05    4.91     481.1  T
     SCC iter.                  ...        0 min,  0.002 sec
     gradient                   ...        0 min,  0.001 sec
 * total energy  :   -26.8601250 Eh     change       -0.1275681E-01 Eh
   gradient norm :     0.0855025 Eh/α   predicted    -0.9724188E-02 ( -23.77%)
   displ. norm   :     0.8908641 α      lambda       -0.6685568E-01
   maximum displ.:     0.7520465 α      in ANC's #12, #10, #7, ...

........................................................................
.............................. CYCLE    9 ..............................
........................................................................

 iter      E             dE          RMSdq      gap      omega  full diag
   1    -26.8034762 -0.268035E+02  0.287E+00    2.84       0.0  T
   2    -26.8453496 -0.418734E-01  0.183E+00    3.36       1.0  T
   3    -26.8574076 -0.120579E-01  0.101E+00    2.91       1.0  T
   4    -26.8584758 -0.106823E-02  0.508E-01    3.02       1.0  T
   5    -26.8588238 -0.348009E-03  0.224E-01    2.92       1.0  T
   6    -26.8588931 -0.693140E-04  0.176E-02    2.95       2.2  T
   7    -26.8588946 -0.143785E-05  0.687E-03    2.95       5.5  T
   8    -26.8588947 -0.126577E-06  0.274E-03    2.95      13.8  T
   9    -26.8588947 -0.488711E-08  0.178E-04    2.95     212.0  T
  10    -26.8588947 -0.131450E-11  0.721E-05    2.95     524.1  T
     SCC iter.                  ...        0 min,  0.002 sec
     gradient                   ...        0 min,  0.001 sec
 * total energy  :   -26.7891686 Eh     change        0.7095645E-01 Eh
   gradient norm :     0.2954970 Eh/α   predicted    -0.5995756E-01 (-184.50%)
   displ. norm   :     0.4907718 α      lambda       -0.1322201E+00
   maximum displ.:     0.4150374 α      in ANC's #12, #10, #11, ...

........................................................................
.............................. CYCLE   10 ..............................
........................................................................

 iter      E             dE          RMSdq      gap      omega  full diag
   1    -26.9228893 -0.269229E+02  0.177E+00    5.39       0.0  T
   2    -26.9417920 -0.189026E-01  0.109E+00    4.71       1.0  T
   3    -26.9460168 -0.422485E-02  0.500E-01    4.90       1.0  T
   4    -26.9461172 -0.100373E-03  0.180E-01    4.82       1.0  T
   5    -26.9461513 -0.341345E-04  0.801E-02    4.84       1.0  T
   6    -26.9461591 -0.779654E-05  0.979E-03    4.84       3.9  T
   7    -26.9461594 -0.249726E-06  0.341E-03    4.84      11.1  T
   8    -26.9461594 -0.273045E-08  0.236E-04    4.84     160.3  T
   9    -26.9461594 -0.425224E-10  0.103E-04    4.84     367.8  T
     SCC iter.                  ...        0 min,  0.002 sec
     gradient                   ...        0 min,  0.001 sec
 * total energy  :   -26.8706720 Eh     change       -0.8150347E-01 Eh
   gradient norm :     0.1057692 Eh/α   predicted    -0.8203311E-01 (   0.65%)
   displ. norm   :     0.5638832 α      lambda       -0.2117488E-01
   maximum displ.:     0.5413489 α      in ANC's #2, #12, #11, ...

........................................................................
.............................. CYCLE   11 ..............................
........................................................................

 iter      E             dE          RMSdq      gap      omega  full diag
   1    -26.9768741 -0.269769E+02  0.869E-01    5.23       0.0  T
   2    -26.9784034 -0.152933E-02  0.543E-01    5.15       1.0  T
   3    -26.9785296 -0.126225E-03  0.267E-01    5.19       1.0  T
   4    -26.9785544 -0.247870E-04  0.297E-02    5.19       1.3  T
   5    -26.9785550 -0.582418E-06  0.131E-02    5.19       2.9  T
   6    -26.9785552 -0.214987E-06  0.414E-03    5.19       9.1  T
   7    -26.9785552 -0.112448E-07  0.111E-03    5.19      34.1  T
   8    -26.9785552 -0.100019E-08  0.174E-04    5.19     217.1  T
   9    -26.9785552 -0.178595E-10  0.721E-05    5.19     524.1  T
     SCC iter.                  ...        0 min,  0.002 sec
     gradient                   ...        0 min,  0.001 sec
 * total energy  :   -26.8725788 Eh     change       -0.1906772E-02 Eh
   gradient norm :     0.0609619 Eh/α   predicted    -0.1395387E-01 ( 631.81%)
   displ. norm   :     0.5221579 α      lambda       -0.1566978E-01
   maximum displ.:     0.4927926 α      in ANC's #2, #6, #3, ...

........................................................................
.............................. CYCLE   12 ..............................
........................................................................

 iter      E             dE          RMSdq      gap      omega  full diag
   1    -26.9816310 -0.269816E+02  0.120E+00    6.00       0.0  T
   2    -26.9882917 -0.666064E-02  0.633E-01    5.50       1.0  T
   3    -26.9890093 -0.717680E-03  0.314E-01    5.54       1.0  T
   4    -26.9890557 -0.463370E-04  0.102E-01    5.44       1.0  T
   5    -26.9890625 -0.683542E-05  0.401E-02    5.47       1.0  T
   6    -26.9890649 -0.233650E-05  0.376E-03    5.46      10.1  T
   7    -26.9890649 -0.183772E-07  0.222E-03    5.46      17.0  T
   8    -26.9890649 -0.902251E-09  0.589E-04    5.46      64.1  T
   9    -26.9890649 -0.136939E-08  0.788E-05    5.46     479.4  T
     SCC iter.                  ...        0 min,  0.002 sec
     gradient                   ...        0 min,  0.001 sec
 * total energy  :   -26.8757156 Eh     change       -0.3136752E-02 Eh
   gradient norm :     0.0645711 Eh/α   predicted    -0.9971066E-02 ( 217.88%)
   displ. norm   :     0.3582730 α      lambda       -0.1147975E-01
   maximum displ.:     0.2229001 α      in ANC's #6, #3, #12, ...

........................................................................
.............................. CYCLE   13 ..............................
........................................................................

 iter      E             dE          RMSdq      gap      omega  full diag
   1    -26.9528568 -0.269529E+02  0.945E-01    4.69       0.0  T
   2    -26.9574615 -0.460465E-02  0.543E-01    5.05       1.0  T
   3    -26.9582132 -0.751753E-03  0.267E-01    4.99       1.0  T
   4    -26.9582365 -0.232775E-04  0.946E-02    5.04       1.0  T
   5    -26.9582450 -0.846043E-05  0.403E-02    5.02       1.0  T
   6    -26.9582467 -0.173928E-05  0.435E-03    5.02       8.7  T
   7    -26.9582468 -0.314743E-07  0.266E-03    5.02      14.2  T
   8    -26.9582468 -0.194132E-08  0.561E-04    5.02      67.4  T
   9    -26.9582468 -0.144402E-08  0.159E-04    5.02     238.1  T
     SCC iter.                  ...        0 min,  0.002 sec
     gradient                   ...        0 min,  0.001 sec
 * total energy  :   -26.8726409 Eh     change        0.3074644E-02 Eh
   gradient norm :     0.0948621 Eh/α   predicted    -0.6476658E-02 (-310.65%)
   displ. norm   :     0.4700763 α      lambda       -0.1428626E-01
   maximum displ.:     0.4037780 α      in ANC's #3, #2, #6, ...

........................................................................
.............................. CYCLE   14 ..............................
........................................................................

 iter      E             dE          RMSdq      gap      omega  full diag
   1    -26.9499964 -0.269500E+02  0.106E+00    4.69       0.0  T
   2    -26.9551560 -0.515957E-02  0.637E-01    4.74       1.0  T
   3    -26.9555796 -0.423654E-03  0.343E-01    4.78       1.0  T
   4    -26.9555927 -0.130500E-04  0.488E-02    4.80       1.0  T
   5    -26.9555949 -0.225932E-05  0.158E-02    4.79       2.4  T
   6    -26.9555954 -0.427773E-06  0.506E-03    4.79       7.5  T
   7    -26.9555954 -0.109973E-07  0.220E-03    4.79      17.2  T
   8    -26.9555954 -0.231975E-08  0.558E-04    4.79      67.7  T
   9    -26.9555954 -0.112797E-08  0.248E-04    4.79     152.7  T
     SCC iter.                  ...        0 min,  0.002 sec
     gradient                   ...        0 min,  0.001 sec
 * total energy  :   -26.8705515 Eh     change        0.2089413E-02 Eh
   gradient norm :     0.1118649 Eh/α   predicted    -0.8721566E-02 (-517.42%)
   displ. norm   :     0.4240475 α      lambda       -0.2879002E-01
   maximum displ.:     0.2528800 α      in ANC's #12, #6, #3, ...

........................................................................
.............................. CYCLE   15 ..............................
........................................................................

 iter      E             dE          RMSdq      gap      omega  full diag
   1    -26.9940220 -0.269940E+02  0.138E+00    6.65       0.0  T
   2    -27.0051432 -0.111212E-01  0.731E-01    5.86       1.0  T
   3    -27.0062305 -0.108727E-02  0.369E-01    5.92       1.0  T
   4    -27.0063330 -0.102502E-03  0.150E-01    5.81       1.0  T
   5    -27.0063396 -0.657809E-05  0.255E-02    5.83       1.5  T
   6    -27.0063405 -0.965369E-06  0.592E-03    5.83       6.4  T
   7    -27.0063406 -0.235683E-07  0.274E-03    5.83      13.8  T
   8    -27.0063406 -0.325049E-08  0.446E-04    5.83      84.7  T
   9    -27.0063406 -0.271307E-09  0.195E-04    5.83     193.4  T
     SCC iter.                  ...        0 min,  0.002 sec
     gradient                   ...        0 min,  0.001 sec
 * total energy  :   -26.8645131 Eh     change        0.6038408E-02 Eh
   gradient norm :     0.1759442 Eh/α   predicted    -0.1698348E-01 (-381.26%)
   displ. norm   :     0.2185133 α      lambda       -0.3259553E-01
   maximum displ.:     0.1645746 α      in ANC's #12, #11, #3, ...

........................................................................
.............................. CYCLE   16 ..............................
........................................................................

 iter      E             dE          RMSdq      gap      omega  full diag
   1    -26.9701472 -0.269701E+02  0.898E-01    4.76       0.0  T
   2    -26.9756741 -0.552688E-02  0.542E-01    5.24       1.0  T
   3    -26.9765604 -0.886269E-03  0.250E-01    5.17       1.0  T
   4    -26.9766119 -0.515831E-04  0.111E-01    5.21       1.0  T
   5    -26.9766150 -0.307536E-05  0.356E-02    5.21       1.1  T
   6    -26.9766165 -0.150384E-05  0.306E-03    5.21      12.3  T
   7    -26.9766165 -0.514403E-08  0.189E-03    5.21      20.0  T
   8    -26.9766165 -0.161974E-08  0.416E-04    5.21      90.8  T
   9    -26.9766165 -0.539551E-09  0.793E-05    5.21     476.6  T
     SCC iter.                  ...        0 min,  0.002 sec
     gradient                   ...        0 min,  0.001 sec
 * total energy  :   -26.8786803 Eh     change       -0.1416721E-01 Eh
   gradient norm :     0.0296653 Eh/α   predicted    -0.1707595E-01 (  20.53%)
   displ. norm   :     0.3873699 α      lambda       -0.3059321E-02
   maximum displ.:     0.3825748 α      in ANC's #6, #2, #3, ...

........................................................................
.............................. CYCLE   17 ..............................
........................................................................

 iter      E             dE          RMSdq      gap      omega  full diag
   1    -26.9738612 -0.269739E+02  0.506E-01    5.28       0.0  T
   2    -26.9739897 -0.128440E-03  0.300E-01    5.26       1.0  T
   3    -26.9740003 -0.106729E-04  0.785E-02    5.27       1.0  T
   4    -26.9740076 -0.726493E-05  0.261E-02    5.26       1.4  T
   5    -26.9740087 -0.106418E-05  0.703E-03    5.26       5.4  T
   6    -26.9740088 -0.869392E-07  0.388E-03    5.26       9.7  T
   7    -26.9740088 -0.194889E-08  0.212E-04    5.26     178.2  T
   8    -26.9740088 -0.100481E-09  0.116E-04    5.26     325.5  T
     SCC iter.                  ...        0 min,  0.001 sec
     gradient                   ...        0 min,  0.001 sec
 * total energy  :   -26.8779586 Eh     change        0.7216829E-03 Eh
   gradient norm :     0.0307214 Eh/α   predicted    -0.1759182E-02 (-343.76%)
   displ. norm   :     0.2472213 α      lambda       -0.3249590E-02
   maximum displ.:     0.2460919 α      in ANC's #6, #3, #9, ...

........................................................................
.............................. CYCLE   18 ..............................
........................................................................

 iter      E             dE          RMSdq      gap      omega  full diag
   1    -26.9791801 -0.269792E+02  0.318E-01    5.26       0.0  T
   2    -26.9792621 -0.820549E-04  0.188E-01    5.28       1.0  T
   3    -26.9792686 -0.641561E-05  0.652E-02    5.27       1.0  T
   4    -26.9792724 -0.384760E-05  0.183E-02    5.28       2.1  T
   5    -26.9792728 -0.392634E-06  0.392E-03    5.28       9.6  T
   6    -26.9792728 -0.255321E-07  0.222E-03    5.28      17.1  T
   7    -26.9792728 -0.631335E-09  0.401E-04    5.28      94.1  T
   8    -26.9792728 -0.520039E-09  0.102E-04    5.28     371.9  T
     SCC iter.                  ...        0 min,  0.001 sec
     gradient                   ...        0 min,  0.001 sec
 * total energy  :   -26.8795465 Eh     change       -0.1587907E-02 Eh
   gradient norm :     0.0107003 Eh/α   predicted    -0.1724100E-02 (   8.58%)
   displ. norm   :     0.0293764 α      lambda       -0.1601223E-03
   maximum displ.:     0.0274779 α      in ANC's #3, #10, #6, ...

........................................................................
.............................. CYCLE   19 ..............................
........................................................................

 iter      E             dE          RMSdq      gap      omega  full diag
   1    -26.9798445 -0.269798E+02  0.691E-02    5.28       0.0  T
   2    -26.9798631 -0.185931E-04  0.399E-02    5.28       1.0  T
   3    -26.9798639 -0.770713E-06  0.224E-02    5.28       1.7  T
   4    -26.9798639 -0.258487E-07  0.219E-03    5.29      17.3  T
   5    -26.9798639 -0.759991E-08  0.104E-03    5.29      36.2  T
   6    -26.9798639 -0.152270E-08  0.356E-04    5.29     106.1  T
   7    -26.9798639 -0.517275E-10  0.120E-04    5.29     313.9  T
     SCC iter.                  ...        0 min,  0.001 sec
     gradient                   ...        0 min,  0.001 sec
 * total energy  :   -26.8796152 Eh     change       -0.6861791E-04 Eh
   gradient norm :     0.0068296 Eh/α   predicted    -0.8013192E-04 (  16.78%)
   displ. norm   :     0.0137927 α      lambda       -0.4464827E-04
   maximum displ.:     0.0089059 α      in ANC's #6, #3, #2, ...

........................................................................
.............................. CYCLE   20 ..............................
........................................................................

 iter      E             dE          RMSdq      gap      omega  full diag
   1    -26.9801476 -0.269801E+02  0.339E-02    5.28       0.0  T
   2    -26.9801513 -0.376532E-05  0.177E-02    5.29       2.1  T
   3    -26.9801516 -0.293928E-06  0.947E-03    5.29       4.0  T
   4    -26.9801517 -0.210943E-07  0.191E-03    5.29      19.7  T
   5    -26.9801517 -0.416481E-08  0.818E-04    5.29      46.2  T
   6    -26.9801517 -0.879634E-09  0.149E-04    5.29     254.2  T
     SCC iter.                  ...        0 min,  0.001 sec
     gradient                   ...        0 min,  0.001 sec
 * total energy  :   -26.8796481 Eh     change       -0.3294548E-04 Eh
   gradient norm :     0.0034815 Eh/α   predicted    -0.2233003E-04 ( -32.22%)
   displ. norm   :     0.0204053 α      lambda       -0.2844905E-04
   maximum displ.:     0.0147423 α      in ANC's #6, #5, #7, ...
 * RMSD in coord.:     1.3711592 α      energy gain  -0.9023535E-01 Eh

generating ANC from exact Hessian ...
Using Lindh-Hessian (1995)
 Shifting diagonal of input Hessian by   0.000000000000000E+000
 Lowest  eigenvalues of input Hessian
    0.000000    0.000000    0.000000    0.000000    0.000000    0.000000
    0.021920    0.033283    0.041028    0.094375    0.107948    0.109936
    0.231458    0.234583    0.386594    0.672879    1.197899    1.555673
 Highest eigenvalues
    0.672879    1.197899    1.555673    1.593934    1.630645    2.539593
 

........................................................................
.............................. CYCLE   21 ..............................
........................................................................

 iter      E             dE          RMSdq      gap      omega  full diag
   1    -26.9805925 -0.269806E+02  0.281E-02    5.30       0.0  T
   2    -26.9805932 -0.680306E-06  0.161E-02    5.30       2.4  T
   3    -26.9805932 -0.351553E-07  0.657E-03    5.30       5.7  T
   4    -26.9805932 -0.387989E-07  0.131E-03    5.30      28.8  T
   5    -26.9805932 -0.157134E-08  0.326E-04    5.30     115.8  T
   6    -26.9805932 -0.159588E-09  0.168E-04    5.30     225.1  T
     SCC iter.                  ...        0 min,  0.001 sec
     gradient                   ...        0 min,  0.001 sec
 * total energy  :   -26.8796628 Eh     change       -0.1474144E-04 Eh
   gradient norm :     0.0112953 Eh/α   predicted     0.0000000E+00 (-100.00%)
   displ. norm   :     0.1868801 α      lambda       -0.1786058E-02
   maximum displ.:     0.1645533 α      in ANC's #2, #5, #4, ...

........................................................................
.............................. CYCLE   22 ..............................
........................................................................

 iter      E             dE          RMSdq      gap      omega  full diag
   1    -26.9772704 -0.269773E+02  0.412E-01    5.19       0.0  T
   2    -26.9772860 -0.156405E-04  0.246E-01    5.22       1.0  T
   3    -26.9772811  0.499004E-05  0.411E-02    5.20       1.0  T
   4    -26.9772889 -0.785005E-05  0.906E-03    5.21       4.2  T
   5    -26.9772890 -0.779503E-07  0.173E-03    5.21      21.9  T
   6    -26.9772890 -0.407317E-08  0.889E-04    5.21      42.5  T
   7    -26.9772890 -0.336264E-09  0.101E-04    5.21     373.2  T
     SCC iter.                  ...        0 min,  0.001 sec
     gradient                   ...        0 min,  0.001 sec
 * total energy  :   -26.8788339 Eh     change        0.8289784E-03 Eh
   gradient norm :     0.0258250 Eh/α   predicted    -0.9242152E-03 (-211.49%)
   displ. norm   :     0.1073973 α      lambda       -0.2354364E-02
   maximum displ.:     0.0814482 α      in ANC's #2, #5, #4, ...

........................................................................
.............................. CYCLE   23 ..............................
........................................................................

 iter      E             dE          RMSdq      gap      omega  full diag
   1    -26.9811613 -0.269812E+02  0.250E-01    5.33       0.0  T
   2    -26.9811732 -0.118887E-04  0.149E-01    5.31       1.0  T
   3    -26.9811697  0.350482E-05  0.389E-02    5.32       1.0  T
   4    -26.9811754 -0.563024E-05  0.573E-03    5.31       6.6  T
   5    -26.9811754 -0.249636E-07  0.990E-04    5.31      38.2  T
   6    -26.9811754 -0.310830E-09  0.435E-04    5.31      86.9  T
     SCC iter.                  ...        0 min,  0.001 sec
     gradient                   ...        0 min,  0.001 sec
 * total energy  :   -26.8800073 Eh     change       -0.1173469E-02 Eh
   gradient norm :     0.0016208 Eh/α   predicted    -0.1190760E-02 (   1.47%)
   displ. norm   :     0.0189765 α      lambda       -0.1090495E-04
   maximum displ.:     0.0161274 α      in ANC's #2, #4, #5, ...

........................................................................
.............................. CYCLE   24 ..............................
........................................................................

 iter      E             dE          RMSdq      gap      omega  full diag
   1    -26.9808806 -0.269809E+02  0.287E-02    5.30       0.0  T
   2    -26.9808807 -0.982706E-07  0.171E-02    5.30       2.2  T
   3    -26.9808807  0.153576E-07  0.285E-03    5.30      13.2  T
   4    -26.9808807 -0.372957E-07  0.704E-04    5.30      53.7  T
   5    -26.9808807 -0.341434E-09  0.293E-04    5.30     129.1  T
     SCC iter.                  ...        0 min,  0.001 sec
     gradient                   ...        0 min,  0.001 sec
 * total energy  :   -26.8800166 Eh     change       -0.9267479E-05 Eh
   gradient norm :     0.0008652 Eh/α   predicted    -0.5451837E-05 ( -41.17%)
   displ. norm   :     0.0067715 α      lambda       -0.1281553E-05
   maximum displ.:     0.0061370 α      in ANC's #2, #4, #9, ...

........................................................................
.............................. CYCLE   25 ..............................
........................................................................

 iter      E             dE          RMSdq      gap      omega  full diag
   1    -26.9810224 -0.269810E+02  0.110E-02    5.30       0.0  T
   2    -26.9810225 -0.388223E-07  0.640E-03    5.30       5.9  T
   3    -26.9810225  0.400245E-08  0.198E-03    5.30      19.1  T
   4    -26.9810225 -0.108535E-07  0.404E-04    5.30      93.5  T
   5    -26.9810225 -0.146564E-09  0.756E-05    5.30     499.7  T
     SCC iter.                  ...        0 min,  0.001 sec
     gradient                   ...        0 min,  0.001 sec
 * total energy  :   -26.8800175 Eh     change       -0.8942738E-06 Eh
   gradient norm :     0.0002673 Eh/α   predicted    -0.6398138E-06 ( -28.45%)
   displ. norm   :     0.0010779 α      lambda       -0.1270741E-06
   maximum displ.:     0.0006732 α      in ANC's #2, #6, #5, ...

   *** GEOMETRY OPTIMIZATION CONVERGED AFTER 25 ITERATIONS ***

------------------------------------------------------------------------
 total energy gain   :        -0.0906047 Eh      -56.8553 kcal/mol
 total RMSD          :         1.3703956 a0        0.7252 Å
 total power (kW/mol):        -9.5153088 (step)-3171.4752 (real)
------------------------------------------------------------------------

 ANCopt (total)                0 d,  0 h,  0 min,  0.075 sec
 optimizer setup                ...        0 min,  0.000 sec (  0.428%)
 model hessian                  ...        0 min,  0.001 sec (  1.361%)
 ANC generation                 ...        0 min,  0.000 sec (  0.220%)
 coordinate transformation      ...        0 min,  0.000 sec (  0.202%)
 single point calculation       ...        0 min,  0.071 sec ( 94.145%)
 optimization log               ...        0 min,  0.001 sec (  1.175%)
 hessian update                 ...        0 min,  0.000 sec (  0.265%)
 rational function              ...        0 min,  0.001 sec (  1.056%)

================
 final structure:
================
7
 xtb: 6.7.1 (edcfbbe)
C           -1.55137478773233       -0.14712680155627        0.45474362302213
C           -2.43402194477682        1.18877414256251        0.05053091559303
F           -2.17994859783290       -1.30838376438678        0.12254734659530
F           -0.33949804500947       -0.21578672670250       -0.15171891286192
F           -1.28746272792466       -0.25549848349237        1.78142251083967
O           -3.19588090413256        1.53425750954740        0.93723284715041
O           -2.18289799259246        1.59681012402947       -1.07033833033923
 
 Bond Distances (Angstroems)
 ---------------------------
C1-C2=1.6514         C1-F3=1.3616         C1-F4=1.3569         C1-F5=1.3570         C2-C1=1.6514         C2-O6=1.2190         
C2-O7=1.2190         F3-C1=1.3616         F4-C1=1.3569         F5-C1=1.3570         O6-C2=1.2190         O7-C2=1.2190         
 C  C  Rav=1.6514 sigma=0.0000  Rmin=1.6514  Rmax=1.6514     1
 O  C  Rav=1.2190 sigma=0.0000  Rmin=1.2190  Rmax=1.2190     2
 F  C  Rav=1.3585 sigma=0.0022  Rmin=1.3569  Rmax=1.3616     3
 
 selected bond angles (degree)
 --------------------
F3-C1-C2=112.55                F4-C1-C2=114.14                F4-C1-F3=105.08                F5-C1-C2=114.07                
F5-C1-F3=105.08                F5-C1-F4=105.02                O6-C2-C1=112.66                O7-C2-C1=112.69                
O7-C2-O6=134.65                
 
 selected dihedral angles (degree)
 ---------------------------------
O6-C2-C1-F3= 88.85            O6-C2-C1-F4=208.50            O6-C2-C1-F5=329.25            O7-C2-C1-F3=269.44            
O7-C2-C1-F4= 29.09            O7-C2-C1-F5=149.83            
 
 CMA Distance (Angstroems)
 ---------------------------
R(CMA):  2.4420
           -------------------------------------------------
          |                Final Singlepoint                |
           -------------------------------------------------

          ...................................................
          :                      SETUP                      :
          :.................................................:
          :  # basis functions                  28          :
          :  # atomic orbitals                  28          :
          :  # shells                           14          :
          :  # electrons                        42          :
          :  max. iterations                   250          :
          :  Hamiltonian                  GFN2-xTB          :
          :  restarted?                      false          :
          :  GBSA solvation                  false          :
          :  PC potential                    false          :
          :  electronic temp.          300.0000000     K    :
          :  accuracy                    1.0000000          :
          :  -> integral cutoff          0.2500000E+02      :
          :  -> integral neglect         0.1000000E-07      :
          :  -> SCF convergence          0.1000000E-05 Eh   :
          :  -> wf. convergence          0.1000000E-03 e    :
          :  Broyden damping             0.4000000          :
          :  net charge                         -1          :
          :  unpaired electrons                  0          :
          ...................................................

 iter      E             dE          RMSdq      gap      omega  full diag
   1    -26.9810225 -0.269810E+02  0.420E-05    5.30       0.0  T
   2    -26.9810225 -0.710543E-12  0.245E-05    5.30    1544.5  T
   3    -26.9810225  0.248690E-13  0.787E-06    5.30    4804.3  T

   *** convergence criteria satisfied after 3 iterations ***

         #    Occupation            Energy/Eh            Energy/eV
      -------------------------------------------------------------
         1        2.0000           -0.7046352             -19.1741
       ...           ...                  ...                  ...
        15        2.0000           -0.3627918              -9.8721
        16        2.0000           -0.3616848              -9.8419
        17        2.0000           -0.3577836              -9.7358
        18        2.0000           -0.3438784              -9.3574
        19        2.0000           -0.2540835              -6.9140
        20        2.0000           -0.2426795              -6.6036
        21        2.0000           -0.2216945              -6.0326 (HOMO)
        22                         -0.0268590              -0.7309 (LUMO)
        23                          0.1534349               4.1752
        24                          0.2083013               5.6682
        25                          0.2251935               6.1278
        26                          0.2937159               7.9924
       ...                                ...                  ...
        28                          0.9274048              25.2360
      -------------------------------------------------------------
                  HL-Gap            0.1948355 Eh            5.3017 eV
             Fermi-level           -0.1242768 Eh           -3.3817 eV

 SCC (total)                   0 d,  0 h,  0 min,  0.002 sec
 SCC setup                      ...        0 min,  0.000 sec (  2.940%)
 Dispersion                     ...        0 min,  0.000 sec (  1.069%)
 classical contributions        ...        0 min,  0.000 sec (  0.379%)
 integral evaluation            ...        0 min,  0.001 sec ( 23.630%)
 iterations                     ...        0 min,  0.001 sec ( 26.258%)
 molecular gradient             ...        0 min,  0.001 sec ( 41.804%)
 printout                       ...        0 min,  0.000 sec (  2.751%)

         :::::::::::::::::::::::::::::::::::::::::::::::::::::
         ::                     SUMMARY                     ::
         :::::::::::::::::::::::::::::::::::::::::::::::::::::
         :: total energy             -26.880017489341 Eh    ::
         :: gradient norm              0.000266819811 Eh/a0 ::
         :: HOMO-LUMO gap              5.301743978627 eV    ::
         ::.................................................::
         :: SCC energy               -26.981021682425 Eh    ::
         :: -> isotropic ES            0.202731878009 Eh    ::
         :: -> anisotropic ES         -0.003440256834 Eh    ::
         :: -> anisotropic XC         -0.020749506136 Eh    ::
         :: -> dispersion             -0.004089975255 Eh    ::
         :: repulsion energy           0.101004193084 Eh    ::
         :: add. restraining           0.000000000000 Eh    ::
         :: total charge              -1.000000000000 e     ::
         :::::::::::::::::::::::::::::::::::::::::::::::::::::

           ------------------------------------------------- 
          |                Numerical Hessian                |
           ------------------------------------------------- 
step length          :   0.00500
SCC accuracy         :   0.30000
Hessian scale factor :   1.00000
frozen atoms in %    :   0.00000    0
RMS gradient         :   0.00027
estimated CPU  time      0.00 min
estimated wall time      0.00 min

writing file <hessian>.

 projected vibrational frequencies (cm⁻¹)
eigval :       -0.00    -0.00     0.00     0.00     0.00     0.00
eigval :        3.42   161.16   185.83   304.19   399.19   452.67
eigval :      530.72   622.36   692.53   715.13  1009.61  1042.27
eigval :     1121.03  1297.05  1914.70
           -------------------------------------------------
          |                Property Printout                |
           -------------------------------------------------

    * Orbital Energies and Occupations

         #    Occupation            Energy/Eh            Energy/eV
      -------------------------------------------------------------
         1        2.0000           -0.7046353             -19.1741
       ...           ...                  ...                  ...
         9        2.0000           -0.4435621             -12.0699
        10        2.0000           -0.3995666             -10.8728
        11        2.0000           -0.3786504             -10.3036
        12        2.0000           -0.3762175             -10.2374
        13        2.0000           -0.3693013             -10.0492
        14        2.0000           -0.3640603              -9.9066
        15        2.0000           -0.3627918              -9.8721
        16        2.0000           -0.3616848              -9.8419
        17        2.0000           -0.3577836              -9.7358
        18        2.0000           -0.3438784              -9.3574
        19        2.0000           -0.2540835              -6.9140
        20        2.0000           -0.2426795              -6.6036
        21        2.0000           -0.2216945              -6.0326 (HOMO)
        22                         -0.0268590              -0.7309 (LUMO)
        23                          0.1534349               4.1752
        24                          0.2083013               5.6682
        25                          0.2251935               6.1278
        26                          0.2937158               7.9924
        27                          0.5718027              15.5595
        28                          0.9274048              25.2360
      -------------------------------------------------------------
                  HL-Gap            0.1948355 Eh            5.3017 eV
             Fermi-level           -0.1242768 Eh           -3.3817 eV

     #   Z          covCN         q      C6AA      α(0)
     1   6 C        3.300     0.400    18.962     6.971
     2   6 C        2.660     0.368    20.758     7.454
     3   9 F        0.788    -0.246    11.722     4.044
     4   9 F        0.789    -0.240    11.661     4.034
     5   9 F        0.789    -0.241    11.663     4.034
     6   8 O        0.856    -0.521    24.252     6.603
     7   8 O        0.856    -0.521    24.251     6.602

 Mol. C6AA /au·bohr⁶  :        831.874774
 Mol. C8AA /au·bohr⁸  :      17890.829835
 Mol. α(0) /au        :         39.743024


Wiberg/Mayer (AO) data.
largest (>0.10) Wiberg bond orders for each atom

 ---------------------------------------------------------------------------
     #   Z sym  total        # sym  WBO       # sym  WBO       # sym  WBO
 ---------------------------------------------------------------------------
     1   6 C    3.667 --     4 F    0.934     5 F    0.933     3 F    0.927
                             2 C    0.725
     2   6 C    3.951 --     7 O    1.588     6 O    1.588     1 C    0.725
     3   9 F    1.037 --     1 C    0.927
     4   9 F    1.044 --     1 C    0.934
     5   9 F    1.044 --     1 C    0.933
     6   8 O    1.939 --     2 C    1.588     7 O    0.260
     7   8 O    1.939 --     2 C    1.588     6 O    0.260
 ---------------------------------------------------------------------------

Topologies differ in total number of bonds
Writing topology from bond orders to xtbtopo.mol

molecular dipole:
                 x           y           z       tot (Debye)
 q only:        4.179      -1.543      -0.288
   full:        4.289      -1.715      -0.237      11.756
molecular quadrupole (traceless):
                xx          xy          yy          xz          yz          zz
 q only:      -14.796      13.908       5.443       3.325       1.487       9.352
  q+dip:      -15.201      14.950       6.423       4.122       1.472       8.778
   full:      -14.999      15.647       6.218       4.292       1.821       8.781

           -------------------------------------------------
          |                Geometry Summary                 |
           -------------------------------------------------

      molecular mass/u    :      113.0154911
   center of mass at/Å    :       -1.8249688       0.2548009       0.3294217
  moments of inertia/u·Å² :        0.1288149E+03   0.2093954E+03   0.2496439E+03
rotational constants/cm⁻¹ :        0.1308671E+00   0.8050620E-01   0.6752670E-01

 * 5 selected distances

     #   Z          #   Z                                           value/Å
     1   6 C        3   9 F                                       1.3616084 (max)
     1   6 C        4   9 F                                       1.3568922
     1   6 C        5   9 F                                       1.3570082
     2   6 C        6   8 O                                       1.2190277
     2   6 C        7   8 O                                       1.2189769 (min)

 * 2 distinct bonds (by element types)

   Z      Z             #   av. dist./Å        max./Å        min./Å
   6 C    8 O           2     1.2190023     1.2190277     1.2189769
   6 C    9 F           3     1.3585029     1.3616084     1.3568922

           -------------------------------------------------
          |               Frequency Printout                |
           -------------------------------------------------
 projected vibrational frequencies (cm⁻¹)
eigval :       -0.00    -0.00     0.00     0.00     0.00     0.00
eigval :        3.42   161.16   185.83   304.19   399.19   452.67
eigval :      530.72   622.36   692.53   715.13  1009.61  1042.27
eigval :     1121.03  1297.05  1914.70
 reduced masses (amu)
   1: 15.81   2: 16.37   3: 17.96   4: 16.98   5: 17.81   6: 17.27   7: 16.94   8: 17.68
   9: 17.96  10: 16.54  11: 17.67  12: 18.34  13: 17.29  14: 17.67  15: 14.12  16: 13.09
  17: 13.79  18: 13.52  19: 13.99  20: 15.03  21: 13.22
 IR intensities (km·mol⁻¹)
   1:  9.09   2:  8.37   3:  1.56   4:  6.83   5:  3.00   6:  2.70   7:  0.03   8:  2.31
   9:  9.41  10: 21.59  11:  6.46  12: 15.22  13:  0.02  14:  1.45  15:268.32  16: 72.54
  17:288.45  18:261.51  19: 44.56  20:291.92  21:746.83
 Raman intensities (Ä⁴*amu⁻¹)
   1:  0.00   2:  0.00   3:  0.00   4:  0.00   5:  0.00   6:  0.00   7:  0.00   8:  0.00
   9:  0.00  10:  0.00  11:  0.00  12:  0.00  13:  0.00  14:  0.00  15:  0.00  16:  0.00
  17:  0.00  18:  0.00  19:  0.00  20:  0.00  21:  0.00
 output can be read by thermo (or use thermo option).
 writing <g98.out> molden fake output.
 recommended (thermochemical) frequency scaling factor: 1.0
           -------------------------------------------------
          |             Thermodynamic Functions             |
           -------------------------------------------------

Refinement of some symmetry elements was terminated before convergence was reached.
Some symmetry elements may remain unidentified.
Molecule has the following symmetry elements: (sigma) 
It seems to be the Cs point group
cs  symmetry found (for desy threshold:  0.10E+00) used in thermo

          ...................................................
          :                      SETUP                      :
          :.................................................:
          :  # frequencies                          15      :
          :  # imaginary freq.                       0      :
          :  linear?                             false      :
          :  only rotor calc.                    false      :
          :  symmetry                               cs      :
          :  rotational number                       1      :
          :  scaling factor                  1.0000000      :
          :  rotor cutoff                   50.0000000 cm⁻¹ :
          :  imag. cutoff                  -20.0000000 cm⁻¹ :
          :.................................................:

    mode    ω/cm⁻¹     T·S(HO)/kcal·mol⁻¹    T·S(FR)/kcal·mol⁻¹   T·S(vib)
   ------------------------------------------------------------------------
       1      3.42    -3.02488 (  0.00%)    -1.84419 (100.00%)    -1.84421
       2    161.16    -0.75615 ( 99.08%)    -0.70968 (  0.92%)    -0.75573
       3    185.83    -0.67650 ( 99.48%)    -0.66750 (  0.52%)    -0.67645
   ------------------------------------------------------------------------

   temp. (K)  partition function   enthalpy   heat capacity  entropy
                                   cal/mol     cal/K/mol   cal/K/mol   J/K/mol
 298.15  VIB   408.                 2387.867     14.162     15.995
         ROT  0.198E+06              888.752      2.981     27.220
         INT  0.809E+08             3276.620     17.143     43.215
         TR   0.116E+28             1481.254      4.968     40.065
         TOT                        4757.8735    22.1108    83.2793   348.4407

       T/K    H(0)-H(T)+PV         H(T)/Eh          T*S/Eh         G(T)/Eh
   ------------------------------------------------------------------------
    298.15    0.758215E-02    0.313932E-01    0.395687E-01   -0.817545E-02
   ------------------------------------------------------------------------

         :::::::::::::::::::::::::::::::::::::::::::::::::::::
         ::                  THERMODYNAMIC                  ::
         :::::::::::::::::::::::::::::::::::::::::::::::::::::
         :: total free energy         -26.888192941971 Eh   ::
         ::.................................................::
         :: total energy              -26.880017489341 Eh   ::
         :: zero point energy           0.023811091032 Eh   ::
         :: G(RRHO) w/o ZPVE           -0.031986543662 Eh   ::
         :: G(RRHO) contrib.           -0.008175452630 Eh   ::
         :::::::::::::::::::::::::::::::::::::::::::::::::::::

optimized geometry written to: xtbopt.xyz


           -------------------------------------------------
          | TOTAL ENERGY              -26.880017489341 Eh   |
          | TOTAL ENTHALPY            -26.848624244265 Eh   |
          | TOTAL FREE ENERGY         -26.888192941971 Eh   |
          | GRADIENT NORM               0.000266884074 Eh/α |
          | HOMO-LUMO GAP               5.301744456798 eV   |
           -------------------------------------------------

------------------------------------------------------------------------
 * finished run on 2025/10/18 at 19:01:34.342     
------------------------------------------------------------------------
 total:
 * wall-time:     0 d,  0 h,  0 min,  0.909 sec
 *  cpu-time:     0 d,  0 h,  0 min,  0.850 sec
 * ratio c/w:     0.935 speedup
 SCF:
 * wall-time:     0 d,  0 h,  0 min,  0.036 sec
 *  cpu-time:     0 d,  0 h,  0 min,  0.052 sec
 * ratio c/w:     1.427 speedup
 ANC optimizer:
 * wall-time:     0 d,  0 h,  0 min,  0.270 sec
 *  cpu-time:     0 d,  0 h,  0 min,  0.348 sec
 * ratio c/w:     1.290 speedup
 analytical hessian:
 * wall-time:     0 d,  0 h,  0 min,  0.155 sec
 *  cpu-time:     0 d,  0 h,  0 min,  0.230 sec
 * ratio c/w:     1.480 speedup

