7
 energy: -26.789412746511 gnorm: 0.213296263789 xtb: 6.7.1 (edcfbbe)
C           -1.13767655260094       -0.72916024477389        0.64537205426005
C           -3.02419669808064        2.11232125050496       -0.21961084024827
F           -2.00886058928119       -1.61535443546618        0.19853059363140
F            0.00406683706142       -0.77484079908023       -0.01471584703152
F           -0.96338760568294       -0.81471721888917        1.95063305239769
O           -3.53388193737802        2.07748970007225        0.80361493316362
O           -2.50714845403771        2.13730774763228       -1.23940394617297
7
 energy: -26.829725253651 gnorm: 0.061399228756 xtb: 6.7.1 (edcfbbe)
C           -1.20684798721679       -0.57447968256839        0.61447551087727
C           -3.01727365225221        2.10158144413119       -0.21643456501638
F           -1.98469164094077       -1.65963490599519        0.20952736740780
F            0.01890615943213       -0.82155669653918       -0.00271259132686
F           -0.94408146678026       -0.86124898044247        1.95356992765980
O           -3.53847459103012        2.07389703667703        0.81757686412914
O           -2.49862182121200        2.13448778473704       -1.25158251373076
7
 energy: -26.832840737615 gnorm: 0.019944943785 xtb: 6.7.1 (edcfbbe)
C           -1.24403421929456       -0.50095686346888        0.59772278351829
C           -2.99446499722379        2.06252928764556       -0.20610366678831
F           -1.99148779426163       -1.65326337105362        0.20634040691049
F            0.01072083682853       -0.81397844397834       -0.00567970037174
F           -0.95159059989054       -0.85368417700397        1.94923588466992
O           -3.51443418759519        2.04619564497739        0.81497659367738
O           -2.48579403856290        2.10620392288198       -1.23207230161607
7
 energy: -26.833964133790 gnorm: 0.016681662363 xtb: 6.7.1 (edcfbbe)
C           -1.25914086924519       -0.48064075121892        0.59077280717781
C           -2.96699686621549        2.01443426174966       -0.19369354577557
F           -2.02013121549016       -1.62289767865812        0.19289865064554
F           -0.00328977072476       -0.77631392792304       -0.02065129448724
F           -0.97268050645525       -0.81634542856449        1.94860869978613
O           -3.48823530244083        2.00738514736548        0.82590711123785
O           -2.46061046942848        2.06742437724962       -1.21942242858461
7
 energy: -26.836254689727 gnorm: 0.020454838943 xtb: 6.7.1 (edcfbbe)
C           -1.29867520670633       -0.42407240589951        0.57266277800389
C           -2.89993576379760        1.89815019600670       -0.16339266917015
F           -2.08124943083554       -1.55243221989642        0.16436030144679
F           -0.03942701464997       -0.69218975781676       -0.05166436085342
F           -1.02082268617954       -0.73282029127796        1.94194409656646
O           -3.42936655047521        1.91779031915857        0.85392355989037
O           -2.40160834735613        1.97862015972581       -1.19341370588411
7
 energy: -26.841455385278 gnorm: 0.045666325141 xtb: 6.7.1 (edcfbbe)
C           -1.37381801863125       -0.31881114958451        0.53814209907434
C           -2.77420001876774        1.68201669650998       -0.10651308099413
F           -2.18501080365368       -1.43075027685652        0.11597089101202
F           -0.10926389464721       -0.53716256993695       -0.10580580911324
F           -1.10911143696869       -0.57862675906869        1.92519747955396
O           -3.32459455923415        1.75734140501969        0.90519661069412
O           -2.29508626809792        1.81903865391781       -1.14776819022742
7
 energy: -26.847368214111 gnorm: 0.081166971643 xtb: 6.7.1 (edcfbbe)
C           -1.44572627857150       -0.22397753069658        0.50486758361046
C           -2.65450163839929        1.47821445288834       -0.05226681086791
F           -2.27279305310833       -1.32791008635283        0.07506273215292
F           -0.17845028104432       -0.38796886092722       -0.15460060549875
F           -1.19269763609748       -0.42976099549778        1.90534656641046
O           -3.22950110146479        1.61167543518307        0.95204868630148
O           -2.19741501131523        1.67277358540418       -1.10603815210918
7
 energy: -26.860125024087 gnorm: 0.088288497146 xtb: 6.7.1 (edcfbbe)
C           -1.50239944897027       -0.16478624102790        0.47796141948037
C           -2.53994222558124        1.29642325826990        0.00004856568018
F           -2.30606993595800       -1.27396184631661        0.05993299381773
F           -0.24512709839055       -0.27455002826115       -0.17669699214884
F           -1.25306562763146       -0.31492903671823        1.86950465252503
O           -3.18379892146591        1.53426961059540        0.98317744141925
O           -2.14068174200370        1.59058028346001       -1.08950808077434
7
 energy: -26.789168571148 gnorm: 0.297222739168 xtb: 6.7.1 (edcfbbe)
C           -1.51396928036021       -0.18683327524637        0.47290957401262
C           -2.35663554734176        1.05673194936692        0.08397702237451
F           -2.18553992333864       -1.24180113886086        0.12008437914458
F           -0.34679630572647       -0.29872462123409       -0.08414049462885
F           -1.23981148805442       -0.33742440897601        1.73287860669271
O           -3.29640828249694        1.66571454345476        0.96504514201222
O           -2.23192417268267        1.73538295149704       -1.16633422960840
7
 energy: -26.870672036152 gnorm: 0.108634431365 xtb: 6.7.1 (edcfbbe)
C           -1.52110015956054       -0.16819751445467        0.46958524366896
C           -2.45854121997648        1.19257003678422        0.03728969340173
F           -2.22617164700983       -1.29446884730778        0.09907591289605
F           -0.29973808051374       -0.27402996227977       -0.13131114737086
F           -1.24909131380667       -0.31483124637438        1.79952667320082
O           -3.22557517861830        1.59279874856910        0.95986536143809
O           -2.19086740051557        1.65920478506467       -1.10961173723538
7
 energy: -26.872578808232 gnorm: 0.064675839642 xtb: 6.7.1 (edcfbbe)
C           -1.56375985225603       -0.11229612248031        0.44780698031694
C           -2.42429242176767        1.11947686209050        0.05365008945212
F           -2.27736942723247       -1.23928149561384        0.07447272294261
F           -0.33845855602105       -0.17895688591981       -0.17118748101166
F           -1.30851329576202       -0.21488463974114        1.79418583749741
O           -3.14084022323056        1.48994457336745        0.96566642472889
O           -2.11785122373151        1.52904370829877       -1.04017457392703
7
 energy: -26.875715560122 gnorm: 0.065682860661 xtb: 6.7.1 (edcfbbe)
C           -1.53083346913696       -0.17495371071422        0.46702086666937
C           -2.49619065006486        1.24402354544426        0.01931691579357
F           -2.19908555833304       -1.33071899744616        0.11227208688266
F           -0.31677733024575       -0.23878602296006       -0.14530333218237
F           -1.26771015629676       -0.28670277512713        1.79832612430990
O           -3.17326416704317        1.54425477022060        0.94103189660329
O           -2.18722366888059        1.63592919058410       -1.06824455807699
7
 energy: -26.872640916479 gnorm: 0.095509567588 xtb: 6.7.1 (edcfbbe)
C           -1.54435797765282       -0.18970354405735        0.45008464904014
C           -2.46188265195543        1.20242255519717        0.03991316818486
F           -2.13986890910991       -1.41039596215391        0.13552995801993
F           -0.33040298861581       -0.21666803310725       -0.13886671139672
F           -1.28348765358290       -0.23753125506641        1.77290885490289
O           -3.24880241713268        1.64385106024994        0.93879203685248
O           -2.16228240195164        1.60107117893922       -1.07394195560424
7
 energy: -26.870551503001 gnorm: 0.113033393228 xtb: 6.7.1 (edcfbbe)
C           -1.56631333767841       -0.15855272119893        0.45772776871180
C           -2.42413343163364        1.14416929331981        0.04779139167186
F           -2.17600749744677       -1.35399577810687        0.12719374932192
F           -0.35838371475061       -0.17453372683820       -0.15319796979655
F           -1.29132498858248       -0.23883591484815        1.78138187641284
O           -3.14703346721231        1.48491321822306        0.97309847738669
O           -2.20788856269696        1.68988162945068       -1.10957529370904
7
 energy: -26.864513095439 gnorm: 0.176149319241 xtb: 6.7.1 (edcfbbe)
C           -1.54222983568758       -0.14561604194731        0.45989377240156
C           -2.49735720151682        1.23454150316860        0.02054186776684
F           -2.21603998392928       -1.27814740866811        0.10579956227224
F           -0.32227993547394       -0.23943551595122       -0.16288433192116
F           -1.28936739712312       -0.27506995407579        1.80259355750880
O           -3.13744725579775        1.50775646956109        0.93133726895139
O           -2.16636339047270        1.58901694791421       -1.03286169698030
7
 energy: -26.878680307889 gnorm: 0.035345482673 xtb: 6.7.1 (edcfbbe)
C           -1.53768419322842       -0.15761707762238        0.45777862685825
C           -2.45823718117607        1.18557713681540        0.03715317892475
F           -2.20247676024081       -1.28402186793772        0.11257201133896
F           -0.32787401594316       -0.24534330128448       -0.14921332947859
F           -1.28594813818377       -0.27325070058118        1.78514357922213
O           -3.19410675146848        1.56415836609693        0.94907724564875
O           -2.16475795976048        1.60354344451490       -1.06809131251489
7
 energy: -26.877958625018 gnorm: 0.030978024352 xtb: 6.7.1 (edcfbbe)
C           -1.57421304351300       -0.16908406449656        0.44227203832919
C           -2.45090566376690        1.18402654746193        0.04033077172097
F           -2.13289352584111       -1.42735362617274        0.14363867507356
F           -0.35468884647831       -0.16237145335814       -0.15701743836435
F           -1.30571195405896       -0.20050855649816        1.77419419538028
O           -3.18174706403178        1.55362614305482        0.94773125880788
O           -2.17092490231115        1.61471101001028       -1.06672950094812
7
 energy: -26.879546532150 gnorm: 0.016612803968 xtb: 6.7.1 (edcfbbe)
C           -1.55620955884154       -0.15599144430396        0.45246463408918
C           -2.45275338728915        1.18005804802504        0.03931802583055
F           -2.17676559085099       -1.33165868970431        0.12381625029043
F           -0.34262058078747       -0.20892675437143       -0.15333257256493
F           -1.29403012256556       -0.24886535453387        1.78125502710827
O           -3.17561198871025        1.54251633904145        0.94855178681724
O           -2.17309377095623        1.61591385584854       -1.06765315157135
7
 energy: -26.879615150057 gnorm: 0.014158688766 xtb: 6.7.1 (edcfbbe)
C           -1.55641043149645       -0.15704023838575        0.45101906040709
C           -2.45224160809930        1.17925363069435        0.03999975865652
F           -2.17346293987184       -1.33152669533285        0.12541996248316
F           -0.34336429069642       -0.21063702594159       -0.15303449636747
F           -1.29516553854707       -0.24670407552482        1.77887338978293
O           -3.18130375739751        1.55147892666548        0.94600929751821
O           -2.16913643389261        1.60822147782663       -1.06386697248107
7
 energy: -26.879648095535 gnorm: 0.012443378681 xtb: 6.7.1 (edcfbbe)
C           -1.55871308902349       -0.15656599941379        0.45013538536272
C           -2.45079638588298        1.17724916495905        0.04076964783659
F           -2.17026234881993       -1.33340042390110        0.12705966990747
F           -0.34526488658325       -0.20878164008646       -0.15307364990623
F           -1.29608839967225       -0.24484096499080        1.77772663237399
O           -3.18035862012718        1.54924549624964        0.94503609826719
O           -2.16960126989212        1.61014036718491       -1.06323378384235
7
 energy: -26.879662836975 gnorm: 0.011295434252 xtb: 6.7.1 (edcfbbe)
C           -1.56172249728983       -0.15728765944092        0.44979475248151
C           -2.45023541804173        1.17682988284079        0.04120696960007
F           -2.16452319033702       -1.33754127547903        0.13018458843490
F           -0.34875776089026       -0.20429806983980       -0.15448960041331
F           -1.29505238689014       -0.24574765306484        1.77669372389859
O           -3.18113588998931        1.54907781716536        0.94312287194762
O           -2.16965785656291        1.61201295781990       -1.06209330594999
7
 energy: -26.878833858623 gnorm: 0.025826079064 xtb: 6.7.1 (edcfbbe)
C           -1.54962223756930       -0.14915969932976        0.45557308515269
C           -2.40165333463474        1.21360499418084        0.06760203116380
F           -2.18245673419885       -1.30997900641452        0.12153918713497
F           -0.33874729530148       -0.21979131187978       -0.15123674345589
F           -1.28615181101454       -0.26024218052197        1.78150714826174
O           -3.21278774003230        1.52817418064235        0.92816600943786
O           -2.19966584724999        1.59043902332429       -1.07873071769578
7
 energy: -26.880007327583 gnorm: 0.001620821943 xtb: 6.7.1 (edcfbbe)
C           -1.55401409858777       -0.15031012430175        0.45333887002842
C           -2.43352764806334        1.18873796267585        0.05075160479609
F           -2.17573114473167       -1.31709398605277        0.12457627729507
F           -0.34223639782708       -0.21286825950367       -0.15293702703490
F           -1.29005630398384       -0.25302787222100        1.78004340876119
O           -3.19383367293996        1.53771154573761        0.93705839180346
O           -2.18168573386755        1.59989673366718       -1.06841152564996
7
 energy: -26.880016595062 gnorm: 0.000865258001 xtb: 6.7.1 (edcfbbe)
C           -1.55191957075013       -0.14790893565529        0.45458611077380
C           -2.43431536830488        1.18836381423243        0.05028016429291
F           -2.17876924556447       -1.31060811598571        0.12309309474187
F           -0.34017725329248       -0.21506122715620       -0.15210840273082
F           -1.28808232789143       -0.25516186360633        1.78133596353011
O           -3.19530277135857        1.53543007701152        0.93737927493044
O           -2.18251846283924        1.59799225116103       -1.07014620553894
7
 energy: -26.880017489336 gnorm: 0.000267264062 xtb: 6.7.1 (edcfbbe)
C           -1.55137478773233       -0.14712680155627        0.45474362302213
C           -2.43402194477682        1.18877414256251        0.05053091559303
F           -2.17994859783290       -1.30838376438678        0.12254734659530
F           -0.33949804500947       -0.21578672670250       -0.15171891286192
F           -1.28746272792466       -0.25549848349237        1.78142251083967
O           -3.19588090413256        1.53425750954740        0.93723284715041
O           -2.18289799259246        1.59681012402947       -1.07033833033923
