 Entering Gaussian System
 *********************************************
 Gaussian 98:
 frequency output generated by the xtb code
 *********************************************
                         Standard orientation:
 --------------------------------------------------------------------
  Center     Atomic     Atomic              Coordinates (Angstroms)
  Number     Number      Type              X           Y           Z
 --------------------------------------------------------------------
    1          6             0       -0.234266   -0.799991    0.935777
    2          6             0       -0.403579   -0.767815   -0.670013
    3         17             0       -1.698099   -1.293900    1.797314
    4          1             0        0.542404   -1.517848    1.206124
    5          1             0        0.016724    0.199169    1.296689
    6          8             0       -0.708198    0.335674   -1.119708
    7          8             0       -0.082295   -1.814176   -1.230391
 --------------------------------------------------------------------
     1 basis functions        1 primitive gaussians
     1 alpha electrons        1 beta electrons
 
 Harmonic frequencies (cm**-1), IR intensities (km*mol⁻¹),
 Raman scattering activities (A**4/amu), Raman depolarization ratios,
 reduced masses (AMU), force constants (mDyne/A) and normal coordinates:
                      1                      2                      3
                        a                      a                      a 
 Frequencies --   -37.6705               155.6461               383.3639
 Red. masses --    16.0491                23.6408                10.3965
 Frc consts  --     0.0000                 0.0000                 0.0000
 IR Inten    --     1.5849                 6.8325                 0.6405
 Raman Activ --     0.0000                 0.0000                 0.0000
 Depolar     --     0.0000                 0.0000                 0.0000
 Atom AN      X      Y      Z        X      Y      Z        X      Y      Z
   1   6     0.13  -0.42  -0.02    -0.32  -0.09  -0.16    -0.07   0.22   0.01
   2   6     0.03  -0.09  -0.00    -0.01   0.01  -0.25     0.08  -0.28  -0.01
   3  17    -0.11   0.37   0.02    -0.14  -0.08   0.65    -0.02   0.08  -0.00
   4   1    -0.06  -0.25  -0.05    -0.08  -0.01  -0.07     0.12   0.31   0.25
   5   1     0.19  -0.17   0.03    -0.07  -0.02  -0.07    -0.28   0.21  -0.23
   6   8    -0.42  -0.13   0.25     0.27   0.08  -0.29     0.05  -0.12   0.49
   7   8     0.42   0.14  -0.25     0.26   0.11  -0.30     0.00  -0.08  -0.49
                      4                      5                      6
                        a                      a                      a 
 Frequencies --   530.1828               686.1250               771.7593
 Red. masses --    14.7796                15.3830                13.4229
 Frc consts  --     0.0000                 0.0000                 0.0000
 IR Inten    --     3.6688                44.1823               176.4154
 Raman Activ --     0.0000                 0.0000                 0.0000
 Depolar     --     0.0000                 0.0000                 0.0000
 Atom AN      X      Y      Z        X      Y      Z        X      Y      Z
   1   6    -0.45  -0.11  -0.43     0.25   0.10  -0.42    -0.37  -0.14   0.50
   2   6    -0.33  -0.10   0.09     0.40   0.13  -0.34     0.11   0.06  -0.52
   3  17     0.28   0.09  -0.15    -0.24  -0.08   0.16     0.24   0.08  -0.11
   4   1    -0.08  -0.02  -0.19     0.04   0.02  -0.08    -0.10  -0.03   0.18
   5   1    -0.08  -0.02  -0.18     0.04   0.02  -0.08    -0.09  -0.05   0.18
   6   8     0.11   0.16   0.31    -0.20   0.28   0.24    -0.12   0.23   0.06
   7   8     0.19  -0.10   0.30    -0.02  -0.36   0.21     0.02  -0.27   0.03
                      7                      8                      9
                        a                      a                      a 
 Frequencies --   778.9950               884.5846              1115.7666
 Red. masses --    12.7650                 6.9606                 1.5438
 Frc consts  --     0.0000                 0.0000                 0.0000
 IR Inten    --    73.9175                 1.0008                 0.1505
 Raman Activ --     0.0000                 0.0000                 0.0000
 Depolar     --     0.0000                 0.0000                 0.0000
 Atom AN      X      Y      Z        X      Y      Z        X      Y      Z
   1   6    -0.42  -0.12  -0.17    -0.18   0.58   0.03    -0.03   0.09   0.00
   2   6     0.68   0.18   0.31     0.04  -0.11  -0.01    -0.01   0.01   0.00
   3  17     0.14   0.04  -0.02     0.02  -0.06  -0.00     0.03  -0.09  -0.00
   4   1    -0.11  -0.03  -0.01    -0.28  -0.23  -0.34    -0.40  -0.21   0.53
   5   1    -0.11  -0.04  -0.02     0.38  -0.07   0.32     0.43   0.10  -0.53
   6   8    -0.14  -0.21  -0.06     0.04  -0.13   0.18    -0.01   0.04  -0.04
   7   8    -0.23   0.11  -0.03     0.03  -0.11  -0.20    -0.01   0.04   0.04
                     10                     11                     12
                        a                      a                      a 
 Frequencies --  1204.6988              1297.9612              1415.1507
 Red. masses --     3.1395                14.7491                 1.9084
 Frc consts  --     0.0000                 0.0000                 0.0000
 IR Inten    --     2.9273               327.8190                10.2111
 Raman Activ --     0.0000                 0.0000                 0.0000
 Depolar     --     0.0000                 0.0000                 0.0000
 Atom AN      X      Y      Z        X      Y      Z        X      Y      Z
   1   6     0.12   0.06  -0.39    -0.01  -0.00  -0.07    -0.23  -0.06  -0.14
   2   6    -0.10  -0.03   0.02     0.01   0.03  -0.55    -0.01  -0.00   0.04
   3  17     0.06   0.02   0.02    -0.00  -0.00  -0.00    -0.03  -0.01   0.00
   4   1    -0.28  -0.08   0.56     0.02   0.03  -0.00     0.38   0.51   0.25
   5   1    -0.27  -0.14   0.57     0.03  -0.01  -0.01     0.61  -0.23   0.21
   6   8     0.02  -0.01  -0.00     0.15  -0.52   0.24    -0.01   0.03  -0.01
   7   8     0.02   0.02  -0.00    -0.15   0.49   0.29     0.01  -0.02  -0.02
                     13                     14                     15
                        a                      a                      a 
 Frequencies --  1833.3640              2963.5369              2970.9306
 Red. masses --    13.1683                 1.4407                 2.0532
 Frc consts  --     0.0000                 0.0000                 0.0000
 IR Inten    --   608.5428                21.9398                44.5255
 Raman Activ --     0.0000                 0.0000                 0.0000
 Depolar     --     0.0000                 0.0000                 0.0000
 Atom AN      X      Y      Z        X      Y      Z        X      Y      Z
   1   6    -0.01   0.03   0.00    -0.17  -0.04  -0.10     0.09  -0.30  -0.02
   2   6     0.23  -0.80  -0.04    -0.00  -0.00   0.00     0.00  -0.02  -0.00
   3  17    -0.00   0.00  -0.00    -0.01  -0.00   0.00     0.00  -0.00  -0.00
   4   1     0.01  -0.02  -0.03     0.49  -0.49   0.15    -0.47   0.42  -0.17
   5   1     0.00  -0.02   0.03     0.12   0.63   0.20     0.17   0.63   0.23
   6   8    -0.10   0.35  -0.14    -0.00   0.00  -0.00    -0.00   0.00   0.00
   7   8    -0.10   0.33   0.17     0.00  -0.00  -0.00    -0.00   0.00  -0.00
