      -----------------------------------------------------------      
     |                   =====================                   |     
     |                           x T B                           |     
     |                   =====================                   |     
     |                         S. Grimme                         |     
     |          Mulliken Center for Theoretical Chemistry        |     
     |                    University of Bonn                     |     
      -----------------------------------------------------------      

   * xtb version 6.7.1 (edcfbbe) compiled by 'albert@albert-system' on 2024-07-22

   xtb is free software: you can redistribute it and/or modify it under
   the terms of the GNU Lesser General Public License as published by
   the Free Software Foundation, either version 3 of the License, or
   (at your option) any later version.
   
   xtb is distributed in the hope that it will be useful,
   but WITHOUT ANY WARRANTY; without even the implied warranty of
   MERCHANTABILITY or FITNESS FOR A PARTICULAR PURPOSE.  See the
   GNU Lesser General Public License for more details.
   
   Cite this work as:
   * C. Bannwarth, E. Caldeweyher, S. Ehlert, A. Hansen, P. Pracht,
     J. Seibert, S. Spicher, S. Grimme, WIREs Comput. Mol. Sci., 2020, 11,
     e01493. DOI: 10.1002/wcms.1493
   
   for GFN2-xTB:
   * C. Bannwarth, S. Ehlert and S. Grimme., J. Chem. Theory Comput., 2019,
     15, 1652-1671. DOI: 10.1021/acs.jctc.8b01176
   for GFN1-xTB:
   * S. Grimme, C. Bannwarth, P. Shushkov, J. Chem. Theory Comput., 2017,
     13, 1989-2009. DOI: 10.1021/acs.jctc.7b00118
   for GFN0-xTB:
   * P. Pracht, E. Caldeweyher, S. Ehlert, S. Grimme, ChemRxiv, 2019, preprint.
     DOI: 10.26434/chemrxiv.8326202.v1
   for GFN-FF:
   * S. Spicher and S. Grimme, Angew. Chem. Int. Ed., 2020, 59, 15665-15673.
     DOI: 10.1002/anie.202004239
   
   for ALPB and GBSA implicit solvation:
   * S. Ehlert, M. Stahn, S. Spicher, S. Grimme, J. Chem. Theory Comput.,
     2021, 17, 4250-4261. DOI: 10.1021/acs.jctc.1c00471
   
   for ddCOSMO and CPCM-X implicit solvation:
   * M. Stahn, S. Ehlert, S. Grimme, J. Phys. Chem. A,
     2023, XX, XXXX-XXXX. DOI: 10.1021/acs.jpca.3c04382
   
   for DFT-D4:
   * E. Caldeweyher, C. Bannwarth and S. Grimme, J. Chem. Phys., 2017,
     147, 034112. DOI: 10.1063/1.4993215
   * E. Caldeweyher, S. Ehlert, A. Hansen, H. Neugebauer, S. Spicher,
     C. Bannwarth and S. Grimme, J. Chem. Phys., 2019, 150, 154122.
     DOI: 10.1063/1.5090222
   * E. Caldeweyher, J.-M. Mewes, S. Ehlert and S. Grimme, Phys. Chem. Chem. Phys.
     2020, 22, 8499-8512. DOI: 10.1039/D0CP00502A
   
   for sTDA-xTB:
   * S. Grimme and C. Bannwarth, J. Chem. Phys., 2016, 145, 054103.
     DOI: 10.1063/1.4959605
   
   in the mass-spec context:
   * V. Asgeirsson, C. Bauer and S. Grimme, Chem. Sci., 2017, 8, 4879.
     DOI: 10.1039/c7sc00601b
   * J. Koopman and S. Grimme, ACS Omega 2019, 4, 12, 15120-15133.
     DOI: 10.1021/acsomega.9b02011
   
   for metadynamics refer to:
   * S. Grimme, J. Chem. Theory Comput., 2019, 155, 2847-2862
     DOI: 10.1021/acs.jctc.9b00143
   
   for SPH calculations refer to:
   * S. Spicher and S. Grimme, J. Chem. Theory Comput., 2021, 17, 1701-1714
     DOI: 10.1021/acs.jctc.0c01306
   
   for ONIOM refer to:
   * C. Plett, A. Katbashev, S. Ehlert, S. Grimme, M. Bursch,
     Phys. Chem. Chem. Phys., 2023, 25, 17860-17868. DOI: 10.1039/D3CP02178E
   
   for DIPRO refer to:
   * J. Kohn, N. Gildemeister, S. Grimme, D. Fazzi, A. Hansen,
     J. Chem. Phys., 2023, just accepted.
   
   for PTB refer to:
   * S. Grimme, M. Mueller, A. Hansen, J. Chem. Phys., 2023, 158, 124111.
     DOI: 10.1063/5.0137838
   
   with help from (in alphabetical order)
   P. Atkinson, C. Bannwarth, F. Bohle, G. Brandenburg, E. Caldeweyher
   M. Checinski, S. Dohm, S. Ehlert, S. Ehrlich, I. Gerasimov, C. Hölzer
   A. Katbashev, J. Kohn, J. Koopman, C. Lavigne, S. Lehtola, F. März, M. Müller,
   F. Musil, H. Neugebauer, J. Pisarek, C. Plett, P. Pracht, F. Pultar,
   J. Seibert, P. Shushkov, S. Spicher, M. Stahn, M. Steiner, T. Strunk,
   J. Stückrath, T. Rose, and J. Unsleber
   
 * started run on 2025/10/18 at 21:06:21.315     
   ID    Z sym.   atoms
    1    6 C      1, 2
    2   17 Cl     3
    3    1 H      4, 5
    4    8 O      6, 7

           -------------------------------------------------
          |                Calculation Setup                |
           -------------------------------------------------

          program call               : xtb xyz.xyz --charge -1 --ohess
          hostname                   : m003
          coordinate file            : xyz.xyz
          omp threads                :                     2


molecular fragmentation (1/2 indicates fragments):
1211122
# atoms in fragment 1/2:     4     3
 fragment masses (1/2) :       49.48       44.01
CMA distance (Bohr)    :   6.229
constraining FC (au)   :  0.0500

           -------------------------------------------------
          |                 G F N 2 - x T B                 |
           -------------------------------------------------

        Reference                      10.1021/acs.jctc.8b01176
      * Hamiltonian:
        H0-scaling (s, p, d)           1.850000    2.230000    2.230000
        zeta-weighting                 0.500000
      * Dispersion:
        s8                             2.700000
        a1                             0.520000
        a2                             5.000000
        s9                             5.000000
      * Repulsion:
        kExp                           1.500000    1.000000
        rExp                           1.000000
      * Coulomb:
        alpha                          2.000000
        third order                    shell-resolved
        anisotropic                    true
        a3                             3.000000
        a5                             4.000000
        cn-shift                       1.200000
        cn-exp                         4.000000
        max-rad                        5.000000

q/qsh data taken from xtbrestart
CAMM data taken from xtbrestart

          ...................................................
          :                      SETUP                      :
          :.................................................:
          :  # basis functions                  28          :
          :  # atomic orbitals                  27          :
          :  # shells                           13          :
          :  # electrons                        30          :
          :  max. iterations                   250          :
          :  Hamiltonian                  GFN2-xTB          :
          :  restarted?                       true          :
          :  GBSA solvation                  false          :
          :  PC potential                    false          :
          :  electronic temp.          300.0000000     K    :
          :  accuracy                    1.0000000          :
          :  -> integral cutoff          0.2500000E+02      :
          :  -> integral neglect         0.1000000E-07      :
          :  -> SCF convergence          0.1000000E-05 Eh   :
          :  -> wf. convergence          0.1000000E-03 e    :
          :  Broyden damping             0.4000000          :
          :  net charge                         -1          :
          :  unpaired electrons                  0          :
          ...................................................

 iter      E             dE          RMSdq      gap      omega  full diag
   1    -18.2166839 -0.182167E+02  0.561E+00    5.36       0.0  T
   2    -18.2766893 -0.600054E-01  0.324E+00    1.75       1.0  T
   3    -18.1158939  0.160795E+00  0.487E+00    0.19       1.0  T
   4    -18.2551406 -0.139247E+00  0.321E+00    3.21       1.0  T
   5    -18.2677292 -0.125886E-01  0.232E+00    2.01       1.0  T
   6    -18.2804187 -0.126895E-01  0.129E+00    1.02       1.0  T
   7    -18.2829483 -0.252966E-02  0.107E+00    0.90       1.0  T
   8    -17.6722056  0.610743E+00  0.937E+00    0.06       1.0  T
   9    -17.7033716 -0.311660E-01  0.915E+00    0.07       1.0  T
  10    -18.2868924 -0.583521E+00  0.590E-01    0.47       1.0  T
  11    -18.2882997 -0.140728E-02  0.278E-01    0.63       1.0  T
  12    -18.2863713  0.192836E-02  0.655E-01    0.46       1.0  T
  13    -18.2879993 -0.162795E-02  0.368E-01    0.66       1.0  T
  14    -18.2886836 -0.684337E-03  0.101E-01    0.59       1.0  T
  15    -18.2887434 -0.597640E-04  0.156E-02    0.57       2.4  T
  16    -18.2887301  0.132415E-04  0.543E-02    0.56       1.0  T
  17    -18.2887412 -0.110054E-04  0.207E-02    0.57       1.8  T
  18    -18.2887433 -0.213947E-05  0.103E-02    0.57       3.7  T
  19    -18.2887436 -0.298506E-06  0.790E-03    0.57       4.8  T
  20    -18.2887437 -0.976952E-07  0.666E-03    0.57       5.7  T
  21    -18.2887437 -0.288162E-07  0.609E-03    0.57       6.2  T
  22    -18.2887438 -0.740798E-07  0.402E-03    0.57       9.4  T
  23    -18.2887438  0.302569E-07  0.406E-03    0.57       9.3  T
  24    -18.2887438 -0.323078E-07  0.397E-04    0.57      95.3  T
  25    -18.2887438 -0.336307E-09  0.208E-04    0.57     181.9  T

   *** convergence criteria satisfied after 25 iterations ***

         #    Occupation            Energy/Eh            Energy/eV
      -------------------------------------------------------------
         1        2.0000           -0.8504928             -23.1431
       ...           ...                  ...                  ...
         9        2.0000           -0.3442400              -9.3672
        10        2.0000           -0.3341507              -9.0927
        11        2.0000           -0.2663565              -7.2479
        12        2.0000           -0.2610665              -7.1040
        13        2.0000           -0.2281578              -6.2085
        14        2.0000           -0.2003473              -5.4517
        15        2.0000           -0.0521161              -1.4182 (HOMO)
        16        0.0000           -0.0312614              -0.8507 (LUMO)
        17                         -0.0249976              -0.6802
        18                          0.1069013               2.9089
        19                          0.2444675               6.6523
        20                          0.2445264               6.6539
       ...                                ...                  ...
        27                          1.5541965              42.2918
      -------------------------------------------------------------
                  HL-Gap            0.0208547 Eh            0.5675 eV
             Fermi-level           -0.0416894 Eh           -1.1344 eV

 SCC (total)                   0 d,  0 h,  0 min,  0.030 sec
 SCC setup                      ...        0 min,  0.000 sec (  0.870%)
 Dispersion                     ...        0 min,  0.000 sec (  0.200%)
 classical contributions        ...        0 min,  0.000 sec (  0.086%)
 integral evaluation            ...        0 min,  0.023 sec ( 75.337%)
 iterations                     ...        0 min,  0.006 sec ( 20.151%)
 molecular gradient             ...        0 min,  0.001 sec (  2.965%)
 printout                       ...        0 min,  0.000 sec (  0.273%)

         :::::::::::::::::::::::::::::::::::::::::::::::::::::
         ::                     SUMMARY                     ::
         :::::::::::::::::::::::::::::::::::::::::::::::::::::
         :: total energy             -18.119616708767 Eh    ::
         :: gradient norm              0.094914555793 Eh/a0 ::
         :: HOMO-LUMO gap              0.567485651950 eV    ::
         ::.................................................::
         :: SCC energy               -18.288741484915 Eh    ::
         :: -> isotropic ES            0.157491636871 Eh    ::
         :: -> anisotropic ES         -0.002358332318 Eh    ::
         :: -> anisotropic XC         -0.007052069236 Eh    ::
         :: -> dispersion             -0.004650315903 Eh    ::
         :: repulsion energy           0.169124776148 Eh    ::
         :: add. restraining           0.000000000000 Eh    ::
         :: total charge              -1.000000000000 e     ::
         :::::::::::::::::::::::::::::::::::::::::::::::::::::

      ----------------------------------------------------------- 
     |                   =====================                   |
     |                        A N C O P T                        |
     |                   =====================                   |
     |               Approximate Normal Coordinate               |
     |                Rational Function Optimizer                |
      ----------------------------------------------------------- 
      ----------------------------------------------------------- 
     |                   =====================                   |
     |                        A N C O P T                        |
     |                   =====================                   |
     |               Approximate Normal Coordinate               |
     |                Rational Function Optimizer                |
      ----------------------------------------------------------- 

          ...................................................
          :                      SETUP                      :
          :.................................................:
          :   optimization level            normal          :
          :   max. optcycles                   200          :
          :   ANC micro-cycles                  20          :
          :   degrees of freedom                15          :
          :.................................................:
          :   RF solver                   davidson          :
          :   write xtbopt.log                true          :
          :   linear?                        false          :
          :   energy convergence         0.5000000E-05 Eh   :
          :   grad. convergence          0.1000000E-02 Eh/α :
          :   maxmium RF displ.          1.0000000          :
          :   Hlow (freq-cutoff)         0.1000000E-01      :
          :   Hmax (freq-cutoff)         5.0000000          :
          :   S6 in model hess.         20.0000000          :
          ...................................................

generating ANC from exact Hessian ...
Using Lindh-Hessian (1995)
 Shifting diagonal of input Hessian by   9.625914441667209E-003
 Lowest  eigenvalues of input Hessian
    0.000000    0.000000    0.000000    0.000000    0.000000    0.000000
    0.010000    0.010147    0.010395    0.010907    0.011085    0.011513
    0.015906    0.149521    0.202850    0.495210    1.136939    1.251348
 Highest eigenvalues
    0.495210    1.136939    1.251348    1.257181    1.543539    3.263248
 

........................................................................
.............................. CYCLE    1 ..............................
........................................................................

 iter      E             dE          RMSdq      gap      omega  full diag
   1    -18.2887438 -0.182887E+02  0.335E-05    0.57       0.0  T
   2    -18.2887438  0.244107E-10  0.768E-05    0.57     492.2  T
   3    -18.2887438 -0.245350E-10  0.325E-05    0.57    1164.6  T
     SCC iter.                  ...        0 min,  0.001 sec
     gradient                   ...        0 min,  0.001 sec
 * total energy  :   -18.1196167 Eh     change       -0.1190834E-09 Eh
   gradient norm :     0.0948231 Eh/α   predicted     0.0000000E+00 (-100.00%)
   displ. norm   :     0.6398036 α      lambda       -0.2235263E-01
   maximum displ.:     0.6264492 α      in ANC's #7, #4, #11, ...

........................................................................
.............................. CYCLE    2 ..............................
........................................................................

 iter      E             dE          RMSdq      gap      omega  full diag
   1    -18.2766696 -0.182767E+02  0.239E+00    1.18       0.0  T
   2    -18.2784233 -0.175365E-02  0.144E+00    1.89       1.0  T
   3    -18.2785091 -0.858508E-04  0.114E+00    1.24       1.0  T
   4    -18.2816525 -0.314332E-02  0.290E-01    1.61       1.0  T
   5    -18.2820395 -0.387071E-03  0.111E-01    1.49       1.0  T
   6    -18.2820318  0.773069E-05  0.968E-02    1.45       1.0  T
   7    -18.2820474 -0.155456E-04  0.686E-02    1.51       1.0  T
   8    -18.2820414  0.596055E-05  0.708E-02    1.45       1.0  T
   9    -18.2820719 -0.305007E-04  0.806E-03    1.48       4.7  T
  10    -18.2820721 -0.216420E-06  0.402E-03    1.48       9.4  T
  11    -18.2820721 -0.143208E-07  0.290E-03    1.48      13.0  T
  12    -18.2820722 -0.288888E-07  0.190E-03    1.48      19.9  T
  13    -18.2820722 -0.186320E-07  0.541E-04    1.48      69.9  T
  14    -18.2820722 -0.103342E-08  0.357E-04    1.48     105.9  T
     SCC iter.                  ...        0 min,  0.002 sec
     gradient                   ...        0 min,  0.001 sec
 * total energy  :   -18.1510589 Eh     change       -0.3144216E-01 Eh
   gradient norm :     0.0717501 Eh/α   predicted    -0.1575132E-01 ( -49.90%)
   displ. norm   :     0.8789057 α      lambda       -0.2867463E-01
   maximum displ.:     0.8060794 α      in ANC's #7, #4, #12, ...

........................................................................
.............................. CYCLE    3 ..............................
........................................................................

 iter      E             dE          RMSdq      gap      omega  full diag
   1    -18.1852577 -0.181853E+02  0.305E+00    2.91       0.0  T
   2    -18.1954157 -0.101580E-01  0.169E+00    3.75       1.0  T
   3    -18.2026234 -0.720775E-02  0.133E+00    3.34       1.0  T
   4    -18.2061106 -0.348721E-02  0.325E-01    3.57       1.0  T
   5    -18.2062579 -0.147278E-03  0.142E-01    3.48       1.0  T
   6    -18.2062824 -0.244794E-04  0.645E-02    3.47       1.0  T
   7    -18.2062944 -0.119737E-04  0.331E-02    3.48       1.1  T
   8    -18.2062970 -0.257644E-05  0.249E-02    3.47       1.5  T
   9    -18.2062978 -0.889103E-06  0.114E-02    3.47       3.3  T
  10    -18.2062984 -0.525124E-06  0.522E-03    3.47       7.2  T
  11    -18.2062984 -0.687157E-07  0.282E-03    3.47      13.4  T
  12    -18.2062984 -0.910611E-08  0.148E-03    3.47      25.5  T
  13    -18.2062985 -0.436021E-08  0.128E-03    3.47      29.5  T
  14    -18.2062985 -0.257463E-08  0.371E-04    3.47     102.0  T
  15    -18.2062985 -0.220773E-09  0.522E-05    3.47     723.6  T
     SCC iter.                  ...        0 min,  0.003 sec
     gradient                   ...        0 min,  0.001 sec
 * total energy  :   -18.1139768 Eh     change        0.3708202E-01 Eh
   gradient norm :     0.1780882 Eh/α   predicted    -0.2541257E-01 (-168.53%)
   displ. norm   :     0.4905140 α      lambda       -0.7578161E-01
   maximum displ.:     0.4674409 α      in ANC's #7, #4, #12, ...

........................................................................
.............................. CYCLE    4 ..............................
........................................................................

 iter      E             dE          RMSdq      gap      omega  full diag
   1    -18.2680913 -0.182681E+02  0.168E+00    2.76       0.0  T
   2    -18.2701590 -0.206777E-02  0.973E-01    2.55       1.0  T
   3    -18.2709678 -0.808754E-03  0.766E-01    2.94       1.0  T
   4    -18.2719820 -0.101418E-02  0.255E-01    2.82       1.0  T
   5    -18.2720444 -0.624295E-04  0.143E-01    2.84       1.0  T
   6    -18.2720779 -0.335550E-04  0.549E-02    2.79       1.0  T
   7    -18.2720791 -0.119724E-05  0.353E-02    2.82       1.1  T
   8    -18.2720811 -0.198044E-05  0.297E-02    2.79       1.3  T
   9    -18.2720860 -0.482941E-05  0.694E-03    2.80       5.4  T
  10    -18.2720860 -0.779713E-07  0.400E-03    2.80       9.4  T
  11    -18.2720860 -0.124887E-07  0.148E-03    2.80      25.6  T
  12    -18.2720860  0.159371E-08  0.124E-03    2.80      30.6  T
  13    -18.2720861 -0.914679E-08  0.173E-04    2.80     218.7  T
  14    -18.2720861  0.397449E-09  0.267E-04    2.80     141.7  T
     SCC iter.                  ...        0 min,  0.002 sec
     gradient                   ...        0 min,  0.001 sec
 * total energy  :   -18.1639000 Eh     change       -0.4992318E-01 Eh
   gradient norm :     0.0921535 Eh/α   predicted    -0.4700741E-01 (  -5.84%)
   displ. norm   :     0.5691232 α      lambda       -0.1948410E-01
   maximum displ.:     0.4810882 α      in ANC's #6, #4, #7, ...

........................................................................
.............................. CYCLE    5 ..............................
........................................................................

 iter      E             dE          RMSdq      gap      omega  full diag
   1    -18.2907668 -0.182908E+02  0.154E+00    2.72       0.0  T
   2    -18.2942648 -0.349805E-02  0.102E+00    3.57       1.0  T
   3    -18.2980229 -0.375801E-02  0.370E-01    3.22       1.0  T
   4    -18.2981916 -0.168738E-03  0.155E-01    3.35       1.0  T
   5    -18.2982035 -0.119266E-04  0.688E-02    3.35       1.0  T
   6    -18.2982105 -0.693878E-05  0.253E-02    3.34       1.5  T
   7    -18.2982105 -0.493094E-07  0.205E-02    3.33       1.8  T
   8    -18.2982119 -0.140391E-05  0.766E-03    3.34       4.9  T
   9    -18.2982121 -0.164015E-06  0.167E-03    3.33      22.7  T
  10    -18.2982121 -0.226944E-08  0.728E-04    3.33      51.9  T
  11    -18.2982121 -0.420812E-09  0.289E-04    3.33     130.8  T
     SCC iter.                  ...        0 min,  0.002 sec
     gradient                   ...        0 min,  0.001 sec
 * total energy  :   -18.1792062 Eh     change       -0.1530613E-01 Eh
   gradient norm :     0.0917886 Eh/α   predicted    -0.1289752E-01 ( -15.74%)
   displ. norm   :     0.6755769 α      lambda       -0.2134737E-01
   maximum displ.:     0.5636375 α      in ANC's #6, #4, #12, ...

........................................................................
.............................. CYCLE    6 ..............................
........................................................................

 iter      E             dE          RMSdq      gap      omega  full diag
   1    -18.2971705 -0.182972E+02  0.207E+00    3.50       0.0  T
   2    -18.3102286 -0.130581E-01  0.136E+00    4.35       1.0  T
   3    -18.3166441 -0.641549E-02  0.424E-01    4.12       1.0  T
   4    -18.3167586 -0.114493E-03  0.168E-01    4.18       1.0  T
   5    -18.3167907 -0.321100E-04  0.963E-02    4.17       1.0  T
   6    -18.3167986 -0.798188E-05  0.342E-02    4.18       1.1  T
   7    -18.3167998 -0.114492E-05  0.240E-02    4.17       1.6  T
   8    -18.3168016 -0.185322E-05  0.776E-03    4.17       4.9  T
   9    -18.3168017 -0.919004E-07  0.117E-03    4.17      32.4  T
  10    -18.3168017 -0.416343E-09  0.476E-04    4.17      79.4  T
  11    -18.3168017 -0.490036E-09  0.125E-04    4.17     301.9  T
     SCC iter.                  ...        0 min,  0.002 sec
     gradient                   ...        0 min,  0.001 sec
 * total energy  :   -18.1980314 Eh     change       -0.1882521E-01 Eh
   gradient norm :     0.1062352 Eh/α   predicted    -0.1554519E-01 ( -17.42%)
   displ. norm   :     0.5555141 α      lambda       -0.2811448E-01
   maximum displ.:     0.3494269 α      in ANC's #6, #12, #4, ...

........................................................................
.............................. CYCLE    7 ..............................
........................................................................

 iter      E             dE          RMSdq      gap      omega  full diag
   1    -18.2968531 -0.182969E+02  0.185E+00    4.12       0.0  T
   2    -18.3099486 -0.130956E-01  0.120E+00    4.06       1.0  T
   3    -18.3122982 -0.234955E-02  0.565E-01    3.99       1.0  T
   4    -18.3124595 -0.161266E-03  0.197E-01    3.87       1.0  T
   5    -18.3124694 -0.990678E-05  0.941E-02    3.86       1.0  T
   6    -18.3124840 -0.146436E-04  0.380E-02    3.87       1.0  T
   7    -18.3124865 -0.245144E-05  0.190E-02    3.88       2.0  T
   8    -18.3124872 -0.785043E-06  0.939E-03    3.87       4.0  T
   9    -18.3124874 -0.185766E-06  0.197E-03    3.88      19.2  T
  10    -18.3124874 -0.383617E-08  0.337E-04    3.87     112.2  T
  11    -18.3124874 -0.170658E-09  0.259E-04    3.87     145.9  T
     SCC iter.                  ...        0 min,  0.002 sec
     gradient                   ...        0 min,  0.001 sec
 * total energy  :   -18.2117195 Eh     change       -0.1368809E-01 Eh
   gradient norm :     0.0918722 Eh/α   predicted    -0.1839524E-01 (  34.39%)
   displ. norm   :     0.1788513 α      lambda       -0.1118307E-01
   maximum displ.:     0.1221238 α      in ANC's #6, #12, #14, ...

........................................................................
.............................. CYCLE    8 ..............................
........................................................................

 iter      E             dE          RMSdq      gap      omega  full diag
   1    -18.3218580 -0.183219E+02  0.351E-01    4.01       0.0  T
   2    -18.3221972 -0.339187E-03  0.256E-01    4.07       1.0  T
   3    -18.3222667 -0.694802E-04  0.138E-01    4.09       1.0  T
   4    -18.3222758 -0.907598E-05  0.458E-02    4.12       1.0  T
   5    -18.3222770 -0.126010E-05  0.174E-02    4.11       2.2  T
   6    -18.3222773 -0.317717E-06  0.133E-02    4.11       2.8  T
   7    -18.3222778 -0.462985E-06  0.498E-03    4.11       7.6  T
   8    -18.3222778 -0.455741E-07  0.245E-03    4.11      15.4  T
   9    -18.3222779 -0.156340E-07  0.973E-04    4.11      38.8  T
  10    -18.3222779 -0.158643E-08  0.634E-04    4.11      59.7  T
     SCC iter.                  ...        0 min,  0.002 sec
     gradient                   ...        0 min,  0.001 sec
 * total energy  :   -18.2181859 Eh     change       -0.6466458E-02 Eh
   gradient norm :     0.0393639 Eh/α   predicted    -0.5770393E-02 ( -10.76%)
   displ. norm   :     0.4160549 α      lambda       -0.5506605E-02
   maximum displ.:     0.3166391 α      in ANC's #6, #5, #4, ...

........................................................................
.............................. CYCLE    9 ..............................
........................................................................

 iter      E             dE          RMSdq      gap      omega  full diag
   1    -18.3156856 -0.183157E+02  0.688E-01    3.94       0.0  T
   2    -18.3166714 -0.985803E-03  0.398E-01    3.97       1.0  T
   3    -18.3167133 -0.418840E-04  0.218E-01    3.99       1.0  T
   4    -18.3167253 -0.120060E-04  0.496E-02    4.00       1.0  T
   5    -18.3167282 -0.291458E-05  0.414E-02    4.00       1.0  T
   6    -18.3167338 -0.565299E-05  0.187E-02    4.00       2.0  T
   7    -18.3167351 -0.126480E-05  0.611E-03    4.01       6.2  T
   8    -18.3167351 -0.509982E-07  0.245E-03    4.01      15.4  T
   9    -18.3167351 -0.619010E-08  0.665E-04    4.01      56.9  T
  10    -18.3167351 -0.904890E-09  0.468E-04    4.01      80.7  T
     SCC iter.                  ...        0 min,  0.002 sec
     gradient                   ...        0 min,  0.001 sec
 * total energy  :   -18.2160342 Eh     change        0.2151741E-02 Eh
   gradient norm :     0.0905530 Eh/α   predicted    -0.3229912E-02 (-250.11%)
   displ. norm   :     0.4338800 α      lambda       -0.1502755E-01
   maximum displ.:     0.3155011 α      in ANC's #5, #6, #3, ...

........................................................................
.............................. CYCLE   10 ..............................
........................................................................

 iter      E             dE          RMSdq      gap      omega  full diag
   1    -18.3091119 -0.183091E+02  0.889E-01    3.99       0.0  T
   2    -18.3117927 -0.268077E-02  0.513E-01    4.01       1.0  T
   3    -18.3119133 -0.120597E-03  0.289E-01    4.04       1.0  T
   4    -18.3119162 -0.298023E-05  0.356E-02    4.03       1.1  T
   5    -18.3119199 -0.363299E-05  0.233E-02    4.03       1.6  T
   6    -18.3119208 -0.880707E-06  0.137E-02    4.03       2.8  T
   7    -18.3119212 -0.464891E-06  0.762E-03    4.03       5.0  T
   8    -18.3119214 -0.178295E-06  0.431E-03    4.04       8.8  T
   9    -18.3119214 -0.356353E-07  0.269E-03    4.04      14.1  T
  10    -18.3119215 -0.213889E-07  0.634E-04    4.04      59.6  T
  11    -18.3119215 -0.516227E-09  0.282E-04    4.04     134.2  T
     SCC iter.                  ...        0 min,  0.002 sec
     gradient                   ...        0 min,  0.001 sec
 * total energy  :   -18.2170264 Eh     change       -0.9922569E-03 Eh
   gradient norm :     0.0730805 Eh/α   predicted    -0.8928263E-02 ( 799.79%)
   displ. norm   :     0.4977804 α      lambda       -0.1279549E-01
   maximum displ.:     0.4706230 α      in ANC's #6, #12, #5, ...

........................................................................
.............................. CYCLE   11 ..............................
........................................................................

 iter      E             dE          RMSdq      gap      omega  full diag
   1    -18.3313648 -0.183314E+02  0.706E-01    4.64       0.0  T
   2    -18.3318250 -0.460208E-03  0.467E-01    4.59       1.0  T
   3    -18.3319000 -0.749588E-04  0.240E-01    4.57       1.0  T
   4    -18.3319774 -0.774712E-04  0.131E-01    4.55       1.0  T
   5    -18.3320064 -0.289485E-04  0.977E-02    4.55       1.0  T
   6    -18.3320412 -0.347770E-04  0.355E-02    4.53       1.1  T
   7    -18.3320448 -0.359688E-05  0.955E-03    4.52       4.0  T
   8    -18.3320450 -0.223534E-06  0.365E-03    4.52      10.4  T
   9    -18.3320450 -0.900177E-08  0.119E-03    4.52      31.8  T
  10    -18.3320450 -0.196708E-08  0.878E-04    4.52      43.1  T
  11    -18.3320450 -0.199446E-08  0.190E-04    4.52     198.6  T
     SCC iter.                  ...        0 min,  0.002 sec
     gradient                   ...        0 min,  0.001 sec
 * total energy  :   -18.2213914 Eh     change       -0.4364970E-02 Eh
   gradient norm :     0.0390959 Eh/α   predicted    -0.7983004E-02 (  82.89%)
   displ. norm   :     0.2899225 α      lambda       -0.5193918E-02
   maximum displ.:     0.2272986 α      in ANC's #6, #4, #3, ...

........................................................................
.............................. CYCLE   12 ..............................
........................................................................

 iter      E             dE          RMSdq      gap      omega  full diag
   1    -18.3270598 -0.183271E+02  0.586E-01    4.51       0.0  T
   2    -18.3281420 -0.108214E-02  0.384E-01    4.58       1.0  T
   3    -18.3282544 -0.112445E-03  0.210E-01    4.60       1.0  T
   4    -18.3282628 -0.840091E-05  0.503E-02    4.62       1.0  T
   5    -18.3282655 -0.270999E-05  0.319E-02    4.62       1.2  T
   6    -18.3282672 -0.171189E-05  0.212E-02    4.61       1.8  T
   7    -18.3282681 -0.896700E-06  0.149E-02    4.62       2.5  T
   8    -18.3282690 -0.888819E-06  0.385E-03    4.62       9.8  T
   9    -18.3282690 -0.165458E-07  0.115E-03    4.62      32.9  T
  10    -18.3282690 -0.296850E-08  0.476E-04    4.62      79.5  T
  11    -18.3282690 -0.336172E-09  0.230E-04    4.62     164.5  T
     SCC iter.                  ...        0 min,  0.002 sec
     gradient                   ...        0 min,  0.001 sec
 * total energy  :   -18.2217835 Eh     change       -0.3920777E-03 Eh
   gradient norm :     0.0305937 Eh/α   predicted    -0.2815242E-02 ( 618.03%)
   displ. norm   :     0.2816025 α      lambda       -0.3133079E-02
   maximum displ.:     0.2695725 α      in ANC's #4, #3, #12, ...

........................................................................
.............................. CYCLE   13 ..............................
........................................................................

 iter      E             dE          RMSdq      gap      omega  full diag
   1    -18.3279355 -0.183279E+02  0.602E-01    4.21       0.0  T
   2    -18.3284600 -0.524494E-03  0.372E-01    4.16       1.0  T
   3    -18.3285227 -0.627723E-04  0.191E-01    4.15       1.0  T
   4    -18.3285468 -0.240760E-04  0.561E-02    4.13       1.0  T
   5    -18.3285511 -0.425207E-05  0.392E-02    4.14       1.0  T
   6    -18.3285544 -0.329762E-05  0.277E-02    4.15       1.4  T
   7    -18.3285571 -0.278511E-05  0.673E-03    4.15       5.6  T
   8    -18.3285573 -0.116283E-06  0.291E-03    4.15      13.0  T
   9    -18.3285573 -0.126861E-07  0.103E-03    4.15      36.6  T
  10    -18.3285573 -0.116083E-08  0.639E-04    4.15      59.2  T
  11    -18.3285573 -0.787125E-09  0.322E-04    4.15     117.4  T
     SCC iter.                  ...        0 min,  0.002 sec
     gradient                   ...        0 min,  0.001 sec
 * total energy  :   -18.2223561 Eh     change       -0.5726610E-03 Eh
   gradient norm :     0.0269129 Eh/α   predicted    -0.1690762E-02 ( 195.25%)
   displ. norm   :     0.2293016 α      lambda       -0.3281025E-02
   maximum displ.:     0.1754698 α      in ANC's #4, #5, #6, ...

........................................................................
.............................. CYCLE   14 ..............................
........................................................................

 iter      E             dE          RMSdq      gap      omega  full diag
   1    -18.3272992 -0.183273E+02  0.462E-01    4.71       0.0  T
   2    -18.3275685 -0.269296E-03  0.289E-01    4.69       1.0  T
   3    -18.3276015 -0.330163E-04  0.165E-01    4.68       1.0  T
   4    -18.3276303 -0.287773E-04  0.845E-02    4.67       1.0  T
   5    -18.3276444 -0.140672E-04  0.561E-02    4.67       1.0  T
   6    -18.3276545 -0.100957E-04  0.289E-02    4.66       1.3  T
   7    -18.3276574 -0.286894E-05  0.385E-03    4.65       9.8  T
   8    -18.3276574 -0.259371E-07  0.232E-03    4.65      16.3  T
   9    -18.3276574 -0.394155E-08  0.346E-04    4.65     109.2  T
  10    -18.3276574 -0.254637E-09  0.174E-04    4.65     216.8  T
     SCC iter.                  ...        0 min,  0.002 sec
     gradient                   ...        0 min,  0.001 sec
 * total energy  :   -18.2223389 Eh     change        0.1723138E-04 Eh
   gradient norm :     0.0340761 Eh/α   predicted    -0.1726773E-02 (*******%)
   displ. norm   :     0.1106818 α      lambda       -0.2248895E-02
   maximum displ.:     0.0549974 α      in ANC's #3, #6, #5, ...

........................................................................
.............................. CYCLE   15 ..............................
........................................................................

 iter      E             dE          RMSdq      gap      omega  full diag
   1    -18.3301676 -0.183302E+02  0.269E-01    4.48       0.0  T
   2    -18.3303493 -0.181784E-03  0.161E-01    4.51       1.0  T
   3    -18.3303668 -0.174219E-04  0.934E-02    4.52       1.0  T
   4    -18.3303717 -0.495346E-05  0.366E-02    4.53       1.0  T
   5    -18.3303734 -0.165382E-05  0.256E-02    4.53       1.5  T
   6    -18.3303748 -0.140562E-05  0.172E-02    4.53       2.2  T
   7    -18.3303758 -0.975590E-06  0.689E-03    4.54       5.5  T
   8    -18.3303759 -0.186296E-06  0.199E-03    4.54      19.0  T
   9    -18.3303759 -0.252932E-08  0.334E-04    4.54     113.3  T
  10    -18.3303759 -0.140822E-09  0.122E-04    4.54     310.0  T
     SCC iter.                  ...        0 min,  0.002 sec
     gradient                   ...        0 min,  0.001 sec
 * total energy  :   -18.2233527 Eh     change       -0.1013794E-02 Eh
   gradient norm :     0.0059843 Eh/α   predicted    -0.1138223E-02 (  12.27%)
   displ. norm   :     0.1019425 α      lambda       -0.2060573E-03
   maximum displ.:     0.0888980 α      in ANC's #3, #5, #6, ...

........................................................................
.............................. CYCLE   16 ..............................
........................................................................

 iter      E             dE          RMSdq      gap      omega  full diag
   1    -18.3296717 -0.183297E+02  0.139E-01    4.52       0.0  T
   2    -18.3296991 -0.273309E-04  0.793E-02    4.52       1.0  T
   3    -18.3297003 -0.119830E-05  0.387E-02    4.52       1.0  T
   4    -18.3297007 -0.418820E-06  0.724E-03    4.51       5.2  T
   5    -18.3297008 -0.788319E-07  0.521E-03    4.51       7.3  T
   6    -18.3297008 -0.450069E-07  0.299E-03    4.52      12.7  T
   7    -18.3297008 -0.218163E-07  0.135E-03    4.52      28.0  T
   8    -18.3297008 -0.592697E-08  0.483E-04    4.52      78.2  T
   9    -18.3297008 -0.346613E-09  0.228E-04    4.52     165.5  T
     SCC iter.                  ...        0 min,  0.001 sec
     gradient                   ...        0 min,  0.001 sec
 * total energy  :   -18.2232379 Eh     change        0.1147619E-03 Eh
   gradient norm :     0.0145066 Eh/α   predicted    -0.1041007E-03 (-190.71%)
   displ. norm   :     0.0823918 α      lambda       -0.4040468E-03
   maximum displ.:     0.0713075 α      in ANC's #3, #5, #4, ...

........................................................................
.............................. CYCLE   17 ..............................
........................................................................

 iter      E             dE          RMSdq      gap      omega  full diag
   1    -18.3301730 -0.183302E+02  0.123E-01    4.51       0.0  T
   2    -18.3302027 -0.297432E-04  0.740E-02    4.51       1.0  T
   3    -18.3302048 -0.203331E-05  0.383E-02    4.50       1.0  T
   4    -18.3302051 -0.356718E-06  0.764E-03    4.50       4.9  T
   5    -18.3302052 -0.616284E-07  0.479E-03    4.50       7.9  T
   6    -18.3302052 -0.323226E-07  0.291E-03    4.50      13.0  T
   7    -18.3302052 -0.161923E-07  0.182E-03    4.50      20.8  T
   8    -18.3302052 -0.110053E-07  0.610E-04    4.50      62.0  T
   9    -18.3302052 -0.587058E-09  0.216E-04    4.50     174.8  T
     SCC iter.                  ...        0 min,  0.001 sec
     gradient                   ...        0 min,  0.001 sec
 * total energy  :   -18.2234116 Eh     change       -0.1736931E-03 Eh
   gradient norm :     0.0036501 Eh/α   predicted    -0.2033960E-03 (  17.10%)
   displ. norm   :     0.0245920 α      lambda       -0.5720906E-04
   maximum displ.:     0.0218175 α      in ANC's #4, #12, #6, ...

........................................................................
.............................. CYCLE   18 ..............................
........................................................................

 iter      E             dE          RMSdq      gap      omega  full diag
   1    -18.3305978 -0.183306E+02  0.690E-02    4.53       0.0  T
   2    -18.3306092 -0.114895E-04  0.415E-02    4.54       1.0  T
   3    -18.3306106 -0.134060E-05  0.222E-02    4.54       1.7  T
   4    -18.3306108 -0.174315E-06  0.562E-03    4.54       6.7  T
   5    -18.3306108 -0.289993E-07  0.360E-03    4.54      10.5  T
   6    -18.3306108 -0.228905E-07  0.250E-03    4.54      15.1  T
   7    -18.3306108 -0.202130E-07  0.100E-03    4.54      37.6  T
   8    -18.3306108 -0.353875E-08  0.411E-04    4.54      92.0  T
   9    -18.3306108 -0.306610E-09  0.112E-04    4.54     337.8  T
     SCC iter.                  ...        0 min,  0.002 sec
     gradient                   ...        0 min,  0.001 sec
 * total energy  :   -18.2234284 Eh     change       -0.1679352E-04 Eh
   gradient norm :     0.0020972 Eh/α   predicted    -0.2862283E-04 (  70.44%)
   displ. norm   :     0.0118144 α      lambda       -0.1202910E-04
   maximum displ.:     0.0085650 α      in ANC's #4, #6, #3, ...

........................................................................
.............................. CYCLE   19 ..............................
........................................................................

 iter      E             dE          RMSdq      gap      omega  full diag
   1    -18.3305436 -0.183305E+02  0.229E-02    4.53       0.0  T
   2    -18.3305448 -0.117172E-05  0.134E-02    4.53       2.8  T
   3    -18.3305449 -0.117939E-06  0.713E-03    4.53       5.3  T
   4    -18.3305449 -0.141528E-07  0.141E-03    4.53      26.9  T
   5    -18.3305449 -0.189097E-08  0.814E-04    4.53      46.4  T
   6    -18.3305449 -0.848370E-09  0.438E-04    4.53      86.4  T
     SCC iter.                  ...        0 min,  0.001 sec
     gradient                   ...        0 min,  0.001 sec
 * total energy  :   -18.2234355 Eh     change       -0.7037070E-05 Eh
   gradient norm :     0.0004910 Eh/α   predicted    -0.6015813E-05 ( -14.51%)
   displ. norm   :     0.0076238 α      lambda       -0.1451546E-05
   maximum displ.:     0.0038104 α      in ANC's #6, #4, #2, ...

........................................................................
.............................. CYCLE   20 ..............................
........................................................................

 iter      E             dE          RMSdq      gap      omega  full diag
   1    -18.3306100 -0.183306E+02  0.958E-03    4.53       0.0  T
   2    -18.3306101 -0.657795E-07  0.580E-03    4.53       6.5  T
   3    -18.3306101 -0.360869E-08  0.254E-03    4.53      14.9  T
   4    -18.3306101 -0.762680E-08  0.652E-04    4.53      58.0  T
   5    -18.3306101 -0.524786E-09  0.485E-04    4.53      77.9  T
     SCC iter.                  ...        0 min,  0.001 sec
     gradient                   ...        0 min,  0.001 sec
 * total energy  :   -18.2234365 Eh     change       -0.1026495E-05 Eh
   gradient norm :     0.0002142 Eh/α   predicted    -0.7241978E-06 ( -29.45%)
   displ. norm   :     0.0032117 α      lambda       -0.1587223E-06
   maximum displ.:     0.0025091 α      in ANC's #2, #1, #4, ...

   *** GEOMETRY OPTIMIZATION CONVERGED AFTER 20 ITERATIONS ***

------------------------------------------------------------------------
 total energy gain   :        -0.1038198 Eh      -65.1479 kcal/mol
 total RMSD          :         0.8568199 a0        0.4534 Å
 total power (kW/mol):       -13.6289398 (step)-2604.9195 (real)
------------------------------------------------------------------------

 ANCopt (total)                0 d,  0 h,  0 min,  0.105 sec
 optimizer setup                ...        0 min,  0.000 sec (  0.084%)
 model hessian                  ...        0 min,  0.000 sec (  0.403%)
 ANC generation                 ...        0 min,  0.000 sec (  0.099%)
 coordinate transformation      ...        0 min,  0.000 sec (  0.101%)
 single point calculation       ...        0 min,  0.063 sec ( 60.268%)
 optimization log               ...        0 min,  0.039 sec ( 37.663%)
 hessian update                 ...        0 min,  0.000 sec (  0.149%)
 rational function              ...        0 min,  0.001 sec (  0.582%)

================
 final structure:
================
7
 xtb: 6.7.1 (edcfbbe)
C           -0.23426547650478       -0.79999384618662        0.93577469552633
C           -0.40357216963745       -0.76781615865088       -0.67001565010804
Cl          -1.69809831053965       -1.29391163161556        1.79730556383966
H            0.54240780550002       -1.51784742155326        1.20612284727671
H            0.01671817534764        0.19916633054899        1.29668940522899
O           -0.70819603400497        0.33567183972042       -1.11971002455924
O           -0.08228099016071       -1.81417411226307       -1.23039483720450
 
 Bond Distances (Angstroems)
 ---------------------------
C1-C2=1.6150         C1-Cl3=1.7689        C1-H4=1.0916         C1-H5=1.0916         C2-C1=1.6150         C2-O6=1.2299         
C2-O7=1.2297         Cl3-C1=1.7689        H4-C1=1.0916         H5-C1=1.0916         O6-C2=1.2299         O7-C2=1.2297         
 C  H  Rav=1.0916 sigma=0.0000  Rmin=1.0916  Rmax=1.0916     2
 C  C  Rav=1.6150 sigma=0.0000  Rmin=1.6150  Rmax=1.6150     1
 O  C  Rav=1.2298 sigma=0.0001  Rmin=1.2297  Rmax=1.2299     2
 Cl C  Rav=1.7689 sigma=0.0000  Rmin=1.7689  Rmax=1.7689     1
 
 selected bond angles (degree)
 --------------------
Cl3-C1-C2=113.77               H4-C1-C2=109.51                H4-C1-Cl3=106.53               H5-C1-C2=109.55                
H5-C1-Cl3=106.55               H5-C1-H4=110.88                O6-C2-C1=114.04                O7-C2-C1=114.13                
O7-C2-O6=131.42                
 
 selected dihedral angles (degree)
 ---------------------------------
O6-C2-C1-Cl3= 94.08           O6-C2-C1-H4=213.15            O6-C2-C1-H5=334.96            O7-C2-C1-Cl3=267.54           
O7-C2-C1-H4= 26.61            O7-C2-C1-H5=148.42            
 
 CMA Distance (Angstroems)
 ---------------------------
R(CMA):  2.7722
           -------------------------------------------------
          |                Final Singlepoint                |
           -------------------------------------------------

          ...................................................
          :                      SETUP                      :
          :.................................................:
          :  # basis functions                  28          :
          :  # atomic orbitals                  27          :
          :  # shells                           13          :
          :  # electrons                        30          :
          :  max. iterations                   250          :
          :  Hamiltonian                  GFN2-xTB          :
          :  restarted?                      false          :
          :  GBSA solvation                  false          :
          :  PC potential                    false          :
          :  electronic temp.          300.0000000     K    :
          :  accuracy                    1.0000000          :
          :  -> integral cutoff          0.2500000E+02      :
          :  -> integral neglect         0.1000000E-07      :
          :  -> SCF convergence          0.1000000E-05 Eh   :
          :  -> wf. convergence          0.1000000E-03 e    :
          :  Broyden damping             0.4000000          :
          :  net charge                         -1          :
          :  unpaired electrons                  0          :
          ...................................................

 iter      E             dE          RMSdq      gap      omega  full diag
   1    -18.3306101 -0.183306E+02  0.313E-04    4.53       0.0  T
   2    -18.3306101 -0.962572E-10  0.263E-04    4.53     143.9  T
   3    -18.3306101 -0.160192E-09  0.161E-04    4.53     234.1  T

   *** convergence criteria satisfied after 3 iterations ***

         #    Occupation            Energy/Eh            Energy/eV
      -------------------------------------------------------------
         1        2.0000           -0.9112138             -24.7954
       ...           ...                  ...                  ...
         9        2.0000           -0.3230705              -8.7912
        10        2.0000           -0.3097982              -8.4300
        11        2.0000           -0.2785561              -7.5799
        12        2.0000           -0.2677883              -7.2869
        13        2.0000           -0.2229507              -6.0668
        14        2.0000           -0.2089307              -5.6853
        15        2.0000           -0.1912905              -5.2053 (HOMO)
        16                         -0.0247144              -0.6725 (LUMO)
        17                          0.0284596               0.7744
        18                          0.1645187               4.4768
        19                          0.1723941               4.6911
        20                          0.1743781               4.7451
       ...                                ...                  ...
        27                          0.8915829              24.2612
      -------------------------------------------------------------
                  HL-Gap            0.1665761 Eh            4.5328 eV
             Fermi-level           -0.1080025 Eh           -2.9389 eV

 SCC (total)                   0 d,  0 h,  0 min,  0.002 sec
 SCC setup                      ...        0 min,  0.000 sec (  3.028%)
 Dispersion                     ...        0 min,  0.000 sec (  1.118%)
 classical contributions        ...        0 min,  0.000 sec (  0.384%)
 integral evaluation            ...        0 min,  0.000 sec ( 23.783%)
 iterations                     ...        0 min,  0.001 sec ( 27.009%)
 molecular gradient             ...        0 min,  0.001 sec ( 40.543%)
 printout                       ...        0 min,  0.000 sec (  2.877%)

         :::::::::::::::::::::::::::::::::::::::::::::::::::::
         ::                     SUMMARY                     ::
         :::::::::::::::::::::::::::::::::::::::::::::::::::::
         :: total energy             -18.223436489568 Eh    ::
         :: gradient norm              0.010439465784 Eh/a0 ::
         :: HOMO-LUMO gap              4.532766187222 eV    ::
         ::.................................................::
         :: SCC energy               -18.330609236163 Eh    ::
         :: -> isotropic ES            0.187283462019 Eh    ::
         :: -> anisotropic ES         -0.003171331451 Eh    ::
         :: -> anisotropic XC         -0.007695552046 Eh    ::
         :: -> dispersion             -0.004451248455 Eh    ::
         :: repulsion energy           0.107172746595 Eh    ::
         :: add. restraining           0.000000000000 Eh    ::
         :: total charge              -1.000000000000 e     ::
         :::::::::::::::::::::::::::::::::::::::::::::::::::::

           ------------------------------------------------- 
          |                Numerical Hessian                |
           ------------------------------------------------- 
step length          :   0.00500
SCC accuracy         :   0.30000
Hessian scale factor :   1.00000
frozen atoms in %    :   0.00000    0
RMS gradient         :   0.01044 !! INCOMPLETELY OPTIMIZED GEOMETRY !!
estimated CPU  time      0.00 min
estimated wall time      0.00 min

writing file <hessian>.

 projected vibrational frequencies (cm⁻¹)
eigval :       -0.00    -0.00    -0.00     0.00     0.00     0.00
eigval :      -37.67   155.65   383.36   530.18   686.12   771.76
eigval :      778.99   884.58  1115.77  1204.70  1297.96  1415.15
eigval :     1833.36  2963.54  2970.93
           -------------------------------------------------
          |                Property Printout                |
           -------------------------------------------------

    * Orbital Energies and Occupations

         #    Occupation            Energy/Eh            Energy/eV
      -------------------------------------------------------------
         1        2.0000           -0.9112143             -24.7954
       ...           ...                  ...                  ...
         3        2.0000           -0.4853088             -13.2059
         4        2.0000           -0.4543691             -12.3640
         5        2.0000           -0.3895667             -10.6006
         6        2.0000           -0.3586451              -9.7592
         7        2.0000           -0.3583290              -9.7506
         8        2.0000           -0.3515212              -9.5654
         9        2.0000           -0.3230720              -8.7912
        10        2.0000           -0.3097997              -8.4301
        11        2.0000           -0.2785567              -7.5799
        12        2.0000           -0.2677891              -7.2869
        13        2.0000           -0.2229523              -6.0668
        14        2.0000           -0.2089323              -5.6853
        15        2.0000           -0.1912920              -5.2053 (HOMO)
        16                         -0.0247168              -0.6726 (LUMO)
        17                          0.0284574               0.7744
        18                          0.1645183               4.4768
        19                          0.1723941               4.6911
        20                          0.1743778               4.7451
        21                          0.1754822               4.7751
        22                          0.2493795               6.7860
        23                          0.2983974               8.1198
        24                          0.3330883               9.0638
        25                          0.3548502               9.6560
        26                          0.6000111              16.3271
        27                          0.8915807              24.2611
      -------------------------------------------------------------
                  HL-Gap            0.1665752 Eh            4.5327 eV
             Fermi-level           -0.1080044 Eh           -2.9389 eV

     #   Z          covCN         q      C6AA      α(0)
     1   6 C        3.699     0.003    20.691     6.505
     2   6 C        2.680     0.374    20.666     7.439
     3  17 Cl       0.897    -0.272   107.803    15.884
     4   1 H        0.925     0.015     2.817     2.625
     5   1 H        0.925     0.015     2.814     2.623
     6   8 O        0.856    -0.567    25.326     6.747
     7   8 O        0.856    -0.567    25.316     6.746

 Mol. C6AA /au·bohr⁶  :       1075.856719
 Mol. C8AA /au·bohr⁸  :      29719.771730
 Mol. α(0) /au        :         48.569804


Wiberg/Mayer (AO) data.
largest (>0.10) Wiberg bond orders for each atom

 ---------------------------------------------------------------------------
     #   Z sym  total        # sym  WBO       # sym  WBO       # sym  WBO
 ---------------------------------------------------------------------------
     1   6 C    3.855 --     5 H    0.987     4 H    0.987     3 Cl   0.920
                             2 C    0.827
     2   6 C    3.948 --     7 O    1.555     6 O    1.554     1 C    0.827
     3  17 Cl   0.969 --     1 C    0.920
     4   1 H    1.000 --     1 C    0.987
     5   1 H    1.000 --     1 C    0.987
     6   8 O    1.885 --     2 C    1.554     7 O    0.243
     7   8 O    1.886 --     2 C    1.555     6 O    0.243
 ---------------------------------------------------------------------------

Topologies differ in total number of bonds
Writing topology from bond orders to xtbtopo.mol

molecular dipole:
                 x           y           z       tot (Debye)
 q only:        1.450       1.666       1.194
   full:        1.734       1.751       1.194       6.960
molecular quadrupole (traceless):
                xx          xy          yy          xz          yz          zz
 q only:        4.186      -2.376      -1.815       2.326      -1.347      -2.370
  q+dip:        4.390      -3.549      -0.832       5.698      -0.173      -3.559
   full:        5.424      -2.966      -1.448       5.076      -0.384      -3.976

           -------------------------------------------------
          |                Geometry Summary                 |
           -------------------------------------------------

      molecular mass/u    :       93.4891007
   center of mass at/Å    :       -0.8551525      -0.9593350       0.3405164
  moments of inertia/u·Å² :        0.5692647E+02   0.2150117E+03   0.2417568E+03
rotational constants/cm⁻¹ :        0.2961299E+00   0.7840333E-01   0.6972972E-01

 * 5 selected distances

     #   Z          #   Z                                           value/Å
     1   6 C        3  17 Cl                                      1.7688972 (max)
     1   6 C        4   1 H                                       1.0916151
     1   6 C        5   1 H                                       1.0915922 (min)
     2   6 C        6   8 O                                       1.2299214
     2   6 C        7   8 O                                       1.2296821

 * 3 distinct bonds (by element types)

   Z      Z             #   av. dist./Å        max./Å        min./Å
   1 H    6 C           2     1.0916036     1.0916151     1.0915922
   6 C    8 O           2     1.2298018     1.2299214     1.2296821
   6 C   17 Cl          1     1.7688972     1.7688972     1.7688972

           -------------------------------------------------
          |               Frequency Printout                |
           -------------------------------------------------
 projected vibrational frequencies (cm⁻¹)
eigval :       -0.00    -0.00    -0.00     0.00     0.00     0.00
eigval :      -37.67   155.65   383.36   530.18   686.12   771.76
eigval :      778.99   884.58  1115.77  1204.70  1297.96  1415.15
eigval :     1833.36  2963.54  2970.93
 reduced masses (amu)
   1: 16.00   2: 21.13   3: 27.17   4: 27.36   5: 17.62   6: 19.79   7: 16.05   8: 23.64
   9: 10.40  10: 14.78  11: 15.38  12: 13.42  13: 12.76  14:  6.96  15:  1.54  16:  3.14
  17: 14.75  18:  1.91  19: 13.17  20:  1.44  21:  2.05
 IR intensities (km·mol⁻¹)
   1: 12.85   2: 11.21   3:  5.48   4:  2.31   5:  2.06   6:  8.48   7:  1.58   8:  6.83
   9:  0.64  10:  3.67  11: 44.18  12:176.42  13: 73.92  14:  1.00  15:  0.15  16:  2.93
  17:327.82  18: 10.21  19:608.54  20: 21.94  21: 44.53
 Raman intensities (Ä⁴*amu⁻¹)
   1:  0.00   2:  0.00   3:  0.00   4:  0.00   5:  0.00   6:  0.00   7:  0.00   8:  0.00
   9:  0.00  10:  0.00  11:  0.00  12:  0.00  13:  0.00  14:  0.00  15:  0.00  16:  0.00
  17:  0.00  18:  0.00  19:  0.00  20:  0.00  21:  0.00
 output can be read by thermo (or use thermo option).
 writing <g98.out> molden fake output.
 recommended (thermochemical) frequency scaling factor: 1.0
           -------------------------------------------------
          |             Thermodynamic Functions             |
           -------------------------------------------------

Molecule has the following symmetry elements: (sigma) 
It seems to be the Cs point group
cs  symmetry found (for desy threshold:  0.10E+00) used in thermo

          ...................................................
          :                      SETUP                      :
          :.................................................:
          :  # frequencies                          14      :
          :  # imaginary freq.                       1      :
          :  linear?                             false      :
          :  only rotor calc.                    false      :
          :  symmetry                               cs      :
          :  rotational number                       1      :
          :  scaling factor                  1.0000000      :
          :  rotor cutoff                   50.0000000 cm⁻¹ :
          :  imag. cutoff                  -20.0000000 cm⁻¹ :
          :.................................................:

    mode    ω/cm⁻¹     T·S(HO)/kcal·mol⁻¹    T·S(FR)/kcal·mol⁻¹   T·S(vib)
   ------------------------------------------------------------------------
       1    155.65    -0.77580 ( 98.95%)    -0.71996 (  1.05%)    -0.77521
   ------------------------------------------------------------------------

   temp. (K)  partition function   enthalpy   heat capacity  entropy
                                   cal/mol     cal/K/mol   cal/K/mol   J/K/mol
 298.15  VIB   2.72                  984.446      8.079      5.287
         ROT  0.131E+06              888.752      2.981     26.403
         INT  0.357E+06             1873.199     11.060     31.690
         TR   0.875E+27             1481.254      4.968     39.499
         TOT                        3354.4526    16.0277    71.1896   297.8574

       T/K    H(0)-H(T)+PV         H(T)/Eh          T*S/Eh         G(T)/Eh
   ------------------------------------------------------------------------
    298.15    0.534566E-02    0.440564E-01    0.338245E-01    0.102319E-01
   ------------------------------------------------------------------------

         :::::::::::::::::::::::::::::::::::::::::::::::::::::
         ::                  THERMODYNAMIC                  ::
         :::::::::::::::::::::::::::::::::::::::::::::::::::::
         :: total free energy         -18.213204549136 Eh   ::
         ::.................................................::
         :: total energy              -18.223436489663 Eh   ::
         :: zero point energy           0.038710773675 Eh   ::
         :: G(RRHO) w/o ZPVE           -0.028478833148 Eh   ::
         :: G(RRHO) contrib.            0.010231940527 Eh   ::
         :::::::::::::::::::::::::::::::::::::::::::::::::::::
imag cut-off (cm-1) :    5.00
 found            1  significant imaginary frequency
 writing imag mode distorted coords to xtbhess.xyz
 for further optimization.

optimized geometry written to: xtbopt.xyz


           -------------------------------------------------
          | TOTAL ENERGY              -18.223436489663 Eh   |
          | TOTAL ENTHALPY            -18.179380055511 Eh   |
          | TOTAL FREE ENERGY         -18.213204549136 Eh   |
          | GRADIENT NORM               0.010439410858 Eh/α |
          | HOMO-LUMO GAP               4.532742822354 eV   |
           -------------------------------------------------
########################################################################
[WARNING] Runtime exception occurred
-1- hessian_numhess: Hessian on incompletely optimized geometry!
########################################################################

------------------------------------------------------------------------
 * finished run on 2025/10/18 at 21:06:22.442     
------------------------------------------------------------------------
 total:
 * wall-time:     0 d,  0 h,  0 min,  1.127 sec
 *  cpu-time:     0 d,  0 h,  0 min,  0.959 sec
 * ratio c/w:     0.851 speedup
 SCF:
 * wall-time:     0 d,  0 h,  0 min,  0.030 sec
 *  cpu-time:     0 d,  0 h,  0 min,  0.041 sec
 * ratio c/w:     1.348 speedup
 ANC optimizer:
 * wall-time:     0 d,  0 h,  0 min,  0.288 sec
 *  cpu-time:     0 d,  0 h,  0 min,  0.357 sec
 * ratio c/w:     1.241 speedup
 analytical hessian:
 * wall-time:     0 d,  0 h,  0 min,  0.351 sec
 *  cpu-time:     0 d,  0 h,  0 min,  0.343 sec
 * ratio c/w:     0.978 speedup

