7
 energy: -18.119616708886 gnorm: 0.094909868866 xtb: 6.7.1 (edcfbbe)
C           -0.16327289018103       -0.81304944774459        1.58455832159786
C           -0.43253964067672       -0.73637798493681       -1.44190166243915
Cl          -1.75805614439891       -1.30398560575791        1.75269203875664
H            0.59693093349965       -1.56644156098070        1.56493117973891
H            0.05346733235844        0.23243053451801        1.65968947260540
O           -0.76159293852211        0.35830392404427       -1.39552695269200
O           -0.10222365207932       -1.82978485914228       -1.50867039756766
7
 energy: -18.151058864545 gnorm: 0.072035560400 xtb: 6.7.1 (edcfbbe)
C           -0.17635015654588       -0.80072558965174        1.27500347690091
C           -0.42553425755974       -0.73702126982574       -1.39053873746383
Cl          -1.75716471441016       -1.30722749556845        1.81969718126535
H            0.59162448812968       -1.55879317815867        1.62765195983647
H            0.05506947137908        0.21714730135927        1.72122871245415
O           -0.76349292489106        0.37895783105509       -1.36078963118858
O           -0.09143890610191       -1.85124259920977       -1.47648096180447
7
 energy: -18.113976844612 gnorm: 0.178188768606 xtb: 6.7.1 (edcfbbe)
C           -0.19327313939222       -0.78413517995825        0.86166241556444
C           -0.40402886415213       -0.73607610238719       -1.28562469775405
Cl          -1.75570186600894       -1.31469516452921        1.97044541195884
H            0.56663743415281       -1.53421718385046        1.65524202275040
H            0.04857727241498        0.18032026121349        1.74571487522219
O           -0.75639254198664        0.39868493428146       -1.30688300055424
O           -0.07310529502782       -1.86878656476986       -1.42478502718757
7
 energy: -18.163900022448 gnorm: 0.092412928490 xtb: 6.7.1 (edcfbbe)
C           -0.16998156315736       -0.78809296249233        1.06978652481858
C           -0.40322337911514       -0.73755343805744       -1.25274304751453
Cl          -1.77246522485648       -1.31821163267564        1.94146618352863
H            0.56087731582120       -1.52900005534477        1.55245157629348
H            0.04363789009494        0.18272066495408        1.64275911667548
O           -0.75439351444269        0.39831179916373       -1.31006713936496
O           -0.07173852434444       -1.86707937554766       -1.42788121443667
7
 energy: -18.179206153151 gnorm: 0.093580470529 xtb: 6.7.1 (edcfbbe)
C           -0.14389525548132       -0.78068443144450        1.07659092918983
C           -0.41576471514713       -0.74977589142423       -1.09048514761428
Cl          -1.78179588337800       -1.31335602381796        1.79565581214425
H            0.55791437171344       -1.51350962366567        1.44582369774084
H            0.04657337457848        0.17843617828765        1.53422908602197
O           -0.75604631706702        0.39128017015213       -1.21410262697554
O           -0.07427257521839       -1.87129537808742       -1.33193975050712
7
 energy: -18.198031362215 gnorm: 0.112086262407 xtb: 6.7.1 (edcfbbe)
C           -0.11795809867529       -0.77032892114526        1.02673516765000
C           -0.43092685926111       -0.76632438623903       -0.86135658932804
Cl          -1.78837206007830       -1.30712749230667        1.63820071984579
H            0.55685937344937       -1.50888457903335        1.33250420538185
H            0.04479684609690        0.18496555177289        1.42139495225713
O           -0.75488071575964        0.37957415984484       -1.11208101146852
O           -0.07680548577185       -1.87077933289341       -1.22962544433827
7
 energy: -18.211719455520 gnorm: 0.102586302551 xtb: 6.7.1 (edcfbbe)
C           -0.11218951026970       -0.76563855594842        0.96485760313863
C           -0.44080714399598       -0.78149200620249       -0.62231626466035
Cl          -1.78433140588889       -1.30205478568709        1.56232012210718
H            0.56065638815969       -1.53206136441119        1.24872024441601
H            0.03248570680056        0.21397251283684        1.33766529489124
O           -0.74287941127808        0.35357757195976       -1.08120168736287
O           -0.08022162352753       -1.84520837254740       -1.19427331252993
7
 energy: -18.218185913249 gnorm: 0.054156413439 xtb: 6.7.1 (edcfbbe)
C           -0.14707411522741       -0.77391579148201        0.94631573310439
C           -0.42976460799846       -0.77711938591438       -0.66667262422966
Cl          -1.77381482545731       -1.30217946742920        1.62550024177845
H            0.56843208165634       -1.54477934003373        1.24366726417728
H            0.03121089733257        0.23132417343746        1.34149036008671
O           -0.73469532288951        0.33881089413389       -1.07505503244205
O           -0.08158110741613       -1.83104608271201       -1.19947394247520
7
 energy: -18.216034172170 gnorm: 0.092547089464 xtb: 6.7.1 (edcfbbe)
C           -0.18695748125293       -0.79825498602989        0.94001499328994
C           -0.41207865419445       -0.75721354553415       -0.68597262752196
Cl          -1.76054276732774       -1.31138828317123        1.78316060281068
H            0.56635290239718       -1.55737856306741        1.24966415177542
H            0.02884236564292        0.22008949431029        1.30391195864974
O           -0.72820416075705        0.34865992947305       -1.20375009271342
O           -0.07469920450787       -1.80341904598067       -1.17125698629047
7
 energy: -18.217026429052 gnorm: 0.073160693370 xtb: 6.7.1 (edcfbbe)
C           -0.24399642992245       -0.79697998414648        0.93634591547847
C           -0.39227372248241       -0.77065434614667       -0.67889648937507
Cl          -1.74133503217729       -1.30163777967974        1.89593116486447
H            0.55705578416624       -1.53212911175816        1.21591585764584
H            0.02792212216154        0.22574072960515        1.31164677463370
O           -0.70709575804916        0.31301689399657       -1.13092386936307
O           -0.06756396369634       -1.79626140187066       -1.33424735388441
7
 energy: -18.221391398774 gnorm: 0.045049079871 xtb: 6.7.1 (edcfbbe)
C           -0.21507756509314       -0.78937619408797        0.93044628865035
C           -0.41747625127901       -0.77683792314724       -0.64574624938713
Cl          -1.72955393139516       -1.29285596052908        1.68656447403523
H            0.55946258171752       -1.51905317663014        1.19389466301443
H            0.03742122679182        0.21482816363699        1.31918338327809
O           -0.72116290996801        0.32216841765097       -1.05963424191464
O           -0.08090015077391       -1.81777832689351       -1.20893631767641
7
 energy: -18.221783476516 gnorm: 0.036341016239 xtb: 6.7.1 (edcfbbe)
C           -0.20749831104609       -0.79759380326714        0.96211908503300
C           -0.41409872849133       -0.76500643008355       -0.70548696871016
Cl          -1.72274435976382       -1.29798911574058        1.75284562575484
H            0.55377516870533       -1.52602822665964        1.26124046000890
H            0.02690497269644        0.19993977071940        1.32122604870835
O           -0.72234802604157        0.34309385229969       -1.15239672591179
O           -0.08127771605890       -1.81532104726818       -1.22377552488321
7
 energy: -18.222356137471 gnorm: 0.027737495615 xtb: 6.7.1 (edcfbbe)
C           -0.22918574262836       -0.79964819879131        0.92450218676884
C           -0.39711950925165       -0.76485473731441       -0.65882474334198
Cl          -1.72054292659536       -1.30122189505250        1.83109627604110
H            0.54477672189625       -1.52151682512895        1.17323348891823
H            0.01983432209283        0.20253349977449        1.27282031133736
O           -0.71151437790450        0.34107419391485       -1.12157283786105
O           -0.07353548760911       -1.81527103740215       -1.20548268186257
7
 energy: -18.222338906092 gnorm: 0.036957939696 xtb: 6.7.1 (edcfbbe)
C           -0.23766301796649       -0.79758618063817        0.93770353939020
C           -0.41114482183660       -0.77423278046768       -0.65344925021182
Cl          -1.70619036230481       -1.29019209138750        1.75118823601449
H            0.55288003595213       -1.51752181676532        1.21292157589720
H            0.02921910459060        0.20839850949046        1.32251428166106
O           -0.71207353640490        0.31958130313547       -1.10241246079745
O           -0.08231440202982       -1.80735194336725       -1.25269392195376
7
 energy: -18.223352700470 gnorm: 0.014459306145 xtb: 6.7.1 (edcfbbe)
C           -0.22747618620814       -0.79897059841899        0.94092184305518
C           -0.40670073560940       -0.76792608470676       -0.67402642108178
Cl          -1.70908234443528       -1.29459563735709        1.77990895525640
H            0.54750987412914       -1.51945338733782        1.22133546766278
H            0.02228780443945        0.20085958852851        1.29513772802387
O           -0.71331763246895        0.33542176408113       -1.11717360608877
O           -0.08050777984672       -1.81424064478896       -1.23033196682776
7
 energy: -18.223237938570 gnorm: 0.018449348893 xtb: 6.7.1 (edcfbbe)
C           -0.23179960915570       -0.79808962022077        0.93876883712205
C           -0.40423270146638       -0.76888152022498       -0.67195022173442
Cl          -1.70517196942654       -1.29435666102816        1.79361558541493
H            0.54254509533223       -1.51766085464580        1.18288070010542
H            0.02234473038168        0.19993751154548        1.32642937158227
O           -0.71068850048146        0.33490553713274       -1.12925097136435
O           -0.08028404518373       -1.81475939255850       -1.22472130112598
7
 energy: -18.223411631705 gnorm: 0.010929145308 xtb: 6.7.1 (edcfbbe)
C           -0.23449712249940       -0.80024083094811        0.93396011454590
C           -0.40377958199020       -0.76800332024736       -0.66441097601049
Cl          -1.70211304926409       -1.29368487367214        1.79519605550560
H            0.54410728130876       -1.51881632032146        1.20433783811860
H            0.01938766077568        0.20024777875964        1.29218481355308
O           -0.70990423293860        0.33439028889573       -1.11761719293690
O           -0.08048795539206       -1.81279772246629       -1.22787865277586
7
 energy: -18.223428425228 gnorm: 0.011529188162 xtb: 6.7.1 (edcfbbe)
C           -0.23236019491425       -0.79962932368209        0.93786827008138
C           -0.40462074824840       -0.76799672984428       -0.67165563376408
Cl          -1.70152998798268       -1.29349380368526        1.79130239176787
H            0.54369024528359       -1.51827276542129        1.21028210576575
H            0.01909204088750        0.19940030540280        1.29759956648472
O           -0.71038331201664        0.33523092197839       -1.11851200273147
O           -0.08117504300904       -1.81414360474824       -1.23111269760424
7
 energy: -18.223435462298 gnorm: 0.010765215170 xtb: 6.7.1 (edcfbbe)
C           -0.23360952465702       -0.79989329182697        0.93645136497553
C           -0.40398139408612       -0.76791165977101       -0.67005556971576
Cl          -1.69997296351620       -1.29357095737532        1.79493846495958
H            0.54297536590457       -1.51820649254622        1.20674541429806
H            0.01816851765480        0.19930066647577        1.29736744941712
O           -0.70943542606631        0.33530406229365       -1.11950222901888
O           -0.08143157523363       -1.81392732724988       -1.23017289491573
7
 energy: -18.223436488794 gnorm: 0.010440038215 xtb: 6.7.1 (edcfbbe)
C           -0.23426547650478       -0.79999384618662        0.93577469552633
C           -0.40357216963745       -0.76781615865088       -0.67001565010804
Cl          -1.69809831053965       -1.29391163161556        1.79730556383966
H            0.54240780550002       -1.51784742155326        1.20612284727671
H            0.01671817534764        0.19916633054899        1.29668940522899
O           -0.70819603400497        0.33567183972042       -1.11971002455924
O           -0.08228099016071       -1.81417411226307       -1.23039483720450
