
                                 *****************
                                 * O   R   C   A *
                                 *****************

                                            #,                                       
                                            ###                                      
                                            ####                                     
                                            #####                                    
                                            ######                                   
                                           ########,                                 
                                     ,,################,,,,,                         
                               ,,#################################,,                 
                          ,,##########################################,,             
                       ,#########################################, ''#####,          
                    ,#############################################,,   '####,        
                  ,##################################################,,,,####,       
                ,###########''''           ''''###############################       
              ,#####''   ,,,,##########,,,,          '''####'''          '####       
            ,##' ,,,,###########################,,,                        '##       
           ' ,,###''''                  '''############,,,                           
         ,,##''                                '''############,,,,        ,,,,,,###''
      ,#''                                            '''#######################'''  
     '                                                          ''''####''''         
             ,#######,   #######,   ,#######,      ##                                
            ,#'     '#,  ##    ##  ,#'     '#,    #''#        ######   ,####,        
            ##       ##  ##   ,#'  ##            #'  '#       #        #'  '#        
            ##       ##  #######   ##           ,######,      #####,   #    #        
            '#,     ,#'  ##    ##  '#,     ,#' ,#      #,         ##   #,  ,#        
             '#######'   ##     ##  '#######'  #'      '#     #####' # '####'        



                  #######################################################
                  #                        -***-                        #
                  #          Department of theory and spectroscopy      #
                  #    Directorship and core code : Frank Neese         #
                  #        Max Planck Institute fuer Kohlenforschung    #
                  #                Kaiser Wilhelm Platz 1               #
                  #                 D-45470 Muelheim/Ruhr               #
                  #                      Germany                        #
                  #                                                     #
                  #                  All rights reserved                #
                  #                        -***-                        #
                  #######################################################


                         Program Version 5.0.4 -  RELEASE  -


 With contributions from (in alphabetic order):
   Daniel Aravena         : Magnetic Suceptibility
   Michael Atanasov       : Ab Initio Ligand Field Theory (pilot matlab implementation)
   Alexander A. Auer      : GIAO ZORA, VPT2 properties, NMR spectrum
   Ute Becker             : Parallelization
   Giovanni Bistoni       : ED, misc. LED, open-shell LED, HFLD
   Martin Brehm           : Molecular dynamics
   Dmytro Bykov           : SCF Hessian
   Vijay G. Chilkuri      : MRCI spin determinant printing, contributions to CSF-ICE
   Dipayan Datta          : RHF DLPNO-CCSD density
   Achintya Kumar Dutta   : EOM-CC, STEOM-CC
   Dmitry Ganyushin       : Spin-Orbit,Spin-Spin,Magnetic field MRCI
   Miquel Garcia          : C-PCM and meta-GGA Hessian, CC/C-PCM, Gaussian charge scheme
   Yang Guo               : DLPNO-NEVPT2, F12-NEVPT2, CIM, IAO-localization
   Andreas Hansen         : Spin unrestricted coupled pair/coupled cluster methods
   Benjamin Helmich-Paris : MC-RPA, TRAH-SCF, COSX integrals
   Lee Huntington         : MR-EOM, pCC
   Robert Izsak           : Overlap fitted RIJCOSX, COSX-SCS-MP3, EOM
   Marcus Kettner         : VPT2
   Christian Kollmar      : KDIIS, OOCD, Brueckner-CCSD(T), CCSD density, CASPT2, CASPT2-K
   Simone Kossmann        : Meta GGA functionals, TD-DFT gradient, OOMP2, MP2 Hessian
   Martin Krupicka        : Initial AUTO-CI
   Lucas Lang             : DCDCAS
   Marvin Lechner         : AUTO-CI (C++ implementation), FIC-MRCC
   Dagmar Lenk            : GEPOL surface, SMD
   Dimitrios Liakos       : Extrapolation schemes; Compound Job, initial MDCI parallelization
   Dimitrios Manganas     : Further ROCIS development; embedding schemes
   Dimitrios Pantazis     : SARC Basis sets
   Anastasios Papadopoulos: AUTO-CI, single reference methods and gradients
   Taras Petrenko         : DFT Hessian,TD-DFT gradient, ASA, ECA, R-Raman, ABS, FL, XAS/XES, NRVS
   Peter Pinski           : DLPNO-MP2, DLPNO-MP2 Gradient
   Christoph Reimann      : Effective Core Potentials
   Marius Retegan         : Local ZFS, SOC
   Christoph Riplinger    : Optimizer, TS searches, QM/MM, DLPNO-CCSD(T), (RO)-DLPNO pert. Triples
   Tobias Risthaus        : Range-separated hybrids, TD-DFT gradient, RPA, STAB
   Michael Roemelt        : Original ROCIS implementation
   Masaaki Saitow         : Open-shell DLPNO-CCSD energy and density
   Barbara Sandhoefer     : DKH picture change effects
   Avijit Sen             : IP-ROCIS
   Kantharuban Sivalingam : CASSCF convergence, NEVPT2, FIC-MRCI
   Bernardo de Souza      : ESD, SOC TD-DFT
   Georgi Stoychev        : AutoAux, RI-MP2 NMR, DLPNO-MP2 response
   Willem Van den Heuvel  : Paramagnetic NMR
   Boris Wezisla          : Elementary symmetry handling
   Frank Wennmohs         : Technical directorship


 We gratefully acknowledge several colleagues who have allowed us to
 interface, adapt or use parts of their codes:
   Stefan Grimme, W. Hujo, H. Kruse, P. Pracht,  : VdW corrections, initial TS optimization,
                  C. Bannwarth, S. Ehlert          DFT functionals, gCP, sTDA/sTD-DF
   Ed Valeev, F. Pavosevic, A. Kumar             : LibInt (2-el integral package), F12 methods
   Garnet Chan, S. Sharma, J. Yang, R. Olivares  : DMRG
   Ulf Ekstrom                                   : XCFun DFT Library
   Mihaly Kallay                                 : mrcc  (arbitrary order and MRCC methods)
   Jiri Pittner, Ondrej Demel                    : Mk-CCSD
   Frank Weinhold                                : gennbo (NPA and NBO analysis)
   Christopher J. Cramer and Donald G. Truhlar   : smd solvation model
   Lars Goerigk                                  : TD-DFT with DH, B97 family of functionals
   V. Asgeirsson, H. Jonsson                     : NEB implementation
   FAccTs GmbH                                   : IRC, NEB, NEB-TS, DLPNO-Multilevel, CI-OPT
                                                   MM, QMMM, 2- and 3-layer-ONIOM, Crystal-QMMM,
                                                   LR-CPCM, SF, NACMEs, symmetry and pop. for TD-DFT,
                                                   nearIR, NL-DFT gradient (VV10), updates on ESD,
                                                   ML-optimized integration grids
   S Lehtola, MJT Oliveira, MAL Marques          : LibXC Library
   Liviu Ungur et al                             : ANISO software


 Your calculation uses the libint2 library for the computation of 2-el integrals
 For citations please refer to: http://libint.valeyev.net

 Your ORCA version has been built with support for libXC version: 5.1.0
 For citations please refer to: https://tddft.org/programs/libxc/

 This ORCA versions uses:
   CBLAS   interface :  Fast vector & matrix operations
   LAPACKE interface :  Fast linear algebra routines
   SCALAPACK package :  Parallel linear algebra routines
   Shared memory     :  Shared parallel matrices
   BLAS/LAPACK       :  OpenBLAS 0.3.15  USE64BITINT DYNAMIC_ARCH NO_AFFINITY Haswell SINGLE_THREADED
        Core in use  :  Haswell
   Copyright (c) 2011-2014, The OpenBLAS Project


Your calculation utilizes the atom-pairwise dispersion correction
with the Becke-Johnson damping scheme (D3BJ)
Cite in your paper:
S.Grimme, S.Ehrlich, L.Goerigk, J Comput Chem, (2011), 32, 1456–1465 
S.Grimme, J.Antony, S.Ehrlich and H.Krieg, J.Chem.Phys., 132, (2010), 154104 
   

================================================================================

----- Orbital basis set information -----
Your calculation utilizes the basis: def2-TZVP
   F. Weigend and R. Ahlrichs, Phys. Chem. Chem. Phys. 7, 3297 (2005).

----- AuxJ basis set information -----
Your calculation utilizes the auxiliary basis: def2/J
   F. Weigend, Phys. Chem. Chem. Phys. 8, 1057 (2006).

================================================================================
                                        WARNINGS
                       Please study these warnings very carefully!
================================================================================


WARNING: Geometry Optimization
  ===> : Switching off AutoStart
         For restart on a previous wavefunction, please use MOREAD

INFO   : the flag for use of the SHARK integral package has been found!

================================================================================
                                       INPUT FILE
================================================================================
NAME = inp.inp
|  1> !OPT PBE D3BJ def2-TZVP CPCM(water)
|  2> 
|  3> *xyz -1 1
|  4> H     -5.141852   -2.527156   -0.913255
|  5> C     -4.206434   -2.397747   -2.921383
|  6> O     -3.013294   -2.169682   -2.402077
|  7> H     -6.768487   -0.749142   -1.182789
|  8> C     -5.191129   -1.979283   -1.851632
|  9> C     -6.099039   -1.003051   -1.993836
| 10> H     -6.152454   -0.434832   -2.914841
| 11> H     -4.488895   -1.876740   -3.849828
| 12> H     -4.486125   -3.434380   -3.167911
| 13> *
| 14> 
| 15>                          ****END OF INPUT****
================================================================================

                       *****************************
                       * Geometry Optimization Run *
                       *****************************

Geometry optimization settings:
Update method            Update   .... BFGS
Choice of coordinates    CoordSys .... Z-matrix Internals
Initial Hessian          InHess   .... Almoef's Model

Convergence Tolerances:
Energy Change            TolE     ....  5.0000e-06 Eh
Max. Gradient            TolMAXG  ....  3.0000e-04 Eh/bohr
RMS Gradient             TolRMSG  ....  1.0000e-04 Eh/bohr
Max. Displacement        TolMAXD  ....  4.0000e-03 bohr
RMS Displacement         TolRMSD  ....  2.0000e-03 bohr
Strict Convergence                ....  False
------------------------------------------------------------------------------
                        ORCA OPTIMIZATION COORDINATE SETUP
------------------------------------------------------------------------------

The optimization will be done in new redundant internal coordinates
Making redundant internal coordinates   ...  (new redundants) done
Evaluating the initial hessian          ...  (Almloef) done
Evaluating the coordinates              ...  done
Calculating the B-matrix                .... done
Calculating the G-matrix                .... done
Diagonalizing the G-matrix              .... done
The first mode is                       ....    9
The number of degrees of freedom        ....   21

    -----------------------------------------------------------------
                    Redundant Internal Coordinates


    -----------------------------------------------------------------
         Definition                    Initial Value    Approx d2E/dq
    -----------------------------------------------------------------
      1. B(O   2,C   1)                  1.3211         0.720807   
      2. B(C   4,C   1)                  1.5130         0.397681   
      3. B(C   4,H   0)                  1.0877         0.363123   
      4. B(C   5,C   4)                  1.3407         0.748771   
      5. B(C   5,H   3)                  1.0819         0.371027   
      6. B(H   6,C   5)                  1.0835         0.368800   
      7. B(H   7,C   1)                  1.1015         0.345238   
      8. B(H   8,C   1)                  1.1016         0.345026   
      9. A(C   4,C   1,H   7)          107.3529         0.325407   
     10. A(O   2,C   1,H   7)          118.7694         0.357245   
     11. A(O   2,C   1,C   4)          105.1957         0.409237   
     12. A(O   2,C   1,H   8)          118.6665         0.357208   
     13. A(C   4,C   1,H   8)          104.6699         0.325374   
     14. A(H   7,C   1,H   8)          101.0323         0.286997   
     15. A(H   0,C   4,C   5)          119.2704         0.364947   
     16. A(H   0,C   4,C   1)          116.1788         0.328125   
     17. A(C   1,C   4,C   5)          124.5500         0.414688   
     18. A(C   4,C   5,H   6)          120.3577         0.365918   
     19. A(H   3,C   5,H   6)          118.9246         0.293311   
     20. A(H   3,C   5,C   4)          120.6910         0.366295   
     21. D(H   0,C   4,C   1,H   7)    170.7600         0.011743   
     22. D(C   5,C   4,C   1,O   2)    118.4728         0.011743   
     23. D(H   0,C   4,C   1,O   2)    -61.8399         0.011743   
     24. D(C   5,C   4,C   1,H   7)     -8.9273         0.011743   
     25. D(C   5,C   4,C   1,H   8)   -115.7280         0.011743   
     26. D(H   0,C   4,C   1,H   8)     63.9592         0.011743   
     27. D(H   3,C   5,C   4,H   0)      0.8641         0.039971   
     28. D(H   6,C   5,C   4,C   1)     -1.3589         0.039971   
     29. D(H   6,C   5,C   4,H   0)    178.9628         0.039971   
     30. D(H   3,C   5,C   4,C   1)   -179.4576         0.039971   
    -----------------------------------------------------------------

Number of atoms                         .... 9
Number of degrees of freedom            .... 30

         *************************************************************
         *                GEOMETRY OPTIMIZATION CYCLE   1            *
         *************************************************************
---------------------------------
CARTESIAN COORDINATES (ANGSTROEM)
---------------------------------
  H     -5.141852   -2.527156   -0.913255
  C     -4.206434   -2.397747   -2.921383
  O     -3.013294   -2.169682   -2.402077
  H     -6.768487   -0.749142   -1.182789
  C     -5.191129   -1.979283   -1.851632
  C     -6.099039   -1.003051   -1.993836
  H     -6.152454   -0.434832   -2.914841
  H     -4.488895   -1.876740   -3.849828
  H     -4.486125   -3.434380   -3.167911

----------------------------
CARTESIAN COORDINATES (A.U.)
----------------------------
  NO LB      ZA    FRAG     MASS         X           Y           Z
   0 H     1.0000    0     1.008   -9.716692   -4.775633   -1.725802
   1 C     6.0000    0    12.011   -7.949008   -4.531085   -5.520614
   2 O     8.0000    0    15.999   -5.694300   -4.100105   -4.539268
   3 H     1.0000    0     1.008  -12.790587   -1.415673   -2.235147
   4 C     6.0000    0    12.011   -9.809812   -3.740303   -3.499077
   5 C     6.0000    0    12.011  -11.525513   -1.895492   -3.767804
   6 H     1.0000    0     1.008  -11.626453   -0.821713   -5.508251
   7 H     1.0000    0     1.008   -8.482782   -3.546525   -7.275121
   8 H     1.0000    0     1.008   -8.477548   -6.490038   -5.986484

--------------------------------
INTERNAL COORDINATES (ANGSTROEM)
--------------------------------
 H      0   0   0     0.000000000000     0.00000000     0.00000000
 C      1   0   0     2.219083501896     0.00000000     0.00000000
 O      2   1   0     1.321088727323    92.00887449     0.00000000
 H      1   2   3     2.424855415190    98.01451025   121.56751449
 C      1   2   3     1.087724432468    37.72447208   121.64333881
 C      4   1   2     1.081863041791    59.74455564     0.53112192
 H      6   4   1     1.083501824738   118.92456722   181.48295459
 H      2   1   3     1.101472935934   133.02111573   226.25590456
 H      2   1   3     1.101640180347    92.32755431   118.80483388

---------------------------
INTERNAL COORDINATES (A.U.)
---------------------------
 H      0   0   0     0.000000000000     0.00000000     0.00000000
 C      1   0   0     4.193460086887     0.00000000     0.00000000
 O      2   1   0     2.496495893252    92.00887449     0.00000000
 H      1   2   3     4.582312649065    98.01451025   121.56751449
 C      1   2   3     2.055501286539    37.72447208   121.64333881
 C      4   1   2     2.044424863397    59.74455564     0.53112192
 H      6   4   1     2.047521714359   118.92456722   181.48295459
 H      2   1   3     2.081482192841   133.02111573   226.25590456
 H      2   1   3     2.081798238979    92.32755431   118.80483388

---------------------
BASIS SET INFORMATION
---------------------
There are 3 groups of distinct atoms

 Group   1 Type H   : 5s1p contracted to 3s1p pattern {311/1}
 Group   2 Type C   : 11s6p2d1f contracted to 5s3p2d1f pattern {62111/411/11/1}
 Group   3 Type O   : 11s6p2d1f contracted to 5s3p2d1f pattern {62111/411/11/1}

Atom   0H    basis set group =>   1
Atom   1C    basis set group =>   2
Atom   2O    basis set group =>   3
Atom   3H    basis set group =>   1
Atom   4C    basis set group =>   2
Atom   5C    basis set group =>   2
Atom   6H    basis set group =>   1
Atom   7H    basis set group =>   1
Atom   8H    basis set group =>   1
---------------------------------
AUXILIARY/J BASIS SET INFORMATION
---------------------------------
There are 3 groups of distinct atoms

 Group   1 Type H   : 5s2p1d contracted to 3s1p1d pattern {311/2/1}
 Group   2 Type C   : 12s5p4d2f1g contracted to 6s4p3d1f1g pattern {711111/2111/211/2/1}
 Group   3 Type O   : 12s5p4d2f1g contracted to 6s4p3d1f1g pattern {711111/2111/211/2/1}

Atom   0H    basis set group =>   1
Atom   1C    basis set group =>   2
Atom   2O    basis set group =>   3
Atom   3H    basis set group =>   1
Atom   4C    basis set group =>   2
Atom   5C    basis set group =>   2
Atom   6H    basis set group =>   1
Atom   7H    basis set group =>   1
Atom   8H    basis set group =>   1
------------------------------------------------------------------------------
                           ORCA GTO INTEGRAL CALCULATION
                           -- RI-GTO INTEGRALS CHOSEN --
------------------------------------------------------------------------------
------------------------------------------------------------------------------
                   ___                                                        
                  /   \      - P O W E R E D   B Y -                         
                 /     \                                                     
                 |  |  |   _    _      __       _____    __    __             
                 |  |  |  | |  | |    /  \     |  _  \  |  |  /  |          
                  \  \/   | |  | |   /    \    | | | |  |  | /  /          
                 / \  \   | |__| |  /  /\  \   | |_| |  |  |/  /          
                |  |  |   |  __  | /  /__\  \  |    /   |      \           
                |  |  |   | |  | | |   __   |  |    \   |  |\   \          
                \     /   | |  | | |  |  |  |  | |\  \  |  | \   \       
                 \___/    |_|  |_| |__|  |__|  |_| \__\ |__|  \__/        
                                                                              
                      - O R C A' S   B I G   F R I E N D -                    
                                      &                                       
                       - I N T E G R A L  F E E D E R -                       
                                                                              
 v1 FN, 2020, v2 2021                                                         
------------------------------------------------------------------------------


Reading SHARK input file inp.SHARKINP.tmp ... ok
----------------------
SHARK INTEGRAL PACKAGE
----------------------

Number of atoms                             ...      9
Number of basis functions                   ...    154
Number of shells                            ...     64
Maximum angular momentum                    ...      3
Integral batch strategy                     ... SHARK/LIBINT Hybrid
RI-J (if used) integral strategy            ... SPLIT-RIJ (Revised 2003 algorithm where possible)
Printlevel                                  ...      1
Contraction scheme used                     ... SEGMENTED contraction
Coulomb Range Separation                    ... NOT USED
Exchange Range Separation                   ... NOT USED
Finite Nucleus Model                        ... NOT USED
Auxiliary Coulomb fitting basis             ... AVAILABLE
   # of basis functions in Aux-J            ...    251
   # of shells in Aux-J                     ...     85
   Maximum angular momentum in Aux-J        ...      4
Auxiliary J/K fitting basis                 ... NOT available
Auxiliary Correlation fitting basis         ... NOT available
Auxiliary 'external' fitting basis          ... NOT available
Integral threshold                          ...     2.500000e-11
Primitive cut-off                           ...     2.500000e-12
Primitive pair pre-selection threshold      ...     2.500000e-12

Calculating pre-screening integrals         ... done (  0.0 sec) Dimension = 64
Organizing shell pair data                  ... done (  0.1 sec)
Shell pair information
Total number of shell pairs                 ...      2080
Shell pairs after pre-screening             ...      2024
Total number of primitive shell pairs       ...      6208
Primitive shell pairs kept                  ...      4976
          la=0 lb=0:    598 shell pairs
          la=1 lb=0:    583 shell pairs
          la=1 lb=1:    152 shell pairs
          la=2 lb=0:    273 shell pairs
          la=2 lb=1:    135 shell pairs
          la=2 lb=2:     36 shell pairs
          la=3 lb=0:    137 shell pairs
          la=3 lb=1:     68 shell pairs
          la=3 lb=2:     32 shell pairs
          la=3 lb=3:     10 shell pairs

Calculating one electron integrals          ... done (  0.0 sec)
Calculating RI/J V-Matrix + Cholesky decomp.... done (  0.2 sec)
Calculating Nuclear repulsion               ... done (  0.0 sec) ENN=    110.144417357914 Eh

SHARK setup successfully completed in   1.0 seconds

Maximum memory used throughout the entire GTOINT-calculation: 29.9 MB
-------------------------------------------------------------------------------
                                 ORCA SCF
-------------------------------------------------------------------------------

------------
SCF SETTINGS
------------
Hamiltonian:
 Density Functional     Method          .... DFT(GTOs)
 Exchange Functional    Exchange        .... PBE
   PBE kappa parameter   XKappa         ....  0.804000
   PBE mue parameter    XMuePBE         ....  0.219520
 Correlation Functional Correlation     .... PBE
   PBE beta parameter  CBetaPBE         ....  0.066725
 LDA part of GGA corr.  LDAOpt          .... PW91-LDA
 Gradients option       PostSCFGGA      .... off
   Density functional embedding theory  .... OFF
   NL short-range parameter             ....  6.400000
 RI-approximation to the Coulomb term is turned on
   Number of AuxJ basis functions       .... 251


General Settings:
 Integral files         IntName         .... inp
 Hartree-Fock type      HFTyp           .... RHF
 Total Charge           Charge          ....   -1
 Multiplicity           Mult            ....    1
 Number of Electrons    NEL             ....   32
 Basis Dimension        Dim             ....  154
 Nuclear Repulsion      ENuc            ....    110.1444173579 Eh

Convergence Acceleration:
 DIIS                   CNVDIIS         .... on
   Start iteration      DIISMaxIt       ....    12
   Startup error        DIISStart       ....  0.200000
   # of expansion vecs  DIISMaxEq       ....     5
   Bias factor          DIISBfac        ....   1.050
   Max. coefficient     DIISMaxC        ....  10.000
 Trust-Rad. Augm. Hess. CNVTRAH         .... auto
   Auto Start mean grad. ratio tolernc. ....  1.125000
   Auto Start start iteration           ....    20
   Auto Start num. interpolation iter.  ....    10
   Max. Number of Micro iterations      ....    16
   Max. Number of Macro iterations      .... Maxiter - #DIIS iter
   Number of Davidson start vectors     ....     2
   Converg. threshold I  (grad. norm)   ....   1.000e-05
   Converg. threshold II (energy diff.) ....   1.000e-08
   Grad. Scal. Fac. for Micro threshold ....   0.100
   Minimum threshold for Micro iter.    ....   0.010
   NR start threshold (gradient norm)   ....   0.001
   Initial trust radius                 ....   0.400
   Minimum AH scaling param. (alpha)    ....   1.000
   Maximum AH scaling param. (alpha)    .... 1000.000
   Orbital update algorithm             .... Taylor
   White noise on init. David. guess    .... on
   Maximum white noise                  ....   0.010
   Quad. conv. algorithm                .... NR
 SOSCF                  CNVSOSCF        .... on
   Start iteration      SOSCFMaxIt      ....   150
   Startup grad/error   SOSCFStart      ....  0.003300
 Level Shifting         CNVShift        .... on
   Level shift para.    LevelShift      ....    0.2500
   Turn off err/grad.   ShiftErr        ....    0.0010
 Zerner damping         CNVZerner       .... off
 Static damping         CNVDamp         .... on
   Fraction old density DampFac         ....    0.7000
   Max. Damping (<1)    DampMax         ....    0.9800
   Min. Damping (>=0)   DampMin         ....    0.0000
   Turn off err/grad.   DampErr         ....    0.1000
 Fernandez-Rico         CNVRico         .... off

SCF Procedure:
 Maximum # iterations   MaxIter         ....   125
 SCF integral mode      SCFMode         .... Direct
   Integral package                     .... SHARK and LIBINT hybrid scheme
 Reset frequency        DirectResetFreq ....    20
 Integral Threshold     Thresh          ....  2.500e-11 Eh
 Primitive CutOff       TCut            ....  2.500e-12 Eh

Convergence Tolerance:
 Convergence Check Mode ConvCheckMode   .... Total+1el-Energy
 Convergence forced     ConvForced      .... 0
 Energy Change          TolE            ....  1.000e-08 Eh
 1-El. energy change                    ....  1.000e-05 Eh
 Orbital Gradient       TolG            ....  1.000e-05
 Orbital Rotation angle TolX            ....  1.000e-05
 DIIS Error             TolErr          ....  5.000e-07


Diagonalization of the overlap matrix:
Smallest eigenvalue                        ... 1.893e-04
Time for diagonalization                   ...    0.004 sec
Threshold for overlap eigenvalues          ... 1.000e-08
Number of eigenvalues below threshold      ... 0
Time for construction of square roots      ...    0.082 sec
Total time needed                          ...    0.086 sec

Time for model grid setup =    0.181 sec

------------------------------
INITIAL GUESS: MODEL POTENTIAL
------------------------------
Loading Hartree-Fock densities                     ... done
Calculating cut-offs                               ... done
Initializing the effective Hamiltonian             ... done
Setting up the integral package (SHARK)            ... done
Starting the Coulomb interaction                   ... done (   0.2 sec)
Reading the grid                                   ... done
Mapping shells                                     ... done
Starting the XC term evaluation                    ... done (   0.1 sec)
  promolecular density results
     # of electrons  =     30.997787379
     EX              =    -24.894308877
     EC              =     -0.998434105
     EX+EC           =    -25.892742982
Transforming the Hamiltonian                       ... done (   0.0 sec)
Diagonalizing the Hamiltonian                      ... done (   0.0 sec)
Back transforming the eigenvectors                 ... done (   0.0 sec)
Now organizing SCF variables                       ... done
                      ------------------
                      INITIAL GUESS DONE (   0.5 sec)
                      ------------------
-------------------
DFT GRID GENERATION
-------------------

General Integration Accuracy     IntAcc      ... 4.388
Radial Grid Type                 RadialGrid  ... OptM3 with GC (2021)
Angular Grid (max. ang.)         AngularGrid ... 4 (Lebedev-302)
Angular grid pruning method      GridPruning ... 4 (adaptive)
Weight generation scheme         WeightScheme... Becke
Basis function cutoff            BFCut       ... 1.0000e-11
Integration weight cutoff        WCut        ... 1.0000e-14
Angular grids for H and He will be reduced by one unit
Partially contracted basis set               ... off
Rotationally invariant grid construction     ... off

Total number of grid points                  ...    40607
Total number of batches                      ...      640
Average number of points per batch           ...       63
Average number of grid points per atom       ...     4512
Time for grid setup =    0.467 sec


--------------------
CPCM SOLVATION MODEL
--------------------
CPCM parameters:
  Epsilon                                         ...      80.4000
  Refrac                                          ...       1.3300
  Rsolv                                           ...       1.3000
  Surface type                                    ... GAUSSIAN VDW
  Epsilon function type                           ...         CPCM
Radii:
 Radius for H  used is    2.4944 Bohr (=   1.3200 Ang.)
 Radius for C  used is    3.8550 Bohr (=   2.0400 Ang.)
 Radius for O  used is    3.4469 Bohr (=   1.8240 Ang.)
Calculating surface                               ...        done! (  0.0s)
GEPOL surface points                              ...          566
GEPOL Volume                                      ...     580.4398
GEPOL Surface-area                                ...     374.3654
Calculating surface distance matrix               ...        done! (  0.0s)
Performing Cholesky decomposition & store         ...        done! (  0.1s)
Overall time for CPCM initialization              ...                 0.1s
--------------
SCF ITERATIONS
--------------
ITER       Energy         Delta-E        Max-DP      RMS-DP      [F,P]     Damp
               ***  Starting incremental Fock matrix formation  ***
  0   -192.1746387975   0.000000000000 0.16860271  0.00486230  0.3945454 0.7000
  1   -192.3134842493  -0.138845451766 0.14577596  0.00338001  0.1071219 0.7000
                               ***Turning on DIIS***
  2   -192.3500941739  -0.036609924652 0.13159631  0.00344331  0.0335525 0.0000
  3   -192.4270464851  -0.076952311184 0.13142776  0.00300700  0.0580041 0.0000
  4   -192.4398357336  -0.012789248443 0.03174906  0.00071858  0.0455429 0.0000
  5   -192.4427621847  -0.002926451160 0.01419616  0.00030323  0.0033825 0.0000
                      *** Initiating the SOSCF procedure ***
                           *** Shutting down DIIS ***
                      *** Re-Reading the Fockian *** 
                      *** Removing any level shift *** 
ITER      Energy       Delta-E        Grad      Rot      Max-DP    RMS-DP
  6   -192.44286179  -0.0000996086  0.000324  0.000324  0.005818  0.000136
               *** Restarting incremental Fock matrix formation ***
  7   -192.44287813  -0.0000163386  0.000318  0.001461  0.004537  0.000120
  8   -192.44287436   0.0000037696  0.000737  0.001246  0.002797  0.000059
  9   -192.44288112  -0.0000067562  0.000086  0.000640  0.001319  0.000037
 10   -192.44288108   0.0000000388  0.000090  0.000153  0.000136  0.000005
 11   -192.44288131  -0.0000002264  0.000044  0.000192  0.000450  0.000012
 12   -192.44288130   0.0000000102  0.000043  0.000067  0.000070  0.000003
 13   -192.44288133  -0.0000000385  0.000006  0.000075  0.000175  0.000005
 14   -192.44288133  -0.0000000005  0.000005  0.000034  0.000067  0.000002
                  ***Gradient check signals convergence***
              ***Rediagonalizing the Fockian in SOSCF/NRSCF***

               *****************************************************
               *                     SUCCESS                       *
               *           SCF CONVERGED AFTER  15 CYCLES          *
               *****************************************************


----------------
TOTAL SCF ENERGY
----------------

Total Energy       :         -192.44288134 Eh           -5236.63703 eV

Components:
Nuclear Repulsion  :          110.14441736 Eh            2997.18197 eV
Electronic Energy  :         -302.58729870 Eh           -8233.81900 eV
One Electron Energy:         -486.29621707 Eh          -13232.79281 eV
Two Electron Energy:          183.70891837 Eh            4998.97381 eV
CPCM Dielectric    :           -0.11198068 Eh              -3.04715 eV

Virial components:
Potential Energy   :         -384.26732116 Eh          -10456.44540 eV
Kinetic Energy     :          191.82443982 Eh            5219.80838 eV
Virial Ratio       :            2.00322400


DFT components:
N(Alpha)           :       15.999980696210 electrons
N(Beta)            :       15.999980696210 electrons
N(Total)           :       31.999961392420 electrons
E(X)               :      -25.702703322935 Eh       
E(C)               :       -1.037535497730 Eh       
E(XC)              :      -26.740238820666 Eh       
DFET-embed. en.    :        0.000000000000 Eh       
CPCM Solvation Model Properties:
Surface-charge          :            0.96641785
Charge-correction       :           -0.00574570 Eh              -0.15635 eV
Free-energy (cav+disp)  :  This term is not implemented in the current solvation scheme

---------------
SCF CONVERGENCE
---------------

  Last Energy change         ...   -2.7357e-09  Tolerance :   1.0000e-08
  Last MAX-Density change    ...    1.1768e-05  Tolerance :   1.0000e-07
  Last RMS-Density change    ...    2.7964e-07  Tolerance :   5.0000e-09
  Last Orbital Gradient      ...    8.3922e-07  Tolerance :   1.0000e-05
  Last Orbital Rotation      ...    2.0855e-06  Tolerance :   1.0000e-05

             **** THE GBW FILE WAS UPDATED (inp.gbw) ****
             **** DENSITY inp.scfp WAS UPDATED ****
             **** ENERGY FILE WAS UPDATED (inp.en.tmp) ****
             **** THE GBW FILE WAS UPDATED (inp.gbw) ****
             **** DENSITY inp.scfp WAS UPDATED ****
----------------
ORBITAL ENERGIES
----------------

  NO   OCC          E(Eh)            E(eV) 
   0   2.0000     -18.617225      -506.6005 
   1   2.0000      -9.870696      -268.5953 
   2   2.0000      -9.854647      -268.1586 
   3   2.0000      -9.847871      -267.9742 
   4   2.0000      -0.819871       -22.3098 
   5   2.0000      -0.667041       -18.1511 
   6   2.0000      -0.541496       -14.7349 
   7   2.0000      -0.471333       -12.8256 
   8   2.0000      -0.390473       -10.6253 
   9   2.0000      -0.357165        -9.7189 
  10   2.0000      -0.323555        -8.8044 
  11   2.0000      -0.293262        -7.9801 
  12   2.0000      -0.280693        -7.6381 
  13   2.0000      -0.215950        -5.8763 
  14   2.0000      -0.132191        -3.5971 
  15   2.0000      -0.126105        -3.4315 
  16   0.0000      -0.003758        -0.1022 
  17   0.0000       0.056288         1.5317 
  18   0.0000       0.070877         1.9287 
  19   0.0000       0.084854         2.3090 
  20   0.0000       0.118946         3.2367 
  21   0.0000       0.123927         3.3722 
  22   0.0000       0.138824         3.7776 
  23   0.0000       0.177088         4.8188 
  24   0.0000       0.196267         5.3407 
  25   0.0000       0.208071         5.6619 
  26   0.0000       0.226220         6.1558 
  27   0.0000       0.260853         7.0982 
  28   0.0000       0.278974         7.5913 
  29   0.0000       0.299319         8.1449 
  30   0.0000       0.322111         8.7651 
  31   0.0000       0.346134         9.4188 
  32   0.0000       0.353850         9.6288 
  33   0.0000       0.384587        10.4651 
  34   0.0000       0.401437        10.9237 
  35   0.0000       0.421857        11.4793 
  36   0.0000       0.440539        11.9877 
  37   0.0000       0.445201        12.1145 
  38   0.0000       0.450723        12.2648 
  39   0.0000       0.488023        13.2798 
  40   0.0000       0.531096        14.4519 
  41   0.0000       0.547517        14.8987 
  42   0.0000       0.566580        15.4174 
  43   0.0000       0.581043        15.8110 
  44   0.0000       0.603747        16.4288 
  45   0.0000       0.640580        17.4311 
  46   0.0000       0.683271        18.5927 
  47   0.0000       0.760029        20.6814 
  48   0.0000       0.773958        21.0605 
  49   0.0000       0.843375        22.9494 
  50   0.0000       0.873942        23.7812 
  51   0.0000       0.930484        25.3198 
  52   0.0000       0.957295        26.0493 
  53   0.0000       0.988049        26.8862 
  54   0.0000       1.001507        27.2524 
  55   0.0000       1.054825        28.7032 
  56   0.0000       1.106486        30.1090 
  57   0.0000       1.130099        30.7515 
  58   0.0000       1.187771        32.3209 
  59   0.0000       1.194952        32.5163 
  60   0.0000       1.245358        33.8879 
  61   0.0000       1.356811        36.9207 
  62   0.0000       1.400770        38.1169 
  63   0.0000       1.455294        39.6006 
  64   0.0000       1.470987        40.0276 
  65   0.0000       1.491607        40.5887 
  66   0.0000       1.541914        41.9576 
  67   0.0000       1.577374        42.9225 
  68   0.0000       1.589192        43.2441 
  69   0.0000       1.603203        43.6254 
  70   0.0000       1.642669        44.6993 
  71   0.0000       1.677307        45.6418 
  72   0.0000       1.703832        46.3636 
  73   0.0000       1.718723        46.7688 
  74   0.0000       1.768149        48.1138 
  75   0.0000       1.803751        49.0826 
  76   0.0000       1.845480        50.2181 
  77   0.0000       1.865251        50.7561 
  78   0.0000       1.895504        51.5793 
  79   0.0000       1.994526        54.2738 
  80   0.0000       2.063094        56.1396 
  81   0.0000       2.112859        57.4938 
  82   0.0000       2.163451        58.8705 
  83   0.0000       2.169852        59.0447 
  84   0.0000       2.219394        60.3928 
  85   0.0000       2.264770        61.6275 
  86   0.0000       2.305026        62.7230 
  87   0.0000       2.344457        63.7959 
  88   0.0000       2.385643        64.9166 
  89   0.0000       2.404145        65.4201 
  90   0.0000       2.484059        67.5947 
  91   0.0000       2.506545        68.2066 
  92   0.0000       2.534528        68.9680 
  93   0.0000       2.589765        70.4711 
  94   0.0000       2.608143        70.9712 
  95   0.0000       2.623426        71.3871 
  96   0.0000       2.689746        73.1917 
  97   0.0000       2.730990        74.3140 
  98   0.0000       2.774399        75.4952 
  99   0.0000       2.803520        76.2876 
 100   0.0000       2.838190        77.2311 
 101   0.0000       2.888915        78.6114 
 102   0.0000       2.911058        79.2139 
 103   0.0000       2.950075        80.2756 
 104   0.0000       2.979480        81.0758 
 105   0.0000       3.014623        82.0321 
 106   0.0000       3.042732        82.7969 
 107   0.0000       3.044918        82.8564 
 108   0.0000       3.071349        83.5756 
 109   0.0000       3.099961        84.3542 
 110   0.0000       3.130945        85.1974 
 111   0.0000       3.164852        86.1200 
 112   0.0000       3.192254        86.8657 
 113   0.0000       3.234592        88.0177 
 114   0.0000       3.279353        89.2357 
 115   0.0000       3.299956        89.7964 
 116   0.0000       3.332242        90.6749 
 117   0.0000       3.366148        91.5976 
 118   0.0000       3.487606        94.9026 
 119   0.0000       3.507225        95.4365 
 120   0.0000       3.541774        96.3766 
 121   0.0000       3.612012        98.2878 
 122   0.0000       3.639077        99.0243 
 123   0.0000       3.710808       100.9762 
 124   0.0000       3.798326       103.3577 
 125   0.0000       3.823384       104.0396 
 126   0.0000       3.999788       108.8398 
 127   0.0000       4.072908       110.8295 
 128   0.0000       4.086689       111.2045 
 129   0.0000       4.223430       114.9254 
 130   0.0000       4.268247       116.1449 
 131   0.0000       4.318223       117.5048 
 132   0.0000       4.437712       120.7563 
 133   0.0000       4.491899       122.2308 
 134   0.0000       4.612142       125.5028 
 135   0.0000       4.621707       125.7630 
 136   0.0000       4.745391       129.1286 
 137   0.0000       4.942911       134.5034 
 138   0.0000       5.176011       140.8464 
 139   0.0000       5.220638       142.0608 
 140   0.0000       5.453188       148.3888 
 141   0.0000       5.459493       148.5604 
 142   0.0000       5.905591       160.6993 
 143   0.0000       5.908995       160.7919 
 144   0.0000       6.026356       163.9855 
 145   0.0000       6.338292       172.4737 
 146   0.0000       6.345111       172.6592 
 147   0.0000       6.746262       183.5751 
 148   0.0000       6.814554       185.4335 
 149   0.0000       6.915472       188.1796 
 150   0.0000      21.812129       593.5382 
 151   0.0000      22.367894       608.6613 
 152   0.0000      22.453058       610.9788 
 153   0.0000      43.435655      1181.9442 

                    ********************************
                    * MULLIKEN POPULATION ANALYSIS *
                    ********************************

-----------------------
MULLIKEN ATOMIC CHARGES
-----------------------
   0 H :    0.090648
   1 C :    0.026182
   2 O :   -0.781752
   3 H :    0.118537
   4 C :   -0.137389
   5 C :   -0.395294
   6 H :    0.115646
   7 H :   -0.012164
   8 H :   -0.024414
Sum of atomic charges:   -1.0000000

--------------------------------
MULLIKEN REDUCED ORBITAL CHARGES
--------------------------------
  0 H s       :     0.887823  s :     0.887823
      pz      :     0.010900  p :     0.021529
      px      :     0.004235
      py      :     0.006395
  1 C s       :     3.144575  s :     3.144575
      pz      :     0.913190  p :     2.680806
      px      :     0.767848
      py      :     0.999768
      dz2     :     0.028830  d :     0.138122
      dxz     :     0.032356
      dyz     :     0.014218
      dx2y2   :     0.029936
      dxy     :     0.032781
      f0      :     0.000640  f :     0.010316
      f+1     :     0.002619
      f-1     :     0.000567
      f+2     :     0.001797
      f-2     :     0.001265
      f+3     :     0.001414
      f-3     :     0.002014
  2 O s       :     3.815065  s :     3.815065
      pz      :     1.699858  p :     4.941493
      px      :     1.458406
      py      :     1.783229
      dz2     :     0.003129  d :     0.023802
      dxz     :     0.007535
      dyz     :     0.001200
      dx2y2   :     0.006763
      dxy     :     0.005176
      f0      :     0.000129  f :     0.001392
      f+1     :     0.000266
      f-1     :     0.000009
      f+2     :     0.000300
      f-2     :     0.000149
      f+3     :     0.000281
      f-3     :     0.000258
  3 H s       :     0.859246  s :     0.859246
      pz      :     0.008772  p :     0.022217
      px      :     0.007931
      py      :     0.005514
  4 C s       :     3.230181  s :     3.230181
      pz      :     0.959491  p :     2.812251
      px      :     0.912619
      py      :     0.940141
      dz2     :     0.015914  d :     0.088196
      dxz     :     0.012592
      dyz     :     0.023823
      dx2y2   :     0.026322
      dxy     :     0.009543
      f0      :     0.000938  f :     0.006761
      f+1     :     0.000904
      f-1     :     0.000638
      f+2     :     0.000780
      f-2     :     0.001368
      f+3     :     0.000890
      f-3     :     0.001243
  5 C s       :     3.251853  s :     3.251853
      pz      :     1.020636  p :     3.091302
      px      :     1.019954
      py      :     1.050712
      dz2     :     0.003349  d :     0.047749
      dxz     :     0.012643
      dyz     :     0.016696
      dx2y2   :     0.009863
      dxy     :     0.005198
      f0      :     0.000418  f :     0.004391
      f+1     :     0.000422
      f-1     :     0.000543
      f+2     :     0.000307
      f-2     :     0.000996
      f+3     :     0.000750
      f-3     :     0.000954
  6 H s       :     0.862202  s :     0.862202
      pz      :     0.010502  p :     0.022152
      px      :     0.004651
      py      :     0.007000
  7 H s       :     0.992003  s :     0.992003
      pz      :     0.009983  p :     0.020161
      px      :     0.004246
      py      :     0.005933
  8 H s       :     1.004102  s :     1.004102
      pz      :     0.005237  p :     0.020312
      px      :     0.004422
      py      :     0.010652


                     *******************************
                     * LOEWDIN POPULATION ANALYSIS *
                     *******************************

----------------------
LOEWDIN ATOMIC CHARGES
----------------------
   0 H :    0.125653
   1 C :   -0.577799
   2 O :   -0.370349
   3 H :    0.111884
   4 C :   -0.242027
   5 C :   -0.306615
   6 H :    0.113691
   7 H :    0.075063
   8 H :    0.070499

-------------------------------
LOEWDIN REDUCED ORBITAL CHARGES
-------------------------------
  0 H s       :     0.814477  s :     0.814477
      pz      :     0.030304  p :     0.059869
      px      :     0.011975
      py      :     0.017590
  1 C s       :     2.798183  s :     2.798183
      pz      :     1.013369  p :     2.983365
      px      :     0.947924
      py      :     1.022073
      dz2     :     0.121258  d :     0.709598
      dxz     :     0.197586
      dyz     :     0.082282
      dx2y2   :     0.151987
      dxy     :     0.156486
      f0      :     0.007175  f :     0.086653
      f+1     :     0.022548
      f-1     :     0.004692
      f+2     :     0.011854
      f-2     :     0.012896
      f+3     :     0.010130
      f-3     :     0.017359
  2 O s       :     3.465836  s :     3.465836
      pz      :     1.640832  p :     4.837102
      px      :     1.490091
      py      :     1.706179
      dz2     :     0.008948  d :     0.062567
      dxz     :     0.018754
      dyz     :     0.003371
      dx2y2   :     0.017047
      dxy     :     0.014448
      f0      :     0.000413  f :     0.004844
      f+1     :     0.001047
      f-1     :     0.000026
      f+2     :     0.000972
      f-2     :     0.000545
      f+3     :     0.000984
      f-3     :     0.000857
  3 H s       :     0.823818  s :     0.823818
      pz      :     0.026850  p :     0.064299
      px      :     0.021855
      py      :     0.015594
  4 C s       :     2.826326  s :     2.826326
      pz      :     0.999951  p :     2.970214
      px      :     0.968603
      py      :     1.001661
      dz2     :     0.075078  d :     0.404873
      dxz     :     0.070148
      dyz     :     0.099054
      dx2y2   :     0.096553
      dxy     :     0.064040
      f0      :     0.006430  f :     0.040614
      f+1     :     0.005375
      f-1     :     0.004415
      f+2     :     0.004222
      f-2     :     0.007896
      f+3     :     0.005381
      f-3     :     0.006895
  5 C s       :     2.863779  s :     2.863779
      pz      :     1.026311  p :     3.175949
      px      :     1.061751
      py      :     1.087887
      dz2     :     0.029694  d :     0.240213
      dxz     :     0.058924
      dyz     :     0.073739
      dx2y2   :     0.036317
      dxy     :     0.041539
      f0      :     0.003650  f :     0.026674
      f+1     :     0.003383
      f-1     :     0.003283
      f+2     :     0.001282
      f-2     :     0.005192
      f+3     :     0.004751
      f-3     :     0.005133
  6 H s       :     0.822284  s :     0.822284
      pz      :     0.031204  p :     0.064025
      px      :     0.013573
      py      :     0.019248
  7 H s       :     0.867195  s :     0.867195
      pz      :     0.027662  p :     0.057743
      px      :     0.011890
      py      :     0.018190
  8 H s       :     0.870918  s :     0.870918
      pz      :     0.013880  p :     0.058583
      px      :     0.012396
      py      :     0.032306


                      *****************************
                      * MAYER POPULATION ANALYSIS *
                      *****************************

  NA   - Mulliken gross atomic population
  ZA   - Total nuclear charge
  QA   - Mulliken gross atomic charge
  VA   - Mayer's total valence
  BVA  - Mayer's bonded valence
  FA   - Mayer's free valence

  ATOM       NA         ZA         QA         VA         BVA        FA
  0 H      0.9094     1.0000     0.0906     0.9806     0.9806    -0.0000
  1 C      5.9738     6.0000     0.0262     4.2026     4.2026    -0.0000
  2 O      8.7818     8.0000    -0.7818     1.5958     1.5958    -0.0000
  3 H      0.8815     1.0000     0.1185     0.9669     0.9669     0.0000
  4 C      6.1374     6.0000    -0.1374     3.8200     3.8200    -0.0000
  5 C      6.3953     6.0000    -0.3953     3.8811     3.8811     0.0000
  6 H      0.8844     1.0000     0.1156     0.9777     0.9777     0.0000
  7 H      1.0122     1.0000    -0.0122     0.9216     0.9216    -0.0000
  8 H      1.0244     1.0000    -0.0244     0.9075     0.9075    -0.0000

  Mayer bond orders larger than 0.100000
B(  0-H ,  4-C ) :   0.9514 B(  1-C ,  2-O ) :   1.4263 B(  1-C ,  4-C ) :   0.9719 
B(  1-C ,  7-H ) :   0.8981 B(  1-C ,  8-H ) :   0.8858 B(  3-H ,  5-C ) :   0.9526 
B(  4-C ,  5-C ) :   1.8650 B(  5-C ,  6-H ) :   0.9527 

-------
TIMINGS
-------

Total SCF time: 0 days 0 hours 0 min 22 sec 

Total time                  ....      22.738 sec
Sum of individual times     ....      20.683 sec  ( 91.0%)

Fock matrix formation       ....      18.897 sec  ( 83.1%)
  Split-RI-J                ....       1.954 sec  ( 10.3% of F)
  XC integration            ....      10.575 sec  ( 56.0% of F)
    Basis function eval.    ....       2.693 sec  ( 25.5% of XC)
    Density eval.           ....       1.696 sec  ( 16.0% of XC)
    XC-Functional eval.     ....       0.590 sec  (  5.6% of XC)
    XC-Potential eval.      ....       2.267 sec  ( 21.4% of XC)
Diagonalization             ....       0.031 sec  (  0.1%)
Density matrix formation    ....       0.003 sec  (  0.0%)
Population analysis         ....       0.265 sec  (  1.2%)
Initial guess               ....       0.319 sec  (  1.4%)
Orbital Transformation      ....       0.000 sec  (  0.0%)
Orbital Orthonormalization  ....       0.000 sec  (  0.0%)
DIIS solution               ....       0.130 sec  (  0.6%)
SOSCF solution              ....       0.390 sec  (  1.7%)
Grid generation             ....       0.648 sec  (  2.9%)

Maximum memory used throughout the entire SCF-calculation: 43.0 MB


-------------------------------------------------------------------------------
                          DFT DISPERSION CORRECTION                            
                                                                               
                              DFTD3 V3.1  Rev 1                                
                          USING Becke-Johnson damping                          
-------------------------------------------------------------------------------
The PBE functional is recognized
Active option DFTDOPT                   ...         4   

molecular C6(AA) [au] = 711.102661 


            DFT-D V3
 parameters
 s6 scaling factor         :     1.0000 
 a1 scaling factor         :     0.4289 
 s8 scaling factor         :     0.7875 
 a2 scaling factor         :     4.4407 
 ad hoc parameters k1-k3   :    16.0000     1.3333    -4.0000 

 Edisp/kcal,au: -3.352218023159  -0.005342098891 
 E6   /kcal   :  -2.398071920 
 E8   /kcal   :  -0.954146103 
 % E8         :  28.463127880 

-------------------------   ----------------
Dispersion correction           -0.005342099
-------------------------   ----------------


-------------------------   --------------------
FINAL SINGLE POINT ENERGY      -192.448223436504
-------------------------   --------------------

------------------------------------------------------------------------------
                         ORCA SCF GRADIENT CALCULATION
------------------------------------------------------------------------------

Gradient of the Kohn-Sham DFT energy:
Kohn-Sham wavefunction type      ... RKS
Hartree-Fock exchange scaling    ...    0.000
Number of operators              ...    1
Number of atoms                  ...    9
Basis set dimensions             ...  154
Integral neglect threshold       ... 2.5e-11
Integral primitive cutoff        ... 2.5e-12
SHARK Integral package           ... ON

Nuc. rep. gradient       (SHARK) ... done (  0.0 sec)
HCore & Overlap gradient (SHARK) ... done (  0.1 sec)
RI-J gradient            (SHARK) ... done (  0.7 sec)
Exchange-correlation gradient    ... done
Dispersion correction            ... done

------------------
CARTESIAN GRADIENT
------------------

   1   H   :   -0.003348822    0.003539594   -0.004590148
   2   C   :    0.030155355   -0.006007682   -0.022685112
   3   O   :   -0.046740064   -0.002116410   -0.002930174
   4   H   :    0.005175363   -0.006265696   -0.004738008
   5   C   :    0.016335240    0.001690479    0.015483905
   6   C   :   -0.004529451    0.002848298   -0.005353304
   7   H   :    0.003314405   -0.003640281    0.006025146
   8   H   :    0.001105154   -0.013057079    0.014504119
   9   H   :   -0.001467179    0.023008777    0.004283577

Difference to translation invariance:
           :    0.0000000000    0.0000000000   -0.0000000000

Difference to rotation invariance:
           :    0.0001485061   -0.0003215337    0.0001352046

Norm of the cartesian gradient     ...    0.0731458414
RMS gradient                       ...    0.0140769237
MAX gradient                       ...    0.0467400641

-------
TIMINGS
-------

Total SCF gradient time            ...        4.151 sec

One electron gradient       ....       0.104 sec  (  2.5%)
RI-J Coulomb gradient       ....       0.681 sec  ( 16.4%)
XC gradient                 ....       2.568 sec  ( 61.9%)
CPCM gradient               ....       0.207 sec  (  5.0%)
   A-Matrix (El+Nuc)        ....       0.019 sec  (  0.5%)
   Potential                ....       0.189 sec  (  4.5%)

Maximum memory used throughout the entire SCFGRAD-calculation: 52.2 MB
------------------------------------------------------------------------------
                         ORCA GEOMETRY RELAXATION STEP
------------------------------------------------------------------------------

Reading the OPT-File                    .... done
Getting information on internals        .... done
Copying old internal coords+grads       .... done
Making the new internal coordinates     .... (new redundants).... done
Validating the new internal coordinates .... (new redundants).... done
Calculating the B-matrix                .... done
Calculating the G,G- and P matrices     .... done
Transforming gradient to internals      .... done
Projecting the internal gradient        .... done
Number of atoms                         ....   9
Number of internal coordinates          ....  30
Current Energy                          ....  -192.448223437 Eh
Current gradient norm                   ....     0.073145841 Eh/bohr
Maximum allowed component of the step   ....  0.300
Current trust radius                    ....  0.300
Evaluating the initial hessian          ....  (Almloef) done
Projecting the Hessian                  .... done
Forming the augmented Hessian           .... done
Diagonalizing the augmented Hessian     .... done
Last element of RFO vector              ....  0.979298697
Lowest eigenvalues of augmented Hessian:
 -0.009892144  0.011744253  0.023943588  0.040049183  0.040262874
Length of the computed step             ....  0.206699454
The final length of the internal step   ....  0.206699454
Converting the step to cartesian space:
 Initial RMS(Int)=    0.0377379845
Transforming coordinates:
 Iter   0:  RMS(Cart)=    0.0417789721 RMS(Int)=    0.0378989332
 Iter   1:  RMS(Cart)=    0.0008091932 RMS(Int)=    0.0006798275
 Iter   2:  RMS(Cart)=    0.0000303322 RMS(Int)=    0.0000275097
 Iter   3:  RMS(Cart)=    0.0000011721 RMS(Int)=    0.0000009276
 Iter   4:  RMS(Cart)=    0.0000000538 RMS(Int)=    0.0000000492
done
Storing new coordinates                 .... done

                                .--------------------.
          ----------------------|Geometry convergence|-------------------------
          Item                value                   Tolerance       Converged
          ---------------------------------------------------------------------
          RMS gradient        0.0121379650            0.0001000000      NO
          MAX gradient        0.0437405937            0.0003000000      NO
          RMS step            0.0377379845            0.0020000000      NO
          MAX step            0.0809514333            0.0040000000      NO
          ........................................................
          Max(Bonds)      0.0331      Max(Angles)    4.11
          Max(Dihed)        4.64      Max(Improp)    0.00
          ---------------------------------------------------------------------

The optimization has not yet converged - more geometry cycles are needed


    ---------------------------------------------------------------------------
                         Redundant Internal Coordinates
                            (Angstroem and degrees)

        Definition                    Value    dE/dq     Step     New-Value
    ----------------------------------------------------------------------------
     1. B(O   2,C   1)                1.3211 -0.043741  0.0317    1.3528   
     2. B(C   4,C   1)                1.5130 -0.006706  0.0087    1.5217   
     3. B(C   4,H   0)                1.0877 -0.005894  0.0084    1.0961   
     4. B(C   5,C   4)                1.3407 -0.007392  0.0052    1.3459   
     5. B(C   5,H   3)                1.0819 -0.008224  0.0114    1.0933   
     6. B(H   6,C   5)                1.0835 -0.007196  0.0101    1.0936   
     7. B(H   7,C   1)                1.1015 -0.018682  0.0278    1.1293   
     8. B(H   8,C   1)                1.1016 -0.022228  0.0331    1.1348   
     9. A(C   4,C   1,H   7)          107.35  0.005455   -0.90    106.45   
    10. A(O   2,C   1,H   7)          118.77  0.012975   -2.02    116.75   
    11. A(O   2,C   1,C   4)          105.20 -0.029395    4.11    109.31   
    12. A(O   2,C   1,H   8)          118.67  0.013884   -1.93    116.74   
    13. A(C   4,C   1,H   8)          104.67 -0.003971    0.83    105.50   
    14. A(H   7,C   1,H   8)          101.03 -0.000183    0.13    101.16   
    15. A(H   0,C   4,C   5)          119.27  0.000178    0.05    119.32   
    16. A(H   0,C   4,C   1)          116.18  0.005925   -0.92    115.26   
    17. A(C   1,C   4,C   5)          124.55 -0.006115    0.89    125.44   
    18. A(C   4,C   5,H   6)          120.36 -0.000331    0.10    120.45   
    19. A(H   3,C   5,H   6)          118.92  0.004173   -0.73    118.19   
    20. A(H   3,C   5,C   4)          120.69 -0.003839    0.63    121.32   
    21. D(H   0,C   4,C   1,H   7)    170.76 -0.001550    2.32    173.08   
    22. D(C   5,C   4,C   1,O   2)    118.47  0.002160   -2.73    115.74   
    23. D(H   0,C   4,C   1,O   2)    -61.84 -0.000506    1.84    -60.00   
    24. D(C   5,C   4,C   1,H   7)     -8.93  0.001116   -2.26    -11.18   
    25. D(C   5,C   4,C   1,H   8)   -115.73  0.000922   -2.40   -118.13   
    26. D(H   0,C   4,C   1,H   8)     63.96 -0.001743    2.18     66.13   
    27. D(H   3,C   5,C   4,H   0)      0.86 -0.000622   -0.07      0.80   
    28. D(H   6,C   5,C   4,C   1)     -1.36 -0.003170    4.42      3.06   
    29. D(H   6,C   5,C   4,H   0)    178.96 -0.000443   -0.28    178.68   
    30. D(H   3,C   5,C   4,C   1)   -179.46 -0.003349    4.64   -174.82   
    ----------------------------------------------------------------------------

         *************************************************************
         *                GEOMETRY OPTIMIZATION CYCLE   2            *
         *************************************************************
---------------------------------
CARTESIAN COORDINATES (ANGSTROEM)
---------------------------------
  H     -5.158489   -2.533650   -0.905814
  C     -4.199130   -2.401103   -2.905732
  O     -2.954942   -2.181612   -2.422209
  H     -6.770321   -0.705767   -1.159752
  C     -5.224551   -1.994181   -1.857662
  C     -6.118489   -0.996528   -1.987914
  H     -6.185970   -0.431165   -2.921551
  H     -4.478833   -1.856897   -3.854915
  H     -4.456983   -3.471110   -3.182003

----------------------------
CARTESIAN COORDINATES (A.U.)
----------------------------
  NO LB      ZA    FRAG     MASS         X           Y           Z
   0 H     1.0000    0     1.008   -9.748132   -4.787904   -1.711740
   1 C     6.0000    0    12.011   -7.935206   -4.537427   -5.491037
   2 O     8.0000    0    15.999   -5.584030   -4.122650   -4.577312
   3 H     1.0000    0     1.008  -12.794052   -1.333707   -2.191614
   4 C     6.0000    0    12.011   -9.872971   -3.768456   -3.510472
   5 C     6.0000    0    12.011  -11.562269   -1.883164   -3.756613
   6 H     1.0000    0     1.008  -11.689790   -0.814783   -5.520932
   7 H     1.0000    0     1.008   -8.463768   -3.509028   -7.284735
   8 H     1.0000    0     1.008   -8.422476   -6.559447   -6.013114

--------------------------------
INTERNAL COORDINATES (ANGSTROEM)
--------------------------------
 H      0   0   0     0.000000000000     0.00000000     0.00000000
 C      1   0   0     2.222073300484     0.00000000     0.00000000
 O      2   1   0     1.352765958415    94.87996253     0.00000000
 H      1   2   3     2.450232478774    98.40878370   121.06353551
 C      1   2   3     1.096086229457    38.28647515   124.84702659
 C      4   1   2     1.093287609956    59.19625011     3.13263420
 H      6   4   1     1.093556977158   118.19254788   181.71268332
 H      2   1   3     1.129310904769   132.70949259   226.09312487
 H      2   1   3     1.134781413875    93.71362219   117.20160167

---------------------------
INTERNAL COORDINATES (A.U.)
---------------------------
 H      0   0   0     0.000000000000     0.00000000     0.00000000
 C      1   0   0     4.199109987414     0.00000000     0.00000000
 O      2   1   0     2.556357184696    94.87996253     0.00000000
 H      1   2   3     4.630268349321    98.40878370   121.06353551
 C      1   2   3     2.071302792837    38.28647515   124.84702659
 C      4   1   2     2.066014168427    59.19625011     3.13263420
 H      6   4   1     2.066523198667   118.19254788   181.71268332
 H      2   1   3     2.134088330064   132.70949259   226.09312487
 H      2   1   3     2.144426094087    93.71362219   117.20160167

------------------------------------------------------------------------------
                   ___                                                        
                  /   \      - P O W E R E D   B Y -                         
                 /     \                                                     
                 |  |  |   _    _      __       _____    __    __             
                 |  |  |  | |  | |    /  \     |  _  \  |  |  /  |          
                  \  \/   | |  | |   /    \    | | | |  |  | /  /          
                 / \  \   | |__| |  /  /\  \   | |_| |  |  |/  /          
                |  |  |   |  __  | /  /__\  \  |    /   |      \           
                |  |  |   | |  | | |   __   |  |    \   |  |\   \          
                \     /   | |  | | |  |  |  |  | |\  \  |  | \   \       
                 \___/    |_|  |_| |__|  |__|  |_| \__\ |__|  \__/        
                                                                              
                      - O R C A' S   B I G   F R I E N D -                    
                                      &                                       
                       - I N T E G R A L  F E E D E R -                       
                                                                              
 v1 FN, 2020, v2 2021                                                         
------------------------------------------------------------------------------


Reading SHARK input file inp.SHARKINP.tmp ... ok
----------------------
SHARK INTEGRAL PACKAGE
----------------------

Number of atoms                             ...      9
Number of basis functions                   ...    154
Number of shells                            ...     64
Maximum angular momentum                    ...      3
Integral batch strategy                     ... SHARK/LIBINT Hybrid
RI-J (if used) integral strategy            ... SPLIT-RIJ (Revised 2003 algorithm where possible)
Printlevel                                  ...      1
Contraction scheme used                     ... SEGMENTED contraction
Coulomb Range Separation                    ... NOT USED
Exchange Range Separation                   ... NOT USED
Finite Nucleus Model                        ... NOT USED
Auxiliary Coulomb fitting basis             ... AVAILABLE
   # of basis functions in Aux-J            ...    251
   # of shells in Aux-J                     ...     85
   Maximum angular momentum in Aux-J        ...      4
Auxiliary J/K fitting basis                 ... NOT available
Auxiliary Correlation fitting basis         ... NOT available
Auxiliary 'external' fitting basis          ... NOT available
Integral threshold                          ...     2.500000e-11
Primitive cut-off                           ...     2.500000e-12
Primitive pair pre-selection threshold      ...     2.500000e-12

Calculating pre-screening integrals         ... done (  0.0 sec) Dimension = 64
Organizing shell pair data                  ... done (  0.1 sec)
Shell pair information
Total number of shell pairs                 ...      2080
Shell pairs after pre-screening             ...      2019
Total number of primitive shell pairs       ...      6208
Primitive shell pairs kept                  ...      4949
          la=0 lb=0:    598 shell pairs
          la=1 lb=0:    580 shell pairs
          la=1 lb=1:    152 shell pairs
          la=2 lb=0:    273 shell pairs
          la=2 lb=1:    135 shell pairs
          la=2 lb=2:     36 shell pairs
          la=3 lb=0:    136 shell pairs
          la=3 lb=1:     67 shell pairs
          la=3 lb=2:     32 shell pairs
          la=3 lb=3:     10 shell pairs

Calculating one electron integrals          ... done (  0.0 sec)
Calculating RI/J V-Matrix + Cholesky decomp.... done (  0.2 sec)
Calculating Nuclear repulsion               ... done (  0.0 sec) ENN=    108.333699165457 Eh

SHARK setup successfully completed in   0.8 seconds

Maximum memory used throughout the entire GTOINT-calculation: 29.8 MB

Diagonalization of the overlap matrix:
Smallest eigenvalue                        ... 1.961e-04
Time for diagonalization                   ...    0.003 sec
Threshold for overlap eigenvalues          ... 1.000e-08
Number of eigenvalues below threshold      ... 0
Time for construction of square roots      ...    0.119 sec
Total time needed                          ...    0.122 sec

-------------------
DFT GRID GENERATION
-------------------

General Integration Accuracy     IntAcc      ... 4.388
Radial Grid Type                 RadialGrid  ... OptM3 with GC (2021)
Angular Grid (max. ang.)         AngularGrid ... 4 (Lebedev-302)
Angular grid pruning method      GridPruning ... 4 (adaptive)
Weight generation scheme         WeightScheme... Becke
Basis function cutoff            BFCut       ... 1.0000e-11
Integration weight cutoff        WCut        ... 1.0000e-14
Angular grids for H and He will be reduced by one unit
Partially contracted basis set               ... off
Rotationally invariant grid construction     ... off

Total number of grid points                  ...    40627
Total number of batches                      ...      639
Average number of points per batch           ...       63
Average number of grid points per atom       ...     4514
Time for grid setup =    0.451 sec


--------------------
CPCM SOLVATION MODEL
--------------------
CPCM parameters:
  Epsilon                                         ...      80.4000
  Refrac                                          ...       1.3300
  Rsolv                                           ...       1.3000
  Surface type                                    ... GAUSSIAN VDW
  Epsilon function type                           ...         CPCM
Radii:
 Radius for H  used is    2.4944 Bohr (=   1.3200 Ang.)
 Radius for C  used is    3.8550 Bohr (=   2.0400 Ang.)
 Radius for O  used is    3.4469 Bohr (=   1.8240 Ang.)
Calculating surface                               ...        done! (  0.0s)
GEPOL surface points                              ...          573
GEPOL Volume                                      ...     586.7707
GEPOL Surface-area                                ...     378.2770
Calculating surface distance matrix               ...        done! (  0.0s)
Performing Cholesky decomposition & store         ...        done! (  0.1s)
Overall time for CPCM initialization              ...                 0.1s
--------------
SCF ITERATIONS
--------------
ITER       Energy         Delta-E        Max-DP      RMS-DP      [F,P]     Damp
               ***  Starting incremental Fock matrix formation  ***
  0   -192.4467297049   0.000000000000 0.00648652  0.00022606  0.0125849 0.7000
                      *** Initiating the SOSCF procedure ***
                      *** Re-Reading the Fockian *** 
                      *** Removing any level shift *** 
ITER      Energy       Delta-E        Grad      Rot      Max-DP    RMS-DP
  1   -192.44734630  -0.0006165941  0.001644  0.001644  0.024346  0.000806
               *** Restarting incremental Fock matrix formation ***
  2   -192.44882959  -0.0014832913  0.001019  0.005925  0.013740  0.000328
  3   -192.44880447   0.0000251173  0.002222  0.004025  0.003700  0.000125
  4   -192.44888645  -0.0000819783  0.000552  0.001327  0.001994  0.000074
  5   -192.44887854   0.0000079152  0.000755  0.000438  0.000846  0.000029
  6   -192.44889304  -0.0000145056  0.000085  0.000454  0.000817  0.000019
  7   -192.44889278   0.0000002613  0.000189  0.000302  0.000480  0.000011
  8   -192.44889322  -0.0000004412  0.000031  0.000066  0.000167  0.000007
  9   -192.44889322  -0.0000000017  0.000031  0.000035  0.000083  0.000003
 10   -192.44889327  -0.0000000488  0.000008  0.000021  0.000024  0.000001
 11   -192.44889327   0.0000000007  0.000008  0.000010  0.000015  0.000001
                 **** Energy Check signals convergence ****
              ***Rediagonalizing the Fockian in SOSCF/NRSCF***

               *****************************************************
               *                     SUCCESS                       *
               *           SCF CONVERGED AFTER  12 CYCLES          *
               *****************************************************

Total Energy       :         -192.44889327 Eh           -5236.80062 eV
  Last Energy change         ...   -2.7457e-09  Tolerance :   1.0000e-08
  Last MAX-Density change    ...    2.3872e-06  Tolerance :   1.0000e-07
             **** THE GBW FILE WAS UPDATED (inp.gbw) ****
             **** DENSITY inp.scfp WAS UPDATED ****
             **** ENERGY FILE WAS UPDATED (inp.en.tmp) ****
             **** THE GBW FILE WAS UPDATED (inp.gbw) ****
             **** DENSITY inp.scfp WAS UPDATED ****
Total SCF time: 0 days 0 hours 0 min 18 sec 

Maximum memory used throughout the entire SCF-calculation: 42.9 MB


-------------------------------------------------------------------------------
                          DFT DISPERSION CORRECTION                            
                                                                               
                              DFTD3 V3.1  Rev 1                                
                          USING Becke-Johnson damping                          
-------------------------------------------------------------------------------
-------------------------   ----------------
Dispersion correction           -0.005287636
-------------------------   ----------------


-------------------------   --------------------
FINAL SINGLE POINT ENERGY      -192.454180910009
-------------------------   --------------------

------------------------------------------------------------------------------
                         ORCA SCF GRADIENT CALCULATION
------------------------------------------------------------------------------

Gradient of the Kohn-Sham DFT energy:
Kohn-Sham wavefunction type      ... RKS
Hartree-Fock exchange scaling    ...    0.000
Number of operators              ...    1
Number of atoms                  ...    9
Basis set dimensions             ...  154
Integral neglect threshold       ... 2.5e-11
Integral primitive cutoff        ... 2.5e-12
SHARK Integral package           ... ON

Nuc. rep. gradient       (SHARK) ... done (  0.0 sec)
HCore & Overlap gradient (SHARK) ... done (  0.1 sec)
RI-J gradient            (SHARK) ... done (  0.6 sec)
Exchange-correlation gradient    ... done
Dispersion correction            ... done

------------------
CARTESIAN GRADIENT
------------------

   1   H   :   -0.001431002    0.000666757   -0.000915862
   2   C   :    0.012814683   -0.000525428   -0.006287588
   3   O   :   -0.010602604    0.001076178    0.002020300
   4   H   :    0.001265885   -0.001592602    0.001253538
   5   C   :    0.005797999   -0.002160744    0.007123350
   6   C   :   -0.004442477    0.003566509   -0.003503420
   7   H   :    0.001476940   -0.000761243    0.000285805
   8   H   :   -0.001567192   -0.003936855    0.001031955
   9   H   :   -0.003312232    0.003667428   -0.001008078

Difference to translation invariance:
           :    0.0000000000    0.0000000000   -0.0000000000

Difference to rotation invariance:
           :    0.0001010991   -0.0007411669    0.0001956876

Norm of the cartesian gradient     ...    0.0226225338
RMS gradient                       ...    0.0043537087
MAX gradient                       ...    0.0128146832

-------
TIMINGS
-------

Total SCF gradient time            ...        3.762 sec

One electron gradient       ....       0.092 sec  (  2.5%)
RI-J Coulomb gradient       ....       0.616 sec  ( 16.4%)
XC gradient                 ....       2.474 sec  ( 65.8%)
CPCM gradient               ....       0.203 sec  (  5.4%)
   A-Matrix (El+Nuc)        ....       0.019 sec  (  0.5%)
   Potential                ....       0.184 sec  (  4.9%)

Maximum memory used throughout the entire SCFGRAD-calculation: 52.1 MB
------------------------------------------------------------------------------
                         ORCA GEOMETRY RELAXATION STEP
------------------------------------------------------------------------------

Reading the OPT-File                    .... done
Getting information on internals        .... done
Copying old internal coords+grads       .... done
Making the new internal coordinates     .... (new redundants).... done
Validating the new internal coordinates .... (new redundants).... done
Calculating the B-matrix                .... done
Calculating the G,G- and P matrices     .... done
Transforming gradient to internals      .... done
Projecting the internal gradient        .... done
Number of atoms                         ....   9
Number of internal coordinates          ....  30
Current Energy                          ....  -192.454180910 Eh
Current gradient norm                   ....     0.022622534 Eh/bohr
Maximum allowed component of the step   ....  0.300
Current trust radius                    ....  0.300
Updating the Hessian (BFGS)             .... done
Forming the augmented Hessian           .... done
Diagonalizing the augmented Hessian     .... done
Last element of RFO vector              ....  0.996891937
Lowest eigenvalues of augmented Hessian:
 -0.001056349  0.011753438  0.023912135  0.039902718  0.040765981
Length of the computed step             ....  0.079026747
The final length of the internal step   ....  0.079026747
Converting the step to cartesian space:
 Initial RMS(Int)=    0.0144282440
Transforming coordinates:
 Iter   0:  RMS(Cart)=    0.0168155567 RMS(Int)=    0.0144488838
 Iter   1:  RMS(Cart)=    0.0002164779 RMS(Int)=    0.0002029961
 Iter   2:  RMS(Cart)=    0.0000046327 RMS(Int)=    0.0000031068
 Iter   3:  RMS(Cart)=    0.0000001172 RMS(Int)=    0.0000001141
 Iter   4:  RMS(Cart)=    0.0000000029 RMS(Int)=    0.0000000019
done
Storing new coordinates                 .... done

                                .--------------------.
          ----------------------|Geometry convergence|-------------------------
          Item                value                   Tolerance       Converged
          ---------------------------------------------------------------------
          Energy change      -0.0059574735            0.0000050000      NO
          RMS gradient        0.0031667753            0.0001000000      NO
          MAX gradient        0.0101869112            0.0003000000      NO
          RMS step            0.0144282440            0.0020000000      NO
          MAX step            0.0334574522            0.0040000000      NO
          ........................................................
          Max(Bonds)      0.0096      Max(Angles)    1.92
          Max(Dihed)        1.65      Max(Improp)    0.00
          ---------------------------------------------------------------------

The optimization has not yet converged - more geometry cycles are needed


    ---------------------------------------------------------------------------
                         Redundant Internal Coordinates
                            (Angstroem and degrees)

        Definition                    Value    dE/dq     Step     New-Value
    ----------------------------------------------------------------------------
     1. B(O   2,C   1)                1.3528 -0.008875  0.0096    1.3624   
     2. B(C   4,C   1)                1.5217  0.001058 -0.0015    1.5202   
     3. B(C   4,H   0)                1.0961 -0.001207  0.0026    1.0986   
     4. B(C   5,C   4)                1.3459  0.002207 -0.0018    1.3441   
     5. B(C   5,H   3)                1.0933 -0.000222  0.0008    1.0941   
     6. B(H   6,C   5)                1.0936 -0.000739  0.0017    1.0953   
     7. B(H   7,C   1)                1.1293 -0.002365  0.0056    1.1349   
     8. B(H   8,C   1)                1.1348 -0.002445  0.0060    1.1407   
     9. A(C   4,C   1,H   7)          106.45  0.001974   -0.42    106.02   
    10. A(O   2,C   1,H   7)          116.75  0.005007   -1.20    115.55   
    11. A(O   2,C   1,C   4)          109.28 -0.010187    1.92    111.20   
    12. A(O   2,C   1,H   8)          116.68  0.006339   -1.44    115.24   
    13. A(C   4,C   1,H   8)          105.47 -0.001480    0.45    105.92   
    14. A(H   7,C   1,H   8)          101.16 -0.001697    0.80    101.96   
    15. A(H   0,C   4,C   5)          119.27 -0.000228    0.06    119.33   
    16. A(H   0,C   4,C   1)          115.21  0.002070   -0.48    114.73   
    17. A(C   1,C   4,C   5)          125.39 -0.001809    0.37    125.76   
    18. A(C   4,C   5,H   6)          120.45 -0.000278    0.11    120.56   
[...]
   4   2.0000      -0.799035       -21.7429 
   5   2.0000      -0.670950       -18.2575 
   6   2.0000      -0.543627       -14.7928 
   7   2.0000      -0.468382       -12.7453 
   8   2.0000      -0.389525       -10.5995 
   9   2.0000      -0.355233        -9.6664 
  10   2.0000      -0.323039        -8.7903 
  11   2.0000      -0.287947        -7.8354 
  12   2.0000      -0.279982        -7.6187 
  13   2.0000      -0.217678        -5.9233 
  14   2.0000      -0.132389        -3.6025 
  15   2.0000      -0.127672        -3.4741 
  16   0.0000      -0.011654        -0.3171 
  17   0.0000       0.054289         1.4773 
  18   0.0000       0.068062         1.8521 
  19   0.0000       0.081555         2.2192 
  20   0.0000       0.114192         3.1073 
  21   0.0000       0.124077         3.3763 
  22   0.0000       0.134253         3.6532 
  23   0.0000       0.175031         4.7628 
  24   0.0000       0.194120         5.2823 
  25   0.0000       0.207995         5.6598 
  26   0.0000       0.222497         6.0545 
  27   0.0000       0.256030         6.9669 
  28   0.0000       0.283011         7.7011 
  29   0.0000       0.296485         8.0678 
  30   0.0000       0.322481         8.7751 
  31   0.0000       0.347654         9.4602 
  32   0.0000       0.352580         9.5942 
  33   0.0000       0.369094        10.0435 
  34   0.0000       0.399323        10.8661 
  35   0.0000       0.415043        11.2939 
  36   0.0000       0.424554        11.5527 
  37   0.0000       0.436477        11.8771 
  38   0.0000       0.444428        12.0935 
  39   0.0000       0.470810        12.8114 
  40   0.0000       0.520926        14.1751 
  41   0.0000       0.531503        14.4629 
  42   0.0000       0.557433        15.1685 
  43   0.0000       0.577826        15.7234 
  44   0.0000       0.612256        16.6603 
  45   0.0000       0.619949        16.8697 
  46   0.0000       0.674159        18.3448 
  47   0.0000       0.757723        20.6187 
  48   0.0000       0.769448        20.9377 
  49   0.0000       0.832696        22.6588 
  50   0.0000       0.873081        23.7577 
  51   0.0000       0.924352        25.1529 
  52   0.0000       0.942420        25.6446 
  53   0.0000       0.980330        26.6761 
  54   0.0000       1.004062        27.3219 
  55   0.0000       1.038181        28.2503 
  56   0.0000       1.118573        30.4379 
  57   0.0000       1.129585        30.7376 
  58   0.0000       1.192008        32.4362 
  59   0.0000       1.202516        32.7221 
  60   0.0000       1.235548        33.6210 
  61   0.0000       1.358184        36.9581 
  62   0.0000       1.397560        38.0295 
  63   0.0000       1.463452        39.8225 
  64   0.0000       1.474536        40.1242 
  65   0.0000       1.488603        40.5070 
  66   0.0000       1.531795        41.6823 
  67   0.0000       1.566448        42.6252 
  68   0.0000       1.578728        42.9594 
  69   0.0000       1.585391        43.1407 
  70   0.0000       1.626653        44.2635 
  71   0.0000       1.656981        45.0887 
  72   0.0000       1.700385        46.2698 
  73   0.0000       1.720999        46.8308 
  74   0.0000       1.764494        48.0143 
  75   0.0000       1.781491        48.4768 
  76   0.0000       1.842168        50.1279 
  77   0.0000       1.858521        50.5729 
  78   0.0000       1.888771        51.3961 
  79   0.0000       1.952834        53.1393 
  80   0.0000       2.032237        55.3000 
  81   0.0000       2.115060        57.5537 
  82   0.0000       2.136558        58.1387 
  83   0.0000       2.169918        59.0465 
  84   0.0000       2.222627        60.4807 
  85   0.0000       2.245491        61.1029 
  86   0.0000       2.286307        62.2136 
  87   0.0000       2.311687        62.9042 
  88   0.0000       2.368891        64.4608 
  89   0.0000       2.381085        64.7926 
  90   0.0000       2.472637        67.2839 
  91   0.0000       2.492306        67.8191 
  92   0.0000       2.531061        68.8737 
  93   0.0000       2.547630        69.3245 
  94   0.0000       2.575143        70.0732 
  95   0.0000       2.604294        70.8664 
  96   0.0000       2.664278        72.4987 
  97   0.0000       2.692910        73.2778 
  98   0.0000       2.763274        75.1925 
  99   0.0000       2.786594        75.8271 
 100   0.0000       2.838120        77.2292 
 101   0.0000       2.876721        78.2796 
 102   0.0000       2.895114        78.7801 
 103   0.0000       2.937094        79.9224 
 104   0.0000       2.982620        81.1612 
 105   0.0000       3.000124        81.6375 
 106   0.0000       3.017530        82.1112 
 107   0.0000       3.045935        82.8841 
 108   0.0000       3.059892        83.2639 
 109   0.0000       3.091881        84.1344 
 110   0.0000       3.120614        84.9162 
 111   0.0000       3.142195        85.5035 
 112   0.0000       3.191815        86.8537 
 113   0.0000       3.222308        87.6835 
 114   0.0000       3.261987        88.7632 
 115   0.0000       3.270640        88.9986 
 116   0.0000       3.316987        90.2598 
 117   0.0000       3.354836        91.2897 
 118   0.0000       3.428650        93.2983 
 119   0.0000       3.484954        94.8304 
 120   0.0000       3.503694        95.3404 
 121   0.0000       3.593398        97.7813 
 122   0.0000       3.607761        98.1722 
 123   0.0000       3.691987       100.4641 
 124   0.0000       3.774234       102.7021 
 125   0.0000       3.794243       103.2466 
 126   0.0000       3.969978       108.0286 
 127   0.0000       4.022413       109.4554 
 128   0.0000       4.079702       111.0143 
 129   0.0000       4.206712       114.4705 
 130   0.0000       4.223826       114.9361 
 131   0.0000       4.333869       117.9306 
 132   0.0000       4.447642       121.0265 
 133   0.0000       4.501246       122.4851 
 134   0.0000       4.575627       124.5091 
 135   0.0000       4.611082       125.4739 
 136   0.0000       4.716987       128.3557 
 137   0.0000       4.940198       134.4296 
 138   0.0000       5.168086       140.6308 
 139   0.0000       5.185160       141.0954 
 140   0.0000       5.389692       146.6610 
 141   0.0000       5.391749       146.7169 
 142   0.0000       5.806459       158.0018 
 143   0.0000       5.842088       158.9713 
 144   0.0000       5.937198       161.5594 
 145   0.0000       6.322273       172.0378 
 146   0.0000       6.338918       172.4907 
 147   0.0000       6.730628       183.1497 
 148   0.0000       6.789702       184.7572 
 149   0.0000       6.902051       187.8144 
 150   0.0000      21.791441       592.9753 
 151   0.0000      22.200184       604.0977 
 152   0.0000      22.380930       609.0161 
 153   0.0000      43.371542      1180.1997 

                    ********************************
                    * MULLIKEN POPULATION ANALYSIS *
                    ********************************

-----------------------
MULLIKEN ATOMIC CHARGES
-----------------------
   0 H :    0.085994
   1 C :    0.004844
   2 O :   -0.822154
   3 H :    0.126325
   4 C :   -0.125623
   5 C :   -0.368550
   6 H :    0.117006
   7 H :   -0.008121
   8 H :   -0.009721
Sum of atomic charges:   -1.0000000

--------------------------------
MULLIKEN REDUCED ORBITAL CHARGES
--------------------------------
  0 H s       :     0.892749  s :     0.892749
      pz      :     0.011002  p :     0.021257
      px      :     0.004165
      py      :     0.006090
  1 C s       :     3.168624  s :     3.168624
      pz      :     0.931888  p :     2.692065
      px      :     0.761880
      py      :     0.998296
      dz2     :     0.024160  d :     0.125038
      dxz     :     0.029245
      dyz     :     0.011693
      dx2y2   :     0.028151
      dxy     :     0.031788
      f0      :     0.000618  f :     0.009430
      f+1     :     0.002151
      f-1     :     0.000464
      f+2     :     0.001845
      f-2     :     0.000936
      f+3     :     0.001236
      f-3     :     0.002180
  2 O s       :     3.837775  s :     3.837775
      pz      :     1.749152  p :     4.961075
      px      :     1.405181
      py      :     1.806742
      dz2     :     0.002846  d :     0.022043
      dxz     :     0.006476
      dyz     :     0.000738
      dx2y2   :     0.007321
      dxy     :     0.004662
      f0      :     0.000125  f :     0.001261
      f+1     :     0.000222
      f-1     :     0.000007
      f+2     :     0.000269
      f-2     :     0.000089
      f+3     :     0.000308
      f-3     :     0.000240
  3 H s       :     0.851957  s :     0.851957
      pz      :     0.008601  p :     0.021719
      px      :     0.007839
      py      :     0.005278
  4 C s       :     3.222396  s :     3.222396
      pz      :     0.947436  p :     2.810771
      px      :     0.916574
      py      :     0.946761
      dz2     :     0.016159  d :     0.086028
      dxz     :     0.012573
      dyz     :     0.023744
      dx2y2   :     0.024247
      dxy     :     0.009304
      f0      :     0.000818  f :     0.006428
      f+1     :     0.000841
      f-1     :     0.000571
      f+2     :     0.000679
      f-2     :     0.001361
      f+3     :     0.000873
      f-3     :     0.001286
  5 C s       :     3.252147  s :     3.252147
      pz      :     1.023043  p :     3.064802
      px      :     1.013956
      py      :     1.027803
      dz2     :     0.003251  d :     0.047234
      dxz     :     0.012229
      dyz     :     0.016719
      dx2y2   :     0.009804
      dxy     :     0.005231
      f0      :     0.000411  f :     0.004367
      f+1     :     0.000391
      f-1     :     0.000516
      f+2     :     0.000258
      f-2     :     0.001017
      f+3     :     0.000731
      f-3     :     0.001044
  6 H s       :     0.861352  s :     0.861352
      pz      :     0.010469  p :     0.021642
      px      :     0.004495
      py      :     0.006678
  7 H s       :     0.989095  s :     0.989095
      pz      :     0.009371  p :     0.019025
      px      :     0.003965
      py      :     0.005689
  8 H s       :     0.990768  s :     0.990768
      pz      :     0.004673  p :     0.018954
      px      :     0.004027
      py      :     0.010253


                     *******************************
                     * LOEWDIN POPULATION ANALYSIS *
                     *******************************

----------------------
LOEWDIN ATOMIC CHARGES
----------------------
   0 H :    0.127665
   1 C :   -0.539184
   2 O :   -0.445259
   3 H :    0.116893
   4 C :   -0.243363
   5 C :   -0.290225
   6 H :    0.117061
   7 H :    0.079449
   8 H :    0.076963

-------------------------------
LOEWDIN REDUCED ORBITAL CHARGES
-------------------------------
  0 H s       :     0.813993  s :     0.813993
      pz      :     0.030310  p :     0.058342
      px      :     0.011601
      py      :     0.016431
  1 C s       :     2.821484  s :     2.821484
      pz      :     1.014728  p :     2.973232
      px      :     0.939358
      py      :     1.019146
      dz2     :     0.105312  d :     0.668530
      dxz     :     0.187687
      dyz     :     0.075577
      dx2y2   :     0.151583
      dxy     :     0.148371
      f0      :     0.006877  f :     0.075938
      f+1     :     0.017303
      f-1     :     0.004211
      f+2     :     0.010850
      f-2     :     0.009418
      f+3     :     0.009844
      f-3     :     0.017436
  2 O s       :     3.506338  s :     3.506338
      pz      :     1.686831  p :     4.881059
      px      :     1.452816
      py      :     1.741412
      dz2     :     0.006943  d :     0.053890
      dxz     :     0.015990
      dyz     :     0.001956
      dx2y2   :     0.016157
      dxy     :     0.012844
      f0      :     0.000381  f :     0.003971
      f+1     :     0.000736
      f-1     :     0.000023
      f+2     :     0.000821
      f-2     :     0.000315
      f+3     :     0.000890
      f-3     :     0.000805
  3 H s       :     0.820737  s :     0.820737
      pz      :     0.026259  p :     0.062370
      px      :     0.021500
      py      :     0.014611
  4 C s       :     2.831092  s :     2.831092
      pz      :     0.996182  p :     2.979587
      px      :     0.982097
      py      :     1.001308
      dz2     :     0.074675  d :     0.393343
      dxz     :     0.071037
      dyz     :     0.096664
      dx2y2   :     0.087935
      dxy     :     0.063032
      f0      :     0.005846  f :     0.039340
      f+1     :     0.005158
      f-1     :     0.004274
      f+2     :     0.003926
      f-2     :     0.007782
      f+3     :     0.005450
      f-3     :     0.006905
  5 C s       :     2.870185  s :     2.870185
      pz      :     1.025455  p :     3.155763
      px      :     1.055361
      py      :     1.074947
      dz2     :     0.029729  d :     0.238107
      dxz     :     0.056896
      dyz     :     0.074915
      dx2y2   :     0.035846
      dxy     :     0.040721
      f0      :     0.003642  f :     0.026171
      f+1     :     0.002989
      f-1     :     0.003205
      f+2     :     0.001106
      f-2     :     0.005150
      f+3     :     0.004897
      f-3     :     0.005181
  6 H s       :     0.820879  s :     0.820879
      pz      :     0.031049  p :     0.062060
      px      :     0.012900
      py      :     0.018111
  7 H s       :     0.867347  s :     0.867347
      pz      :     0.025654  p :     0.053204
      px      :     0.010518
      py      :     0.017031
  8 H s       :     0.869885  s :     0.869885
      pz      :     0.012082  p :     0.053153
      px      :     0.010650
      py      :     0.030421


                      *****************************
                      * MAYER POPULATION ANALYSIS *
                      *****************************

  NA   - Mulliken gross atomic population
  ZA   - Total nuclear charge
  QA   - Mulliken gross atomic charge
  VA   - Mayer's total valence
  BVA  - Mayer's bonded valence
  FA   - Mayer's free valence

  ATOM       NA         ZA         QA         VA         BVA        FA
  0 H      0.9140     1.0000     0.0860     0.9824     0.9824    -0.0000
  1 C      5.9952     6.0000     0.0048     4.1966     4.1966    -0.0000
  2 O      8.8222     8.0000    -0.8222     1.5483     1.5483    -0.0000
  3 H      0.8737     1.0000     0.1263     0.9652     0.9652     0.0000
  4 C      6.1256     6.0000    -0.1256     3.8048     3.8048     0.0000
  5 C      6.3685     6.0000    -0.3685     3.8852     3.8852     0.0000
  6 H      0.8830     1.0000     0.1170     0.9776     0.9776    -0.0000
  7 H      1.0081     1.0000    -0.0081     0.9255     0.9255     0.0000
  8 H      1.0097     1.0000    -0.0097     0.9161     0.9161     0.0000

  Mayer bond orders larger than 0.100000
B(  0-H ,  4-C ) :   0.9461 B(  1-C ,  2-O ) :   1.4264 B(  1-C ,  4-C ) :   0.9576 
B(  1-C ,  7-H ) :   0.8978 B(  1-C ,  8-H ) :   0.8926 B(  3-H ,  5-C ) :   0.9496 
B(  4-C ,  5-C ) :   1.8894 B(  5-C ,  6-H ) :   0.9466 

-------
TIMINGS
-------

Total SCF time: 0 days 0 hours 0 min 12 sec 

Total time                  ....      12.038 sec
Sum of individual times     ....      10.663 sec  ( 88.6%)

Fock matrix formation       ....       9.919 sec  ( 82.4%)
  Split-RI-J                ....       0.802 sec  (  8.1% of F)
  XC integration            ....       5.385 sec  ( 54.3% of F)
    Basis function eval.    ....       0.994 sec  ( 18.5% of XC)
    Density eval.           ....       1.943 sec  ( 36.1% of XC)
    XC-Functional eval.     ....       0.238 sec  (  4.4% of XC)
    XC-Potential eval.      ....       0.713 sec  ( 13.2% of XC)
Diagonalization             ....       0.004 sec  (  0.0%)
Density matrix formation    ....       0.001 sec  (  0.0%)
Population analysis         ....       0.200 sec  (  1.7%)
Initial guess               ....       0.004 sec  (  0.0%)
Orbital Transformation      ....       0.000 sec  (  0.0%)
Orbital Orthonormalization  ....       0.003 sec  (  0.0%)
DIIS solution               ....       0.001 sec  (  0.0%)
SOSCF solution              ....       0.113 sec  (  0.9%)
Grid generation             ....       0.421 sec  (  3.5%)

Maximum memory used throughout the entire SCF-calculation: 42.8 MB


-------------------------------------------------------------------------------
                          DFT DISPERSION CORRECTION                            
                                                                               
                              DFTD3 V3.1  Rev 1                                
                          USING Becke-Johnson damping                          
-------------------------------------------------------------------------------
The PBE functional is recognized
Active option DFTDOPT                   ...         4   

molecular C6(AA) [au] = 711.969228 


            DFT-D V3
 parameters
 s6 scaling factor         :     1.0000 
 a1 scaling factor         :     0.4289 
 s8 scaling factor         :     0.7875 
 a2 scaling factor         :     4.4407 
 ad hoc parameters k1-k3   :    16.0000     1.3333    -4.0000 

 Edisp/kcal,au: -3.307597481905  -0.005270991540 
 E6   /kcal   :  -2.366169672 
 E8   /kcal   :  -0.941427810 
 % E8         :  28.462586965 

-------------------------   ----------------
Dispersion correction           -0.005270992
-------------------------   ----------------


-------------------------   --------------------
FINAL SINGLE POINT ENERGY      -192.454971448605
-------------------------   --------------------

                                *** OPTIMIZATION RUN DONE ***

                            ***************************************
                            *     ORCA property calculations      *
                            ***************************************

                                    ---------------------
                                    Active property flags
                                    ---------------------
   (+) Dipole Moment


------------------------------------------------------------------------------
                       ORCA ELECTRIC PROPERTIES CALCULATION
------------------------------------------------------------------------------

Dipole Moment Calculation                       ... on
Quadrupole Moment Calculation                   ... off
Polarizability Calculation                      ... off
GBWName                                         ... inp.gbw
Electron density                                ... inp.scfp
The origin for moment calculation is the CENTER OF MASS  = (-8.639586, -3.620652 -4.379639)

-------------
DIPOLE MOMENT
-------------
                                X             Y             Z
Electronic contribution:      1.48800      -0.17136       0.65746
Nuclear contribution   :     -3.92271       0.57819      -0.39481
                        -----------------------------------------
Total Dipole Moment    :     -2.43471       0.40683       0.26265
                        -----------------------------------------
Magnitude (a.u.)       :      2.48240
Magnitude (Debye)      :      6.30975



--------------------
Rotational spectrum 
--------------------
 
Rotational constants in cm-1:     0.903370     0.149702     0.146522 
Rotational constants in MHz : 27082.359471  4487.966930  4392.626979 

 Dipole components along the rotational axes: 
x,y,z [a.u.] :    -2.407840    -0.403554    -0.449164 
x,y,z [Debye]:    -6.120242    -1.025753    -1.141684 

 

Timings for individual modules:

Sum of individual times         ...      141.410 sec (=   2.357 min)
GTO integral calculation        ...        6.098 sec (=   0.102 min)   4.3 %
SCF iterations                  ...      110.162 sec (=   1.836 min)  77.9 %
SCF Gradient evaluation         ...       24.149 sec (=   0.402 min)  17.1 %
Geometry relaxation             ...        1.001 sec (=   0.017 min)   0.7 %
                             ****ORCA TERMINATED NORMALLY****
TOTAL RUN TIME: 0 days 0 hours 2 minutes 25 seconds 430 msec
