 Entering Gaussian System
 *********************************************
 Gaussian 98:
 frequency output generated by the xtb code
 *********************************************
                         Standard orientation:
 --------------------------------------------------------------------
  Center     Atomic     Atomic              Coordinates (Angstroms)
  Number     Number      Type              X           Y           Z
 --------------------------------------------------------------------
    1          6             0       -6.304389   -3.538117    2.035777
    2          6             0       -6.034708   -4.029658    0.784559
    3          8             0       -9.368278   -5.323163    2.906546
    4          1             0       -7.628725   -3.569578    3.752326
    5          6             0       -6.872338   -5.001496    0.146514
    6          1             0       -5.162247   -3.685058    0.240174
    7          6             0       -8.000996   -5.403706    0.929670
    8          8             0       -6.641577   -5.464770   -1.001401
    9          6             0       -8.249532   -4.896357    2.181198
   10          1             0       -8.678904   -6.140459    0.503414
   11          6             0       -7.412313   -3.954241    2.765974
   12          1             0       -5.637872   -2.800623    2.478631
   13          1             0       -9.822063   -5.966266    2.349726
 --------------------------------------------------------------------
     1 basis functions        1 primitive gaussians
     1 alpha electrons        1 beta electrons
 
 Harmonic frequencies (cm**-1), IR intensities (km*mol⁻¹),
 Raman scattering activities (A**4/amu), Raman depolarization ratios,
 reduced masses (AMU), force constants (mDyne/A) and normal coordinates:
                      1                      2                      3
                        a                      a                      a 
 Frequencies --   192.8862               213.6827               325.1025
 Red. masses --    11.7972                11.4784                13.4835
 Frc consts  --     0.0000                 0.0000                 0.0000
 IR Inten    --    11.4956                 0.0439                16.9929
 Raman Activ --     0.0000                 0.0000                 0.0000
 Depolar     --     0.0000                 0.0000                 0.0000
 Atom AN      X      Y      Z        X      Y      Z        X      Y      Z
   1   6     0.01  -0.01   0.00    -0.01   0.01  -0.01    -0.08  -0.06   0.00
   2   6     0.22  -0.29   0.16    -0.20   0.27  -0.15    -0.11  -0.07   0.03
   3   8    -0.04   0.06  -0.03    -0.28   0.38  -0.21     0.12   0.36   0.49
   4   1    -0.14   0.18  -0.10     0.06  -0.08   0.05    -0.07  -0.07  -0.04
   5   6     0.07  -0.09   0.05     0.04  -0.05   0.03    -0.04  -0.06  -0.06
   6   1     0.09  -0.12   0.07    -0.14   0.19  -0.11    -0.04  -0.03  -0.00
   7   6     0.27  -0.36   0.20     0.26  -0.35   0.20    -0.15  -0.21  -0.17
   8   8    -0.30   0.40  -0.22    -0.05   0.06  -0.04     0.44   0.26  -0.11
   9   6     0.02  -0.03   0.02     0.13  -0.17   0.10    -0.08  -0.14  -0.15
  10   1     0.11  -0.15   0.08     0.08  -0.11   0.06    -0.04  -0.06  -0.05
  11   6    -0.21   0.28  -0.15     0.21  -0.28   0.15    -0.10  -0.15  -0.14
  12   1    -0.01   0.01  -0.01    -0.03   0.04  -0.02    -0.03  -0.02   0.01
  13   1     0.03  -0.04   0.02    -0.11   0.15  -0.08    -0.10   0.07   0.26
                      4                      5                      6
                        a                      a                      a 
 Frequencies --   384.7155               423.7961               471.5288
 Red. masses --     4.2027                 7.7240                11.8204
 Frc consts  --     0.0000                 0.0000                 0.0000
 IR Inten    --    88.8183                47.0518                 1.8662
 Raman Activ --     0.0000                 0.0000                 0.0000
 Depolar     --     0.0000                 0.0000                 0.0000
 Atom AN      X      Y      Z        X      Y      Z        X      Y      Z
   1   6    -0.17   0.23  -0.13    -0.24   0.33  -0.18    -0.06   0.02   0.11
   2   6     0.13  -0.17   0.10     0.17  -0.23   0.13    -0.42  -0.24   0.13
   3   8     0.10  -0.13   0.07    -0.13   0.17  -0.10     0.24   0.03  -0.27
   4   1    -0.01   0.02  -0.01     0.03  -0.04   0.02    -0.01   0.04   0.09
   5   6     0.08  -0.10   0.06     0.11  -0.15   0.08    -0.23  -0.24  -0.13
   6   1     0.02  -0.03   0.01     0.01  -0.01   0.01    -0.12  -0.08   0.02
   7   6    -0.06   0.09  -0.05    -0.10   0.14  -0.07    -0.10  -0.05   0.04
   8   8    -0.04   0.05  -0.03    -0.06   0.09  -0.05     0.25   0.08  -0.20
   9   6     0.12  -0.16   0.09     0.10  -0.14   0.08     0.23   0.20   0.05
  10   1    -0.08   0.11  -0.06    -0.13   0.17  -0.09    -0.12  -0.01   0.15
  11   6     0.03  -0.04   0.02     0.18  -0.24   0.13     0.03   0.20   0.32
  12   1    -0.13   0.17  -0.09    -0.18   0.24  -0.13     0.05   0.00  -0.07
  13   1    -0.44   0.59  -0.33     0.27  -0.37   0.20     0.12   0.02  -0.13
                      7                      8                      9
                        a                      a                      a 
 Frequencies --   494.1874               514.8414               589.6604
 Red. masses --    12.7013                12.7930                11.6166
 Frc consts  --     0.0000                 0.0000                 0.0000
 IR Inten    --     4.5570                 1.5898                 9.0499
 Raman Activ --     0.0000                 0.0000                 0.0000
 Depolar     --     0.0000                 0.0000                 0.0000
 Atom AN      X      Y      Z        X      Y      Z        X      Y      Z
   1   6    -0.18   0.03   0.30    -0.24  -0.20  -0.05     0.05  -0.07   0.04
   2   6    -0.04   0.10   0.23     0.04  -0.03  -0.12    -0.01   0.02  -0.01
   3   8     0.37   0.26  -0.03    -0.23  -0.03   0.25    -0.11   0.15  -0.08
   4   1    -0.16  -0.10   0.04     0.03   0.06   0.07    -0.09   0.12  -0.07
   5   6     0.15   0.05  -0.11     0.23  -0.02  -0.33    -0.20   0.27  -0.15
   6   1     0.02   0.10   0.15     0.05   0.07   0.07     0.08  -0.11   0.06
   7   6     0.16  -0.00  -0.21     0.28   0.28   0.13    -0.10   0.14  -0.08
   8   8    -0.37  -0.33  -0.10     0.14  -0.13  -0.42     0.08  -0.10   0.06
   9   6     0.13  -0.04  -0.26    -0.10   0.06   0.24     0.43  -0.58   0.32
  10   1     0.06   0.00  -0.09     0.06   0.08   0.05     0.01  -0.01   0.01
  11   6    -0.18  -0.07   0.12    -0.13   0.05   0.27    -0.15   0.20  -0.11
  12   1    -0.07   0.01   0.11    -0.05  -0.06  -0.04     0.03  -0.04   0.02
  13   1     0.01   0.05   0.08    -0.05  -0.01   0.06     0.03  -0.04   0.02
                     10                     11                     12
                        a                      a                      a 
 Frequencies --   654.0553               740.7081               744.5136
 Red. masses --     9.6121                12.8162                 3.2213
 Frc consts  --     0.0000                 0.0000                 0.0000
 IR Inten    --    16.4103                17.3352                37.3078
 Raman Activ --     0.0000                 0.0000                 0.0000
 Depolar     --     0.0000                 0.0000                 0.0000
 Atom AN      X      Y      Z        X      Y      Z        X      Y      Z
   1   6     0.18  -0.25   0.14     0.39   0.45   0.29    -0.10   0.13  -0.08
   2   6    -0.14   0.19  -0.10    -0.07   0.07   0.23    -0.03   0.04  -0.03
   3   8     0.00  -0.01   0.00    -0.36  -0.16   0.19    -0.03   0.04  -0.02
   4   1    -0.05   0.06  -0.04    -0.01  -0.02  -0.01     0.44  -0.59   0.33
   5   6     0.35  -0.47   0.26     0.02  -0.09  -0.19     0.12  -0.16   0.09
   6   1    -0.19   0.25  -0.14    -0.02  -0.00   0.03     0.14  -0.19   0.10
   7   6    -0.11   0.16  -0.09    -0.08  -0.12  -0.11    -0.04   0.05  -0.03
   8   8    -0.09   0.12  -0.07    -0.00  -0.18  -0.32    -0.04   0.06  -0.03
   9   6     0.10  -0.13   0.07    -0.02  -0.02  -0.01     0.06  -0.08   0.05
  10   1    -0.17   0.23  -0.13    -0.03  -0.03  -0.02     0.09  -0.12   0.07
  11   6    -0.16   0.22  -0.12     0.18   0.09  -0.09    -0.16   0.21  -0.12
  12   1    -0.04   0.06  -0.03     0.11   0.12   0.07     0.13  -0.18   0.10
  13   1     0.03  -0.04   0.02    -0.06  -0.03   0.03    -0.00   0.00  -0.00
                     13                     14                     15
                        a                      a                      a 
 Frequencies --   781.8154               827.4270               903.5573
 Red. masses --     5.3548                 3.2243                 2.9333
 Frc consts  --     0.0000                 0.0000                 0.0000
 IR Inten    --    20.3526                 0.1186                 0.0232
 Raman Activ --     0.0000                 0.0000                 0.0000
 Depolar     --     0.0000                 0.0000                 0.0000
 Atom AN      X      Y      Z        X      Y      Z        X      Y      Z
   1   6     0.03  -0.04   0.02     0.07  -0.10   0.05    -0.19   0.26  -0.14
   2   6     0.14  -0.19   0.11     0.17  -0.23   0.13     0.10  -0.13   0.07
   3   8     0.00  -0.01   0.00    -0.01   0.01  -0.01     0.00  -0.00   0.00
   4   1     0.19  -0.26   0.14     0.09  -0.12   0.06    -0.10   0.14  -0.08
   5   6    -0.19   0.26  -0.14    -0.04   0.06  -0.03     0.05  -0.06   0.03
   6   1    -0.22   0.30  -0.17    -0.30   0.41  -0.23    -0.23   0.31  -0.17
   7   6     0.19  -0.25   0.14    -0.15   0.20  -0.11    -0.04   0.05  -0.03
   8   8     0.06  -0.08   0.05     0.01  -0.01   0.01    -0.01   0.01  -0.00
   9   6    -0.01   0.01  -0.01     0.00  -0.00   0.00     0.04  -0.06   0.03
  10   1    -0.31   0.41  -0.23     0.33  -0.45   0.25     0.01  -0.01   0.00
  11   6    -0.14   0.18  -0.10    -0.04   0.05  -0.03     0.03  -0.03   0.02
  12   1    -0.04   0.05  -0.03    -0.16   0.21  -0.12     0.42  -0.57   0.32
  13   1     0.01  -0.01   0.01    -0.00   0.01  -0.00    -0.00   0.00  -0.00
                     16                     17                     18
                        a                      a                      a 
 Frequencies --   956.8819               979.3843              1102.0054
 Red. masses --    10.3040                10.2045                 4.6807
 Frc consts  --     0.0000                 0.0000                 0.0000
 IR Inten    --     4.4738                46.5009                 4.6572
 Raman Activ --     0.0000                 0.0000                 0.0000
 Depolar     --     0.0000                 0.0000                 0.0000
 Atom AN      X      Y      Z        X      Y      Z        X      Y      Z
   1   6     0.05   0.03  -0.02     0.04   0.08   0.10     0.19   0.17   0.05
   2   6    -0.52  -0.31   0.14    -0.00   0.06   0.11     0.16  -0.01  -0.25
   3   8    -0.07  -0.02   0.06     0.24   0.10  -0.14     0.03  -0.00  -0.05
   4   1     0.01  -0.03  -0.07    -0.03  -0.09  -0.13    -0.49  -0.31   0.09
   5   6     0.05   0.06   0.05    -0.10  -0.10  -0.05    -0.12  -0.07   0.02
   6   1    -0.17  -0.14  -0.04     0.00   0.02   0.03    -0.07  -0.29  -0.43
   7   6     0.45   0.32  -0.02     0.03   0.22   0.37     0.13   0.13   0.07
   8   8    -0.05   0.06   0.17     0.07  -0.05  -0.19     0.03   0.02  -0.00
   9   6    -0.01  -0.05  -0.08    -0.22  -0.04   0.23    -0.02  -0.03  -0.03
  10   1     0.23   0.08  -0.15    -0.11   0.06   0.27     0.00   0.04   0.07
  11   6     0.08  -0.07  -0.24    -0.06  -0.30  -0.47    -0.23  -0.04   0.23
  12   1     0.10  -0.00  -0.14    -0.14   0.03   0.23     0.06   0.05   0.01
  13   1    -0.06  -0.01   0.06     0.11   0.03  -0.09    -0.13  -0.03   0.13
                     19                     20                     21
                        a                      a                      a 
 Frequencies --  1143.8107              1169.5358              1191.4131
 Red. masses --     3.0622                 2.7510                 7.2551
 Frc consts  --     0.0000                 0.0000                 0.0000
 IR Inten    --   141.2893                35.7196               173.6976
 Raman Activ --     0.0000                 0.0000                 0.0000
 Depolar     --     0.0000                 0.0000                 0.0000
 Atom AN      X      Y      Z        X      Y      Z        X      Y      Z
   1   6    -0.01  -0.03  -0.04    -0.01  -0.06  -0.10    -0.13  -0.10   0.01
   2   6     0.01  -0.01  -0.03    -0.04  -0.03   0.01     0.02   0.03   0.02
   3   8    -0.12   0.06   0.27    -0.11  -0.06   0.03    -0.25  -0.09   0.17
   4   1    -0.28  -0.21  -0.00    -0.40  -0.30  -0.01     0.06   0.02  -0.04
   5   6    -0.03  -0.02   0.00     0.11   0.06  -0.04    -0.08  -0.07  -0.02
   6   1     0.01   0.01   0.00     0.10   0.28   0.37    -0.04  -0.11  -0.14
   7   6    -0.01  -0.05  -0.07    -0.06   0.03   0.12     0.18   0.05  -0.14
   8   8     0.00   0.00   0.00    -0.02   0.03   0.08    -0.03   0.04   0.11
   9   6     0.10   0.13   0.10     0.17   0.06  -0.13     0.45   0.20  -0.23
  10   1     0.15  -0.02  -0.24    -0.24   0.02   0.36    -0.21   0.04   0.35
  11   6    -0.05  -0.07  -0.05     0.08  -0.01  -0.12     0.05  -0.02  -0.11
  12   1    -0.01  -0.01  -0.01     0.22  -0.03  -0.35    -0.32  -0.01   0.40
  13   1     0.57   0.12  -0.55    -0.08  -0.02   0.06    -0.01  -0.01  -0.01
                     22                     23                     24
                        a                      a                      a 
 Frequencies --  1245.0792              1294.4547              1395.7266
 Red. masses --     7.4210                 6.6916                 8.9136
 Frc consts  --     0.0000                 0.0000                 0.0000
 IR Inten    --    14.0946                24.3356                59.5660
 Raman Activ --     0.0000                 0.0000                 0.0000
 Depolar     --     0.0000                 0.0000                 0.0000
 Atom AN      X      Y      Z        X      Y      Z        X      Y      Z
   1   6     0.10   0.00  -0.14     0.11   0.05  -0.05    -0.25  -0.18   0.01
   2   6     0.12   0.10   0.01     0.13   0.19   0.18     0.13   0.29   0.36
   3   8    -0.02  -0.03  -0.04    -0.00   0.05   0.09    -0.06  -0.05  -0.02
   4   1    -0.07  -0.05   0.01     0.26   0.19   0.00    -0.01  -0.04  -0.06
   5   6    -0.54  -0.38   0.04    -0.20  -0.15  -0.01    -0.09   0.04   0.18
   6   1     0.14   0.28   0.33     0.00  -0.03  -0.05    -0.09  -0.21  -0.26
   7   6     0.19   0.11  -0.06     0.27   0.04  -0.29    -0.12   0.00   0.16
   8   8     0.05   0.05   0.02    -0.02   0.02   0.07     0.05  -0.11  -0.27
   9   6     0.11   0.11   0.06    -0.09  -0.08  -0.02     0.28   0.22   0.02
  10   1     0.24   0.02  -0.28    -0.19   0.02   0.30     0.13   0.00  -0.17
  11   6    -0.03  -0.02   0.01    -0.33  -0.20   0.08     0.04  -0.08  -0.20
  12   1    -0.07   0.01   0.11     0.28   0.00  -0.37     0.14  -0.06  -0.31
  13   1    -0.17  -0.03   0.16     0.15   0.03  -0.14    -0.12  -0.03   0.11
                     25                     26                     27
                        a                      a                      a 
 Frequencies --  1478.0991              1533.2881              1569.0821
 Red. masses --    10.5690                11.2285                12.1220
 Frc consts  --     0.0000                 0.0000                 0.0000
 IR Inten    --    21.8754               108.1663               159.7076
 Raman Activ --     0.0000                 0.0000                 0.0000
 Depolar     --     0.0000                 0.0000                 0.0000
 Atom AN      X      Y      Z        X      Y      Z        X      Y      Z
   1   6    -0.18   0.12   0.45     0.29   0.14  -0.14    -0.19   0.03   0.30
   2   6     0.12  -0.11  -0.35    -0.13  -0.14  -0.08     0.08   0.01  -0.09
   3   8    -0.06  -0.00   0.08    -0.03  -0.03  -0.01     0.02  -0.02  -0.06
   4   1     0.20   0.13  -0.03     0.15   0.10  -0.01    -0.00  -0.03  -0.05
   5   6    -0.14  -0.10   0.00     0.21   0.14  -0.02     0.12  -0.23  -0.56
   6   1     0.07   0.07   0.02     0.01   0.05   0.09     0.01  -0.05  -0.10
   7   6    -0.07   0.16   0.38    -0.19  -0.06   0.16    -0.04  -0.09  -0.11
   8   8     0.05   0.03  -0.01    -0.01  -0.01  -0.00    -0.08   0.16   0.40
   9   6     0.14  -0.15  -0.45     0.35   0.28   0.05     0.04   0.21   0.33
  10   1     0.10   0.04  -0.06     0.06  -0.01  -0.10     0.03  -0.04  -0.10
  11   6    -0.02  -0.03  -0.03    -0.53  -0.38   0.03     0.04  -0.07  -0.18
  12   1     0.14   0.03  -0.14     0.01   0.04   0.05     0.09   0.00  -0.12
  13   1     0.09   0.02  -0.08    -0.07  -0.01   0.07    -0.08  -0.02   0.08
                     28                     29                     30
                        a                      a                      a 
 Frequencies --  1634.5786              2963.6198              2979.1796
 Red. masses --    11.7955                 1.7704                 1.8049
 Frc consts  --     0.0000                 0.0000                 0.0000
 IR Inten    --   656.3590               158.3163               140.0243
 Raman Activ --     0.0000                 0.0000                 0.0000
 Depolar     --     0.0000                 0.0000                 0.0000
 Atom AN      X      Y      Z        X      Y      Z        X      Y      Z
   1   6    -0.15   0.08   0.34     0.16   0.18   0.10    -0.01  -0.01  -0.01
   2   6     0.00  -0.20  -0.37    -0.03  -0.01   0.02     0.02   0.01  -0.01
   3   8     0.01  -0.01  -0.03     0.00   0.00   0.00    -0.00  -0.00   0.00
   4   1     0.01  -0.01  -0.03    -0.02   0.03   0.08     0.01  -0.01  -0.04
   5   6    -0.08   0.18   0.45    -0.00  -0.00   0.00     0.00   0.01   0.01
   6   1     0.05   0.07   0.07     0.14   0.05  -0.09    -0.06  -0.02   0.04
   7   6     0.14  -0.10  -0.37     0.01   0.01   0.01     0.16   0.18   0.11
   8   8     0.04  -0.08  -0.21     0.00   0.00   0.00    -0.00  -0.00  -0.00
   9   6     0.03   0.21   0.34     0.00  -0.00  -0.00     0.02   0.01  -0.01
  10   1    -0.08  -0.01   0.08    -0.04  -0.04  -0.02    -0.59  -0.65  -0.39
  11   6     0.01  -0.07  -0.14     0.01  -0.00  -0.01    -0.01   0.00   0.01
  12   1     0.06   0.01  -0.06    -0.58  -0.64  -0.38     0.02   0.03   0.02
  13   1    -0.05  -0.01   0.05    -0.00  -0.00  -0.00    -0.01  -0.00   0.00
                     31                     32                     33
                        a                      a                      a 
 Frequencies --  3021.6606              3058.6485              3527.8108
 Red. masses --     1.8276                 1.8368                 1.8680
 Frc consts  --     0.0000                 0.0000                 0.0000
 IR Inten    --   161.6224               110.7591                 6.2981
 Raman Activ --     0.0000                 0.0000                 0.0000
 Depolar     --     0.0000                 0.0000                 0.0000
 Atom AN      X      Y      Z        X      Y      Z        X      Y      Z
   1   6    -0.04  -0.04  -0.02     0.02   0.03   0.02     0.00  -0.00  -0.00
   2   6    -0.21  -0.08   0.13     0.02   0.01  -0.02     0.00   0.00   0.00
   3   8    -0.00  -0.00   0.00     0.00  -0.00  -0.00    -0.11  -0.16  -0.14
   4   1     0.02  -0.05  -0.12     0.19  -0.34  -0.87    -0.00   0.00   0.01
   5   6    -0.01   0.00   0.02     0.00  -0.00  -0.00    -0.00  -0.00   0.00
   6   1     0.75   0.30  -0.47    -0.09  -0.03   0.05    -0.00  -0.00   0.00
   7   6     0.01   0.01   0.00    -0.01  -0.01  -0.01     0.00   0.00   0.00
   8   8     0.00  -0.00  -0.00    -0.00   0.00   0.00     0.00   0.00  -0.00
   9   6     0.00   0.00  -0.00    -0.01  -0.00   0.01    -0.01  -0.01  -0.00
  10   1    -0.04  -0.04  -0.02     0.03   0.03   0.02    -0.01  -0.00   0.00
  11   6    -0.00   0.01   0.03    -0.05   0.10   0.25    -0.00  -0.00  -0.00
  12   1     0.10   0.11   0.06    -0.07  -0.07  -0.04    -0.00  -0.00   0.00
  13   1     0.00   0.00   0.00     0.00   0.00   0.00     0.46   0.65   0.55
