      -----------------------------------------------------------      
     |                   =====================                   |     
     |                           x T B                           |     
     |                   =====================                   |     
     |                         S. Grimme                         |     
     |          Mulliken Center for Theoretical Chemistry        |     
     |                    University of Bonn                     |     
      -----------------------------------------------------------      

   * xtb version 6.7.1 (edcfbbe) compiled by 'albert@albert-system' on 2024-07-22

   xtb is free software: you can redistribute it and/or modify it under
   the terms of the GNU Lesser General Public License as published by
   the Free Software Foundation, either version 3 of the License, or
   (at your option) any later version.
   
   xtb is distributed in the hope that it will be useful,
   but WITHOUT ANY WARRANTY; without even the implied warranty of
   MERCHANTABILITY or FITNESS FOR A PARTICULAR PURPOSE.  See the
   GNU Lesser General Public License for more details.
   
   Cite this work as:
   * C. Bannwarth, E. Caldeweyher, S. Ehlert, A. Hansen, P. Pracht,
     J. Seibert, S. Spicher, S. Grimme, WIREs Comput. Mol. Sci., 2020, 11,
     e01493. DOI: 10.1002/wcms.1493
   
   for GFN2-xTB:
   * C. Bannwarth, S. Ehlert and S. Grimme., J. Chem. Theory Comput., 2019,
     15, 1652-1671. DOI: 10.1021/acs.jctc.8b01176
   for GFN1-xTB:
   * S. Grimme, C. Bannwarth, P. Shushkov, J. Chem. Theory Comput., 2017,
     13, 1989-2009. DOI: 10.1021/acs.jctc.7b00118
   for GFN0-xTB:
   * P. Pracht, E. Caldeweyher, S. Ehlert, S. Grimme, ChemRxiv, 2019, preprint.
     DOI: 10.26434/chemrxiv.8326202.v1
   for GFN-FF:
   * S. Spicher and S. Grimme, Angew. Chem. Int. Ed., 2020, 59, 15665-15673.
     DOI: 10.1002/anie.202004239
   
   for ALPB and GBSA implicit solvation:
   * S. Ehlert, M. Stahn, S. Spicher, S. Grimme, J. Chem. Theory Comput.,
     2021, 17, 4250-4261. DOI: 10.1021/acs.jctc.1c00471
   
   for ddCOSMO and CPCM-X implicit solvation:
   * M. Stahn, S. Ehlert, S. Grimme, J. Phys. Chem. A,
     2023, XX, XXXX-XXXX. DOI: 10.1021/acs.jpca.3c04382
   
   for DFT-D4:
   * E. Caldeweyher, C. Bannwarth and S. Grimme, J. Chem. Phys., 2017,
     147, 034112. DOI: 10.1063/1.4993215
   * E. Caldeweyher, S. Ehlert, A. Hansen, H. Neugebauer, S. Spicher,
     C. Bannwarth and S. Grimme, J. Chem. Phys., 2019, 150, 154122.
     DOI: 10.1063/1.5090222
   * E. Caldeweyher, J.-M. Mewes, S. Ehlert and S. Grimme, Phys. Chem. Chem. Phys.
     2020, 22, 8499-8512. DOI: 10.1039/D0CP00502A
   
   for sTDA-xTB:
   * S. Grimme and C. Bannwarth, J. Chem. Phys., 2016, 145, 054103.
     DOI: 10.1063/1.4959605
   
   in the mass-spec context:
   * V. Asgeirsson, C. Bauer and S. Grimme, Chem. Sci., 2017, 8, 4879.
     DOI: 10.1039/c7sc00601b
   * J. Koopman and S. Grimme, ACS Omega 2019, 4, 12, 15120-15133.
     DOI: 10.1021/acsomega.9b02011
   
   for metadynamics refer to:
   * S. Grimme, J. Chem. Theory Comput., 2019, 155, 2847-2862
     DOI: 10.1021/acs.jctc.9b00143
   
   for SPH calculations refer to:
   * S. Spicher and S. Grimme, J. Chem. Theory Comput., 2021, 17, 1701-1714
     DOI: 10.1021/acs.jctc.0c01306
   
   for ONIOM refer to:
   * C. Plett, A. Katbashev, S. Ehlert, S. Grimme, M. Bursch,
     Phys. Chem. Chem. Phys., 2023, 25, 17860-17868. DOI: 10.1039/D3CP02178E
   
   for DIPRO refer to:
   * J. Kohn, N. Gildemeister, S. Grimme, D. Fazzi, A. Hansen,
     J. Chem. Phys., 2023, just accepted.
   
   for PTB refer to:
   * S. Grimme, M. Mueller, A. Hansen, J. Chem. Phys., 2023, 158, 124111.
     DOI: 10.1063/5.0137838
   
   with help from (in alphabetical order)
   P. Atkinson, C. Bannwarth, F. Bohle, G. Brandenburg, E. Caldeweyher
   M. Checinski, S. Dohm, S. Ehlert, S. Ehrlich, I. Gerasimov, C. Hölzer
   A. Katbashev, J. Kohn, J. Koopman, C. Lavigne, S. Lehtola, F. März, M. Müller,
   F. Musil, H. Neugebauer, J. Pisarek, C. Plett, P. Pracht, F. Pultar,
   J. Seibert, P. Shushkov, S. Spicher, M. Stahn, M. Steiner, T. Strunk,
   J. Stückrath, T. Rose, and J. Unsleber
   
 * started run on 2025/10/18 at 02:58:06.265     
   ID    Z sym.   atoms
    1    6 C      1, 2, 5, 7, 9, 11
    2    8 O      3, 8
    3    1 H      4, 6, 10, 12, 13

           -------------------------------------------------
          |                Calculation Setup                |
           -------------------------------------------------

          program call               : xtb xyz.xyz --charge -1 --ohess
          hostname                   : m003
          coordinate file            : xyz.xyz
          omp threads                :                     2


           -------------------------------------------------
          |                 G F N 2 - x T B                 |
           -------------------------------------------------

        Reference                      10.1021/acs.jctc.8b01176
      * Hamiltonian:
        H0-scaling (s, p, d)           1.850000    2.230000    2.230000
        zeta-weighting                 0.500000
      * Dispersion:
        s8                             2.700000
        a1                             0.520000
        a2                             5.000000
        s9                             5.000000
      * Repulsion:
        kExp                           1.500000    1.000000
        rExp                           1.000000
      * Coulomb:
        alpha                          2.000000
        third order                    shell-resolved
        anisotropic                    true
        a3                             3.000000
        a5                             4.000000
        cn-shift                       1.200000
        cn-exp                         4.000000
        max-rad                        5.000000


          ...................................................
          :                      SETUP                      :
          :.................................................:
          :  # basis functions                  37          :
          :  # atomic orbitals                  37          :
          :  # shells                           21          :
          :  # electrons                        42          :
          :  max. iterations                   250          :
          :  Hamiltonian                  GFN2-xTB          :
          :  restarted?                      false          :
          :  GBSA solvation                  false          :
          :  PC potential                    false          :
          :  electronic temp.          300.0000000     K    :
          :  accuracy                    1.0000000          :
          :  -> integral cutoff          0.2500000E+02      :
          :  -> integral neglect         0.1000000E-07      :
          :  -> SCF convergence          0.1000000E-05 Eh   :
          :  -> wf. convergence          0.1000000E-03 e    :
          :  Broyden damping             0.4000000          :
          :  net charge                         -1          :
          :  unpaired electrons                  0          :
          ...................................................

 iter      E             dE          RMSdq      gap      omega  full diag
   1    -23.9550665 -0.239551E+02  0.467E+00    4.08       0.0  T
   2    -24.0155293 -0.604629E-01  0.247E+00    3.08       1.0  T
   3    -24.0171779 -0.164855E-02  0.147E+00    3.28       1.0  T
   4    -24.0262076 -0.902970E-02  0.570E-01    3.14       1.0  T
   5    -24.0276839 -0.147635E-02  0.122E-01    3.16       1.0  T
   6    -24.0277479 -0.639750E-04  0.666E-02    3.17       1.0  T
   7    -24.0277607 -0.128266E-04  0.253E-02    3.18       1.1  T
   8    -24.0277619 -0.120367E-05  0.101E-02    3.17       2.8  T
   9    -24.0277627 -0.731900E-06  0.458E-03    3.17       6.1  T
  10    -24.0277627 -0.181541E-07  0.171E-03    3.18      16.2  T
  11    -24.0277627 -0.240189E-07  0.621E-04    3.17      44.7  T
  12    -24.0277627 -0.147616E-08  0.225E-04    3.17     123.0  T

   *** convergence criteria satisfied after 12 iterations ***

         #    Occupation            Energy/Eh            Energy/eV
      -------------------------------------------------------------
         1        2.0000           -0.5545794             -15.0909
       ...           ...                  ...                  ...
        15        2.0000           -0.2856451              -7.7728
        16        2.0000           -0.2563206              -6.9748
        17        2.0000           -0.2456028              -6.6832
        18        2.0000           -0.2451046              -6.6696
        19        2.0000           -0.2013027              -5.4777
        20        2.0000           -0.1535363              -4.1779
        21        2.0000           -0.1512026              -4.1144 (HOMO)
        22                         -0.0345256              -0.9395 (LUMO)
        23                         -0.0017208              -0.0468
        24                          0.1097913               2.9876
        25                          0.2317035               6.3050
        26                          0.2827961               7.6953
       ...                                ...                  ...
        37                          0.8602095              23.4075
      -------------------------------------------------------------
                  HL-Gap            0.1166770 Eh            3.1749 eV
             Fermi-level           -0.0928641 Eh           -2.5270 eV

 SCC (total)                   0 d,  0 h,  0 min,  0.035 sec
 SCC setup                      ...        0 min,  0.000 sec (  0.596%)
 Dispersion                     ...        0 min,  0.000 sec (  0.362%)
 classical contributions        ...        0 min,  0.000 sec (  0.088%)
 integral evaluation            ...        0 min,  0.001 sec (  3.765%)
 iterations                     ...        0 min,  0.031 sec ( 88.125%)
 molecular gradient             ...        0 min,  0.002 sec (  6.602%)
 printout                       ...        0 min,  0.000 sec (  0.359%)

         :::::::::::::::::::::::::::::::::::::::::::::::::::::
         ::                     SUMMARY                     ::
         :::::::::::::::::::::::::::::::::::::::::::::::::::::
         :: total energy             -23.720779208080 Eh    ::
         :: gradient norm              0.076006697294 Eh/a0 ::
         :: HOMO-LUMO gap              3.174942777273 eV    ::
         ::.................................................::
         :: SCC energy               -24.027748265466 Eh    ::
         :: -> isotropic ES            0.178376284359 Eh    ::
         :: -> anisotropic ES          0.013161968953 Eh    ::
         :: -> anisotropic XC          0.003065031266 Eh    ::
         :: -> dispersion             -0.010826892266 Eh    ::
         :: repulsion energy           0.306969057385 Eh    ::
         :: add. restraining           0.000000000000 Eh    ::
         :: total charge              -1.000000000000 e     ::
         :::::::::::::::::::::::::::::::::::::::::::::::::::::

      ----------------------------------------------------------- 
     |                   =====================                   |
     |                        A N C O P T                        |
     |                   =====================                   |
     |               Approximate Normal Coordinate               |
     |                Rational Function Optimizer                |
      ----------------------------------------------------------- 
      ----------------------------------------------------------- 
     |                   =====================                   |
     |                        A N C O P T                        |
     |                   =====================                   |
     |               Approximate Normal Coordinate               |
     |                Rational Function Optimizer                |
      ----------------------------------------------------------- 

          ...................................................
          :                      SETUP                      :
          :.................................................:
          :   optimization level            normal          :
          :   max. optcycles                   200          :
          :   ANC micro-cycles                  20          :
          :   degrees of freedom                33          :
          :.................................................:
          :   RF solver                   davidson          :
          :   write xtbopt.log                true          :
          :   linear?                        false          :
          :   energy convergence         0.5000000E-05 Eh   :
          :   grad. convergence          0.1000000E-02 Eh/α :
          :   maxmium RF displ.          1.0000000          :
          :   Hlow (freq-cutoff)         0.1000000E-01      :
          :   Hmax (freq-cutoff)         5.0000000          :
          :   S6 in model hess.         20.0000000          :
          ...................................................

generating ANC from exact Hessian ...
Using Lindh-Hessian (1995)
 Shifting diagonal of input Hessian by   1.473745823714153E-003
 Lowest  eigenvalues of input Hessian
    0.000000    0.000000    0.000000    0.000000    0.000000    0.000000
    0.010000    0.015950    0.022425    0.026515    0.039447    0.044859
    0.074221    0.082449    0.089421    0.095519    0.099139    0.104837
 Highest eigenvalues
    1.517341    1.681644    1.808973    1.872139    2.021483    2.197432
 

........................................................................
.............................. CYCLE    1 ..............................
........................................................................

 iter      E             dE          RMSdq      gap      omega  full diag
   1    -24.0277627 -0.240278E+02  0.975E-05    3.18       0.0  T
   2    -24.0277627 -0.608793E-10  0.418E-05    3.17     664.1  T
   3    -24.0277627 -0.635580E-11  0.263E-05    3.17    1056.0  T
     SCC iter.                  ...        0 min,  0.001 sec
     gradient                   ...        0 min,  0.002 sec
 * total energy  :   -23.7207792 Eh     change       -0.2171312E-09 Eh
   gradient norm :     0.0760088 Eh/α   predicted     0.0000000E+00 (-100.00%)
   displ. norm   :     0.1087113 α      lambda       -0.4177609E-02
   maximum displ.:     0.0652878 α      in ANC's #12, #9, #10, ...

........................................................................
.............................. CYCLE    2 ..............................
........................................................................

 iter      E             dE          RMSdq      gap      omega  full diag
   1    -24.0344115 -0.240344E+02  0.181E-01    3.28       0.0  T
   2    -24.0346054 -0.193911E-03  0.114E-01    3.32       1.0  T
   3    -24.0346624 -0.569330E-04  0.614E-02    3.32       1.0  T
   4    -24.0346646 -0.225550E-05  0.255E-02    3.32       1.1  T
   5    -24.0346678 -0.320181E-05  0.782E-03    3.32       3.5  T
   6    -24.0346684 -0.616119E-06  0.197E-03    3.32      14.1  T
   7    -24.0346685 -0.197462E-07  0.997E-04    3.32      27.8  T
   8    -24.0346685 -0.817288E-09  0.236E-04    3.32     117.6  T
     SCC iter.                  ...        0 min,  0.003 sec
     gradient                   ...        0 min,  0.002 sec
 * total energy  :   -23.7235482 Eh     change       -0.2769020E-02 Eh
   gradient norm :     0.0303523 Eh/α   predicted    -0.2113491E-02 ( -23.67%)
   displ. norm   :     0.0448005 α      lambda       -0.8483643E-03
   maximum displ.:     0.0281460 α      in ANC's #12, #33, #5, ...

........................................................................
.............................. CYCLE    3 ..............................
........................................................................

 iter      E             dE          RMSdq      gap      omega  full diag
   1    -24.0366863 -0.240367E+02  0.103E-01    3.36       0.0  T
   2    -24.0367716 -0.853362E-04  0.580E-02    3.39       1.0  T
   3    -24.0367930 -0.213372E-04  0.310E-02    3.39       1.0  T
   4    -24.0367938 -0.802846E-06  0.154E-02    3.39       1.8  T
   5    -24.0367945 -0.699317E-06  0.475E-03    3.39       5.8  T
   6    -24.0367947 -0.205221E-06  0.126E-03    3.39      22.0  T
   7    -24.0367947 -0.104937E-07  0.558E-04    3.39      49.7  T
   8    -24.0367947 -0.203304E-09  0.173E-04    3.39     160.2  T
     SCC iter.                  ...        0 min,  0.003 sec
     gradient                   ...        0 min,  0.002 sec
 * total energy  :   -23.7240148 Eh     change       -0.4665881E-03 Eh
   gradient norm :     0.0056480 Eh/α   predicted    -0.4250326E-03 (  -8.91%)
   displ. norm   :     0.0150025 α      lambda       -0.4815050E-04
   maximum displ.:     0.0074349 α      in ANC's #9, #10, #5, ...

........................................................................
.............................. CYCLE    4 ..............................
........................................................................

 iter      E             dE          RMSdq      gap      omega  full diag
   1    -24.0361880 -0.240362E+02  0.350E-02    3.38       0.0  T
   2    -24.0361910 -0.305608E-05  0.202E-02    3.39       1.4  T
   3    -24.0361911 -0.569393E-07  0.104E-02    3.39       2.7  T
   4    -24.0361914 -0.332258E-06  0.272E-03    3.39      10.2  T
   5    -24.0361915 -0.860285E-07  0.823E-04    3.39      33.7  T
   6    -24.0361915 -0.686835E-08  0.254E-04    3.39     109.3  T
     SCC iter.                  ...        0 min,  0.002 sec
     gradient                   ...        0 min,  0.002 sec
 * total energy  :   -23.7240451 Eh     change       -0.3024150E-04 Eh
   gradient norm :     0.0018709 Eh/α   predicted    -0.2408082E-04 ( -20.37%)
   displ. norm   :     0.0098668 α      lambda       -0.6643536E-05
   maximum displ.:     0.0057020 α      in ANC's #9, #10, #12, ...

........................................................................
.............................. CYCLE    5 ..............................
........................................................................

 iter      E             dE          RMSdq      gap      omega  full diag
   1    -24.0359362 -0.240359E+02  0.218E-02    3.39       0.0  T
   2    -24.0359366 -0.424929E-06  0.131E-02    3.39       2.1  T
   3    -24.0359365  0.133025E-06  0.512E-03    3.39       5.4  T
   4    -24.0359367 -0.206427E-06  0.108E-03    3.39      25.6  T
   5    -24.0359367 -0.976302E-08  0.373E-04    3.39      74.4  T
   6    -24.0359367 -0.126436E-08  0.128E-04    3.39     216.2  T
     SCC iter.                  ...        0 min,  0.002 sec
     gradient                   ...        0 min,  0.002 sec
 * total energy  :   -23.7240485 Eh     change       -0.3419906E-05 Eh
   gradient norm :     0.0007235 Eh/α   predicted    -0.3321643E-05 (  -2.87%)
   displ. norm   :     0.0030709 α      lambda       -0.8359248E-06
   maximum displ.:     0.0016076 α      in ANC's #10, #9, #17, ...

   *** GEOMETRY OPTIMIZATION CONVERGED AFTER 5 ITERATIONS ***

------------------------------------------------------------------------
 total energy gain   :        -0.0032693 Eh       -2.0515 kcal/mol
 total RMSD          :         0.0387213 a0        0.0205 Å
 total power (kW/mol):        -1.7166933 (step) -262.5157 (real)
------------------------------------------------------------------------

 ANCopt (total)                0 d,  0 h,  0 min,  0.033 sec
 optimizer setup                ...        0 min,  0.000 sec (  1.156%)
 model hessian                  ...        0 min,  0.002 sec (  5.835%)
 ANC generation                 ...        0 min,  0.000 sec (  0.904%)
 coordinate transformation      ...        0 min,  0.000 sec (  0.149%)
 single point calculation       ...        0 min,  0.029 sec ( 87.819%)
 optimization log               ...        0 min,  0.000 sec (  1.188%)
 hessian update                 ...        0 min,  0.000 sec (  0.131%)
 rational function              ...        0 min,  0.001 sec (  1.836%)

================
 final structure:
================
13
 xtb: 6.7.1 (edcfbbe)
C           -6.30437652558826       -3.53815324665499        2.03574822744309
C           -6.03468951723770       -4.02969060030677        0.78453101493971
O           -9.36825979370767       -5.32321614000635        2.90650360529784
H           -7.62871916813370       -3.56962424964664        3.75229234349174
C           -6.87231190534287       -5.00153151451380        0.14648153243687
H           -5.16222836961794       -3.68508549763458        0.24014923825778
C           -8.00096979864950       -5.40374913461205        0.92963222539315
O           -6.64154440696187       -5.46480286614213       -1.00143331194952
C           -8.24951271987875       -4.89640314645558        2.18116000921871
H           -8.67887259517092       -6.14050444007577        0.50337316484333
C           -7.41230119756650       -3.95428403653629        2.76594132340573
H           -5.63786587284373       -2.80065629944865        2.47860588167615
H           -9.82203912930059       -5.96632082796639        2.34968074554543
 
 Bond Distances (Angstroems)
 ---------------------------
C1-C2=1.3711         C1-C11=1.3906        C1-H12=1.0882        C2-C1=1.3711         C2-C5=1.4329         C2-H6=1.0846         
O3-C9=1.4000         O3-H13=0.9641        H4-C11=1.0806        C5-C2=1.4329         C5-C7=1.4314         C5-O8=1.2592         
H6-C2=1.0846         C7-C5=1.4314         C7-C9=1.3731         C7-H10=1.0881        O8-C5=1.2592         C9-O3=1.4000         
C9-C7=1.3731         C9-C11=1.3894        H10-C7=1.0881        C11-C1=1.3906        C11-H4=1.0806        C11-C9=1.3894        
H12-C1=1.0882        H13-O3=0.9641        
 C  H  Rav=1.0854 sigma=0.0031  Rmin=1.0806  Rmax=1.0882     4
 C  C  Rav=1.3981 sigma=0.0252  Rmin=1.3711  Rmax=1.4329     6
 O  H  Rav=0.9641 sigma=0.0000  Rmin=0.9641  Rmax=0.9641     1
 O  C  Rav=1.3296 sigma=0.0704  Rmin=1.2592  Rmax=1.4000     2
 
 selected bond angles (degree)
 --------------------
C11-C1-C2=121.91               H12-C1-C2=119.59               H12-C1-C11=118.49              C5-C2-C1=122.31                
H6-C2-C1=120.16                H6-C2-C5=117.53                H13-O3-C9=106.27               C7-C5-C2=114.07                
O8-C5-C2=123.25                O8-C5-C7=122.68                C9-C7-C5=122.52                H10-C7-C5=117.85               
H10-C7-C9=119.63               C7-C9-O3=120.28                C11-C9-O3=118.05               C11-C9-C7=121.67               
 
 selected dihedral angles (degree)
 ---------------------------------
C5-C2-C1-C11=  0.00           C5-C2-C1-H12=180.00           H6-C2-C1-C11=180.00           H6-C2-C1-H12=  0.00           
C7-C5-C2-C1=  0.00            C7-C5-C2-H6=180.00            O8-C5-C2-C1=180.00            O8-C5-C2-H6=  0.00            
C9-C7-C5-C2=  0.00            C9-C7-C5-O8=180.00            H10-C7-C5-C2=180.00           H10-C7-C5-O8=  0.00           
C7-C9-O3-H13=  0.00           C11-C9-O3-H13=180.00          O3-C9-C7-C5=180.00            O3-C9-C7-H10=  0.00           
C11-C9-C7-C5=  0.00           C11-C9-C7-H10=180.00          
           -------------------------------------------------
          |                Final Singlepoint                |
           -------------------------------------------------

          ...................................................
          :                      SETUP                      :
          :.................................................:
          :  # basis functions                  37          :
          :  # atomic orbitals                  37          :
          :  # shells                           21          :
          :  # electrons                        42          :
          :  max. iterations                   250          :
          :  Hamiltonian                  GFN2-xTB          :
          :  restarted?                      false          :
          :  GBSA solvation                  false          :
          :  PC potential                    false          :
          :  electronic temp.          300.0000000     K    :
          :  accuracy                    1.0000000          :
          :  -> integral cutoff          0.2500000E+02      :
          :  -> integral neglect         0.1000000E-07      :
          :  -> SCF convergence          0.1000000E-05 Eh   :
          :  -> wf. convergence          0.1000000E-03 e    :
          :  Broyden damping             0.4000000          :
          :  net charge                         -1          :
          :  unpaired electrons                  0          :
          ...................................................

 iter      E             dE          RMSdq      gap      omega  full diag
   1    -24.0359367 -0.240359E+02  0.613E-05    3.39       0.0  T
   2    -24.0359367 -0.558487E-11  0.367E-05    3.39     755.2  T
   3    -24.0359367 -0.153122E-11  0.226E-05    3.39    1228.2  T

   *** convergence criteria satisfied after 3 iterations ***

         #    Occupation            Energy/Eh            Energy/eV
      -------------------------------------------------------------
         1        2.0000           -0.5468980             -14.8819
       ...           ...                  ...                  ...
        15        2.0000           -0.2870613              -7.8113
        16        2.0000           -0.2583243              -7.0294
        17        2.0000           -0.2489504              -6.7743
        18        2.0000           -0.2481027              -6.7512
        19        2.0000           -0.2060269              -5.6063
        20        2.0000           -0.1594612              -4.3392
        21        2.0000           -0.1523998              -4.1470 (HOMO)
        22                         -0.0278914              -0.7590 (LUMO)
        23                         -0.0045800              -0.1246
        24                          0.1085706               2.9544
        25                          0.2167050               5.8968
        26                          0.2783080               7.5731
       ...                                ...                  ...
        37                          0.8754416              23.8220
      -------------------------------------------------------------
                  HL-Gap            0.1245084 Eh            3.3880 eV
             Fermi-level           -0.0901456 Eh           -2.4530 eV

 SCC (total)                   0 d,  0 h,  0 min,  0.004 sec
 SCC setup                      ...        0 min,  0.000 sec (  2.995%)
 Dispersion                     ...        0 min,  0.000 sec (  1.100%)
 classical contributions        ...        0 min,  0.000 sec (  0.268%)
 integral evaluation            ...        0 min,  0.001 sec ( 20.530%)
 iterations                     ...        0 min,  0.001 sec ( 28.952%)
 molecular gradient             ...        0 min,  0.002 sec ( 43.787%)
 printout                       ...        0 min,  0.000 sec (  1.648%)

         :::::::::::::::::::::::::::::::::::::::::::::::::::::
         ::                     SUMMARY                     ::
         :::::::::::::::::::::::::::::::::::::::::::::::::::::
         :: total energy             -23.724048477787 Eh    ::
         :: gradient norm              0.000722729298 Eh/a0 ::
         :: HOMO-LUMO gap              3.388045747298 eV    ::
         ::.................................................::
         :: SCC energy               -24.035922323814 Eh    ::
         :: -> isotropic ES            0.175098539388 Eh    ::
         :: -> anisotropic ES          0.012936205655 Eh    ::
         :: -> anisotropic XC          0.003160362869 Eh    ::
         :: -> dispersion             -0.010820763173 Eh    ::
         :: repulsion energy           0.311873846027 Eh    ::
         :: add. restraining           0.000000000000 Eh    ::
         :: total charge              -1.000000000000 e     ::
         :::::::::::::::::::::::::::::::::::::::::::::::::::::

           ------------------------------------------------- 
          |                Numerical Hessian                |
           ------------------------------------------------- 
step length          :   0.00500
SCC accuracy         :   0.30000
Hessian scale factor :   1.00000
frozen atoms in %    :   0.00000    0
RMS gradient         :   0.00072
estimated CPU  time      0.02 min
estimated wall time      0.01 min

writing file <hessian>.

 projected vibrational frequencies (cm⁻¹)
eigval :       -0.00    -0.00    -0.00     0.00     0.00     0.00
eigval :      192.89   213.68   325.10   384.72   423.80   471.53
eigval :      494.19   514.84   589.66   654.06   740.71   744.51
eigval :      781.82   827.43   903.56   956.88   979.38  1102.01
eigval :     1143.81  1169.54  1191.41  1245.08  1294.45  1395.73
eigval :     1478.10  1533.29  1569.08  1634.58  2963.62  2979.18
eigval :     3021.66  3058.65  3527.81
           -------------------------------------------------
          |                Property Printout                |
           -------------------------------------------------

    * Orbital Energies and Occupations

         #    Occupation            Energy/Eh            Energy/eV
      -------------------------------------------------------------
         1        2.0000           -0.5468981             -14.8819
       ...           ...                  ...                  ...
         9        2.0000           -0.3509294              -9.5493
        10        2.0000           -0.3483322              -9.4786
        11        2.0000           -0.3321344              -9.0378
        12        2.0000           -0.3084002              -8.3920
        13        2.0000           -0.3030000              -8.2450
        14        2.0000           -0.2887257              -7.8566
        15        2.0000           -0.2870613              -7.8113
        16        2.0000           -0.2583243              -7.0294
        17        2.0000           -0.2489503              -6.7743
        18        2.0000           -0.2481027              -6.7512
        19        2.0000           -0.2060269              -5.6063
        20        2.0000           -0.1594612              -4.3392
        21        2.0000           -0.1523997              -4.1470 (HOMO)
        22                         -0.0278913              -0.7590 (LUMO)
        23                         -0.0045800              -0.1246
        24                          0.1085706               2.9544
        25                          0.2167050               5.8968
        26                          0.2783080               7.5731
        27                          0.3092700               8.4157
        28                          0.3224589               8.7746
        29                          0.3628783               9.8744
        30                          0.3718593              10.1188
        31                          0.4451835              12.1141
        32                          0.5618696              15.2892
       ...                                ...                  ...
        37                          0.8754417              23.8220
      -------------------------------------------------------------
                  HL-Gap            0.1245084 Eh            3.3880 eV
             Fermi-level           -0.0901455 Eh           -2.4530 eV

     #   Z          covCN         q      C6AA      α(0)
     1   6 C        2.915    -0.050    29.248     8.868
     2   6 C        2.916    -0.108    30.733     9.091
     3   8 O        1.657    -0.458    22.005     6.332
     4   1 H        0.926    -0.020     3.431     2.896
     5   6 C        2.829     0.183    24.089     8.043
     6   1 H        0.925    -0.019     3.402     2.885
     7   6 C        2.916    -0.136    31.482     9.201
     8   8 O        0.857    -0.609    26.332     6.880
     9   6 C        2.841     0.113    25.511     8.277
    10   1 H        0.925    -0.024     3.517     2.933
    11   6 C        2.915    -0.106    30.683     9.083
    12   1 H        0.925    -0.031     3.664     2.993
    13   1 H        0.805     0.266     0.831     1.432

 Mol. C6AA /au·bohr⁶  :       2515.119551
 Mol. C8AA /au·bohr⁸  :      60103.413180
 Mol. α(0) /au        :         78.914869


Wiberg/Mayer (AO) data.
largest (>0.10) Wiberg bond orders for each atom

 ---------------------------------------------------------------------------
     #   Z sym  total        # sym  WBO       # sym  WBO       # sym  WBO
 ---------------------------------------------------------------------------
     1   6 C    3.987 --     2 C    1.523    11 C    1.381    12 H    0.969
     2   6 C    3.974 --     1 C    1.523     5 C    1.199     6 H    0.972
                             8 O    0.101
     3   8 O    2.026 --     9 C    0.988    13 H    0.908
     4   1 H    1.000 --    11 C    0.972
     5   6 C    3.971 --     8 O    1.473     7 C    1.206     2 C    1.199
     6   1 H    1.000 --     2 C    0.972
     7   6 C    3.957 --     9 C    1.464     5 C    1.206    10 H    0.964
                             8 O    0.112
     8   8 O    1.794 --     5 C    1.473     7 C    0.112     2 C    0.101
     9   6 C    3.913 --     7 C    1.464    11 C    1.349     3 O    0.988
    10   1 H    0.999 --     7 C    0.964
    11   6 C    3.957 --     1 C    1.381     9 C    1.349     4 H    0.972
    12   1 H    0.999 --     1 C    0.969
    13   1 H    0.929 --     3 O    0.908
 ---------------------------------------------------------------------------

Topologies differ in total number of bonds
Writing topology from bond orders to xtbtopo.mol

molecular dipole:
                 x           y           z       tot (Debye)
 q only:       13.255       9.176      -1.134
   full:       13.124       9.160      -0.988      40.758
molecular quadrupole (traceless):
                xx          xy          yy          xz          yz          zz
 q only:     -128.189    -181.734      10.700      29.728       9.693     117.489
  q+dip:     -123.580    -176.454       9.550      27.311       8.389     114.030
   full:     -123.489    -177.408      10.025      27.736       7.454     113.464

           -------------------------------------------------
          |                Geometry Summary                 |
           -------------------------------------------------

      molecular mass/u    :      109.1029290
   center of mass at/Å    :       -7.4088095      -4.7396467       1.3390910
  moments of inertia/u·Å² :        0.1322733E+03   0.2673885E+03   0.3996617E+03
rotational constants/cm⁻¹ :        0.1274455E+00   0.6304547E-01   0.4217975E-01

 * 11 selected distances

     #   Z          #   Z                                           value/Å
     1   6 C        2   6 C                                       1.3710890
     2   6 C        5   6 C                                       1.4328969 (max)
     2   6 C        6   1 H                                       1.0845704
     5   6 C        7   6 C                                       1.4314234
     7   6 C        9   6 C                                       1.3731335
     7   6 C       10   1 H                                       1.0881441
     1   6 C       11   6 C                                       1.3906273
     4   1 H       11   6 C                                       1.0805963
     9   6 C       11   6 C                                       1.3894175
     1   6 C       12   1 H                                       1.0882377
     3   8 O       13   1 H                                       0.9641324 (min)

 * 3 distinct bonds (by element types)

   Z      Z             #   av. dist./Å        max./Å        min./Å
   1 H    6 C           4     1.0853871     1.0882377     1.0805963
   6 C    6 C           6     1.3980979     1.4328969     1.3710890
   1 H    8 O           1     0.9641324     0.9641324     0.9641324

           -------------------------------------------------
          |               Frequency Printout                |
           -------------------------------------------------
 projected vibrational frequencies (cm⁻¹)
eigval :       -0.00    -0.00    -0.00     0.00     0.00     0.00
eigval :      192.89   213.68   325.10   384.72   423.80   471.53
eigval :      494.19   514.84   589.66   654.06   740.71   744.51
eigval :      781.82   827.43   903.56   956.88   979.38  1102.01
eigval :     1143.81  1169.54  1191.41  1245.08  1294.45  1395.73
eigval :     1478.10  1533.29  1569.08  1634.58  2963.62  2979.18
eigval :     3021.66  3058.65  3527.81
 reduced masses (amu)
   1: 13.23   2: 12.60   3: 13.26   4: 12.34   5: 11.74   6: 13.26   7: 11.80   8: 11.48
   9: 13.48  10:  4.20  11:  7.72  12: 11.82  13: 12.70  14: 12.79  15: 11.62  16:  9.61
  17: 12.82  18:  3.22  19:  5.35  20:  3.22  21:  2.93  22: 10.30  23: 10.20  24:  4.68
  25:  3.06  26:  2.75  27:  7.26  28:  7.42  29:  6.69  30:  8.91  31: 10.57  32: 11.23
  33: 12.12  34: 11.80  35:  1.77  36:  1.80  37:  1.83  38:  1.84  39:  1.87
 IR intensities (km·mol⁻¹)
   1:  5.25   2:  6.60   3: 10.22   4:  4.45   5:  4.07   6:  2.09   7: 11.50   8:  0.04
   9: 16.99  10: 88.82  11: 47.05  12:  1.87  13:  4.56  14:  1.59  15:  9.05  16: 16.41
  17: 17.34  18: 37.31  19: 20.35  20:  0.12  21:  0.02  22:  4.47  23: 46.50  24:  4.66
  25:141.29  26: 35.72  27:173.70  28: 14.09  29: 24.34  30: 59.57  31: 21.88  32:108.17
  33:159.71  34:656.36  35:158.32  36:140.02  37:161.62  38:110.76  39:  6.30
 Raman intensities (Ä⁴*amu⁻¹)
   1:  0.00   2:  0.00   3:  0.00   4:  0.00   5:  0.00   6:  0.00   7:  0.00   8:  0.00
   9:  0.00  10:  0.00  11:  0.00  12:  0.00  13:  0.00  14:  0.00  15:  0.00  16:  0.00
  17:  0.00  18:  0.00  19:  0.00  20:  0.00  21:  0.00  22:  0.00  23:  0.00  24:  0.00
  25:  0.00  26:  0.00  27:  0.00  28:  0.00  29:  0.00  30:  0.00  31:  0.00  32:  0.00
  33:  0.00  34:  0.00  35:  0.00  36:  0.00  37:  0.00  38:  0.00  39:  0.00
 output can be read by thermo (or use thermo option).
 writing <g98.out> molden fake output.
 recommended (thermochemical) frequency scaling factor: 1.0
           -------------------------------------------------
          |             Thermodynamic Functions             |
           -------------------------------------------------

Molecule has the following symmetry elements: (sigma) 
It seems to be the Cs point group
cs  symmetry found (for desy threshold:  0.10E+00) used in thermo

          ...................................................
          :                      SETUP                      :
          :.................................................:
          :  # frequencies                          33      :
          :  # imaginary freq.                       0      :
          :  linear?                             false      :
          :  only rotor calc.                    false      :
          :  symmetry                               cs      :
          :  rotational number                       1      :
          :  scaling factor                  1.0000000      :
          :  rotor cutoff                   50.0000000 cm⁻¹ :
          :  imag. cutoff                  -20.0000000 cm⁻¹ :
          :.................................................:

    mode    ω/cm⁻¹     T·S(HO)/kcal·mol⁻¹    T·S(FR)/kcal·mol⁻¹   T·S(vib)
   ------------------------------------------------------------------------
       1    192.89    -0.65590 ( 99.55%)    -0.65650 (  0.45%)    -0.65591
       2    213.68    -0.59987 ( 99.70%)    -0.62618 (  0.30%)    -0.59995
   ------------------------------------------------------------------------

   temp. (K)  partition function   enthalpy   heat capacity  entropy
                                   cal/mol     cal/K/mol   cal/K/mol   J/K/mol
 298.15  VIB   7.64                 2331.016     19.735     11.860
         ROT  0.287E+06              888.752      2.981     27.957
         INT  0.219E+07             3219.768     22.716     39.816
         TR   0.110E+28             1481.254      4.968     39.960
         TOT                        4701.0223    27.6837    79.7759   333.7824

       T/K    H(0)-H(T)+PV         H(T)/Eh          T*S/Eh         G(T)/Eh
   ------------------------------------------------------------------------
    298.15    0.749156E-02    0.997727E-01    0.379041E-01    0.618686E-01
   ------------------------------------------------------------------------

         :::::::::::::::::::::::::::::::::::::::::::::::::::::
         ::                  THERMODYNAMIC                  ::
         :::::::::::::::::::::::::::::::::::::::::::::::::::::
         :: total free energy         -23.662179889837 Eh   ::
         ::.................................................::
         :: total energy              -23.724048477789 Eh   ::
         :: zero point energy           0.092281136916 Eh   ::
         :: G(RRHO) w/o ZPVE           -0.030412548964 Eh   ::
         :: G(RRHO) contrib.            0.061868587952 Eh   ::
         :::::::::::::::::::::::::::::::::::::::::::::::::::::

optimized geometry written to: xtbopt.xyz


           -------------------------------------------------
          | TOTAL ENERGY              -23.724048477789 Eh   |
          | TOTAL ENTHALPY            -23.624275785046 Eh   |
          | TOTAL FREE ENERGY         -23.662179889837 Eh   |
          | GRADIENT NORM               0.000722779400 Eh/α |
          | HOMO-LUMO GAP               3.388045563683 eV   |
           -------------------------------------------------

------------------------------------------------------------------------
 * finished run on 2025/10/18 at 02:58:06.817     
------------------------------------------------------------------------
 total:
 * wall-time:     0 d,  0 h,  0 min,  0.552 sec
 *  cpu-time:     0 d,  0 h,  0 min,  0.877 sec
 * ratio c/w:     1.590 speedup
 SCF:
 * wall-time:     0 d,  0 h,  0 min,  0.035 sec
 *  cpu-time:     0 d,  0 h,  0 min,  0.048 sec
 * ratio c/w:     1.376 speedup
 ANC optimizer:
 * wall-time:     0 d,  0 h,  0 min,  0.071 sec
 *  cpu-time:     0 d,  0 h,  0 min,  0.109 sec
 * ratio c/w:     1.542 speedup
 analytical hessian:
 * wall-time:     0 d,  0 h,  0 min,  0.320 sec
 *  cpu-time:     0 d,  0 h,  0 min,  0.588 sec
 * ratio c/w:     1.836 speedup

