13
 energy: -23.720779208297 gnorm: 0.076008785475 xtb: 6.7.1 (edcfbbe)
C           -6.30913800000000       -3.52902900000000        2.05864300000000
C           -6.05682900000000       -4.04909200000000        0.77904300000000
O           -9.35076500000000       -5.31076500000000        2.90562500000000
H           -7.62853900000000       -3.56412700000000        3.76202300000000
C           -6.88281600000000       -5.00450400000000        0.15517100000000
H           -5.17882500000000       -3.69915300000000        0.23689200000000
C           -7.99455000000000       -5.40442600000000        0.91981500000000
O           -6.64512900000000       -5.47071700000000       -1.00733300000000
C           -8.25758900000000       -4.89341600000000        2.19739300000000
H           -8.66183200000000       -6.14149200000000        0.47876800000000
C           -7.41993400000000       -3.95533500000000        2.77427000000000
H           -5.63098600000000       -2.79521500000000        2.47923100000000
H           -9.79675900000000       -5.95675100000000        2.33312500000000
13
 energy: -23.723548228255 gnorm: 0.030352348254 xtb: 6.7.1 (edcfbbe)
C           -6.30394726581433       -3.53417500057222        2.04237637816495
C           -6.04211557650533       -4.03558119887098        0.78380644895002
O           -9.36308898456999       -5.32128609798279        2.90307760952938
H           -7.62643045367616       -3.56840632473976        3.75144187323209
C           -6.87722327805030       -5.00036978426026        0.15516415349705
H           -5.16596888655188       -3.68468910784095        0.24586734711865
C           -8.00024414370002       -5.40375765238260        0.92864861076252
O           -6.64331890841005       -5.46525135264286       -0.99986235038093
C           -8.25644895669496       -4.89773625393567        2.18803950880259
H           -8.67691674064909       -6.14066095767840        0.50047353847410
C           -7.41411031097022       -3.95702636364272        2.76340327893346
H           -5.63039770503560       -2.79972627692746        2.47028262702642
H           -9.81347978937205       -5.96535562852333        2.33994697588969
13
 energy: -23.724014816322 gnorm: 0.005647982068 xtb: 6.7.1 (edcfbbe)
C           -6.30334744472235       -3.53779553447666        2.03501727897957
C           -6.03461108725095       -4.02942392056764        0.78490759611125
O           -9.36836543183576       -5.32461368350652        2.90411770035799
H           -7.62725731414296       -3.56974621966340        3.75011683726916
C           -6.87309788871657       -5.00013295275498        0.15006726864212
H           -5.16109649709766       -3.68199148292354        0.24423212096468
C           -8.00138005745260       -5.40320272141685        0.93117261121356
O           -6.64226461660938       -5.46409697556807       -0.99918776943471
C           -8.25266049585153       -4.89803236445118        2.18242740685075
H           -8.68103932329269       -6.14007367390300        0.50705616243836
C           -7.41185666764108       -3.95588029061099        2.76245711927055
H           -5.63508723874531       -2.80140711810305        2.47352360411079
H           -9.82162693664117       -5.96762506205411        2.34675806322592
13
 energy: -23.724045057819 gnorm: 0.001870868264 xtb: 6.7.1 (edcfbbe)
C           -6.30397548143353       -3.53819942081810        2.03512756777792
C           -6.03399622538273       -4.02922325025723        0.78444822576915
O           -9.36861514326358       -5.32399844694089        2.90556494059480
H           -7.62809719160163       -3.56963161291068        3.75144716048199
C           -6.87229032818423       -5.00095597777583        0.14749401657700
H           -5.16120807906418       -3.68353937388484        0.24158138380762
C           -8.00106510262052       -5.40342848544744        0.93034108181569
O           -6.64185663017344       -5.46462960761389       -1.00070009609587
C           -8.25089992534883       -4.89716971863266        2.18163071747395
H           -8.68003626961372       -6.14028141752681        0.50533646284674
C           -7.41200578542214       -3.95490046655155        2.76443011060688
H           -5.63717368710498       -2.80103830666874        2.47698633298350
H           -9.82247115078646       -5.96702591497135        2.34897809536064
13
 energy: -23.724048477725 gnorm: 0.000723482694 xtb: 6.7.1 (edcfbbe)
C           -6.30437652558826       -3.53815324665499        2.03574822744309
C           -6.03468951723770       -4.02969060030677        0.78453101493971
O           -9.36825979370767       -5.32321614000635        2.90650360529784
H           -7.62871916813370       -3.56962424964664        3.75229234349174
C           -6.87231190534287       -5.00153151451380        0.14648153243687
H           -5.16222836961794       -3.68508549763458        0.24014923825778
C           -8.00096979864950       -5.40374913461205        0.92963222539315
O           -6.64154440696187       -5.46480286614213       -1.00143331194952
C           -8.24951271987875       -4.89640314645558        2.18116000921871
H           -8.67887259517092       -6.14050444007577        0.50337316484333
C           -7.41230119756650       -3.95428403653629        2.76594132340573
H           -5.63786587284373       -2.80065629944865        2.47860588167615
H           -9.82203912930059       -5.96632082796639        2.34968074554543
