 Entering Gaussian System
 *********************************************
 Gaussian 98:
 frequency output generated by the xtb code
 *********************************************
                         Standard orientation:
 --------------------------------------------------------------------
  Center     Atomic     Atomic              Coordinates (Angstroms)
  Number     Number      Type              X           Y           Z
 --------------------------------------------------------------------
    1          6             0       -4.208064   -4.170320   -3.214227
    2          6             0       -2.901626   -4.615400   -3.238931
    3          1             0       -3.802435   -1.388116   -1.359140
    4          6             0       -4.566688   -3.002550   -2.536428
    5          1             0       -4.977906   -4.729475   -3.731183
    6          6             0       -1.906596   -3.907748   -2.580487
    7          1             0       -2.649928   -5.531358   -3.764388
    8          6             0       -2.242337   -2.741556   -1.907627
    9          1             0       -0.881757   -4.261441   -2.590189
   10          6             0       -3.549665   -2.299886   -1.885513
   11          1             0       -1.471537   -2.183123   -1.385719
   12          6             0       -5.938415   -2.382399   -2.725816
   13          1             0       -6.706867   -3.219835   -2.802509
   14          1             0       -6.219053   -1.825166   -1.771399
   15          8             0       -5.847801   -1.619669   -3.801336
 --------------------------------------------------------------------
     1 basis functions        1 primitive gaussians
     1 alpha electrons        1 beta electrons
 
 Harmonic frequencies (cm**-1), IR intensities (km*mol⁻¹),
 Raman scattering activities (A**4/amu), Raman depolarization ratios,
 reduced masses (AMU), force constants (mDyne/A) and normal coordinates:
                      1                      2                      3
                        a                      a                      a 
 Frequencies --    85.5539               119.0917               272.3185
 Red. masses --    11.6150                12.7723                11.8568
 Frc consts  --     0.0000                 0.0000                 0.0000
 IR Inten    --     8.3444                40.9065                63.2032
 Raman Activ --     0.0000                 0.0000                 0.0000
 Depolar     --     0.0000                 0.0000                 0.0000
 Atom AN      X      Y      Z        X      Y      Z        X      Y      Z
   1   6     0.04  -0.24   0.08     0.14   0.11  -0.20    -0.03   0.18  -0.32
   2   6     0.07  -0.16   0.18     0.08  -0.09   0.08    -0.08   0.08  -0.09
   3   1    -0.05   0.04  -0.13     0.05   0.04  -0.09    -0.01   0.10  -0.14
   4   6    -0.04  -0.15  -0.12     0.16   0.13  -0.24    -0.04   0.03  -0.04
   5   1     0.02  -0.12   0.06     0.05   0.06  -0.09    -0.00   0.10  -0.15
   6   6     0.02   0.03   0.05     0.04  -0.23   0.30    -0.17  -0.14   0.29
   7   1     0.04  -0.07   0.10     0.02  -0.04   0.05    -0.01   0.03  -0.03
   8   6    -0.07   0.14  -0.17     0.09  -0.11   0.10    -0.08   0.11  -0.08
   9   1     0.01   0.03   0.03    -0.01  -0.12   0.17    -0.07  -0.11   0.20
  10   6    -0.09   0.04  -0.25     0.15   0.09  -0.19    -0.02   0.24  -0.28
  11   1    -0.03   0.08  -0.08     0.02  -0.05   0.06    -0.02   0.03  -0.03
  12   6    -0.06  -0.19  -0.14     0.03   0.00   0.01    -0.02  -0.17   0.28
  13   1     0.02  -0.07  -0.24     0.05  -0.05   0.06    -0.03  -0.02   0.06
  14   1    -0.11  -0.22   0.03     0.06  -0.04   0.05    -0.01  -0.02   0.05
  15   8     0.14   0.53   0.38    -0.66   0.13   0.07     0.42  -0.30   0.22
                      4                      5                      6
                        a                      a                      a 
 Frequencies --   312.2510               355.5896               462.8126
 Red. masses --     7.6690                 8.9026                10.0616
 Frc consts  --     0.0000                 0.0000                 0.0000
 IR Inten    --     0.1166                 0.0930                 0.2446
 Raman Activ --     0.0000                 0.0000                 0.0000
 Depolar     --     0.0000                 0.0000                 0.0000
 Atom AN      X      Y      Z        X      Y      Z        X      Y      Z
   1   6    -0.06   0.25   0.16     0.06   0.25  -0.34    -0.10  -0.07  -0.10
   2   6    -0.16   0.06  -0.06    -0.09  -0.22   0.35    -0.17  -0.17   0.12
   3   1     0.12   0.07   0.04    -0.03  -0.13   0.22    -0.08  -0.04   0.11
   4   6     0.09   0.26   0.19     0.00   0.02   0.01     0.28   0.20  -0.42
   5   1    -0.06   0.11   0.07     0.04   0.15  -0.21    -0.09  -0.05   0.10
   6   6    -0.04  -0.11  -0.07     0.00   0.00  -0.00    -0.22   0.26  -0.25
   7   1    -0.10   0.02  -0.05    -0.06  -0.14   0.22    -0.03  -0.12   0.17
   8   6     0.14  -0.10   0.01     0.09   0.21  -0.35    -0.11   0.01   0.25
   9   1    -0.03  -0.07  -0.04    -0.00  -0.01  -0.00    -0.06   0.09  -0.09
  10   6     0.21   0.19   0.12    -0.05  -0.21   0.37    -0.02   0.15   0.06
  11   1     0.08  -0.08  -0.00     0.06   0.14  -0.22    -0.02  -0.11   0.18
  12   6    -0.13  -0.37  -0.26    -0.01  -0.03  -0.02     0.30  -0.17   0.08
  13   1     0.14  -0.25  -0.28     0.01  -0.02  -0.02     0.11  -0.07   0.05
  14   1    -0.31  -0.24  -0.08    -0.02  -0.02  -0.01     0.11  -0.07   0.05
  15   8     0.01  -0.04  -0.01    -0.00  -0.01  -0.00     0.06  -0.09   0.09
                      7                      8                      9
                        a                      a                      a 
 Frequencies --   532.0562               589.4518               653.7790
 Red. masses --    10.4107                11.1586                 9.5976
 Frc consts  --     0.0000                 0.0000                 0.0000
 IR Inten    --    56.0729                 0.2633                 9.7315
 Raman Activ --     0.0000                 0.0000                 0.0000
 Depolar     --     0.0000                 0.0000                 0.0000
 Atom AN      X      Y      Z        X      Y      Z        X      Y      Z
   1   6     0.10   0.20   0.01    -0.39  -0.12  -0.15     0.05   0.13  -0.25
   2   6     0.08   0.03   0.25    -0.24   0.38   0.19    -0.06  -0.23   0.30
   3   1     0.06  -0.08   0.08     0.01  -0.10  -0.06     0.04   0.15  -0.24
   4   6    -0.26   0.27  -0.25    -0.05  -0.13  -0.09    -0.05  -0.26   0.39
   5   1     0.06  -0.07   0.09    -0.07  -0.08  -0.06     0.04   0.16  -0.23
   6   6     0.38   0.01  -0.21     0.05   0.15   0.10     0.01   0.18  -0.26
   7   1    -0.07  -0.08   0.17    -0.00   0.11   0.07     0.02   0.02  -0.04
   8   6    -0.02  -0.26   0.05     0.42   0.15   0.19    -0.05  -0.18   0.33
   9   1     0.10  -0.02  -0.02    -0.03  -0.09  -0.06     0.03   0.13  -0.19
  10   6    -0.00  -0.09  -0.20     0.23  -0.33  -0.17     0.06   0.16  -0.22
  11   1    -0.08  -0.10   0.16     0.07   0.08   0.07     0.02   0.02  -0.03
  12   6    -0.40   0.03   0.15    -0.02  -0.05  -0.03     0.03   0.03  -0.05
  13   1    -0.12   0.04   0.01     0.00  -0.02  -0.03    -0.00   0.01  -0.01
  14   1    -0.12   0.04   0.01    -0.02  -0.03  -0.00    -0.00   0.01  -0.01
  15   8     0.15  -0.09   0.06    -0.00  -0.00  -0.00    -0.03   0.02  -0.01
                     10                     11                     12
                        a                      a                      a 
 Frequencies --   738.6550               794.3139               858.1131
 Red. masses --     5.1903                 9.8782                 4.4090
 Frc consts  --     0.0000                 0.0000                 0.0000
 IR Inten    --     7.6757                41.1321                 3.4011
 Raman Activ --     0.0000                 0.0000                 0.0000
 Depolar     --     0.0000                 0.0000                 0.0000
 Atom AN      X      Y      Z        X      Y      Z        X      Y      Z
   1   6     0.06   0.00  -0.19    -0.08   0.21   0.08    -0.04  -0.17   0.20
   2   6     0.04  -0.08  -0.16    -0.09   0.33   0.15     0.01  -0.06   0.01
   3   1    -0.04  -0.12   0.22    -0.03  -0.04  -0.01     0.07   0.21  -0.33
   4   6     0.01  -0.22   0.31    -0.05  -0.09   0.16     0.02   0.10  -0.15
   5   1    -0.05  -0.15   0.21    -0.01   0.03   0.04     0.07   0.22  -0.36
   6   6    -0.10   0.15  -0.17     0.26  -0.02  -0.10     0.05   0.19  -0.29
   7   1    -0.00  -0.21   0.27    -0.15   0.03   0.10     0.03   0.02  -0.05
   8   6     0.12   0.14  -0.00    -0.27  -0.17  -0.21     0.04   0.01   0.04
   9   1    -0.12  -0.25   0.42     0.02  -0.16   0.21    -0.11  -0.31   0.49
  10   6     0.11   0.14  -0.09    -0.18  -0.09  -0.13    -0.02  -0.11   0.23
  11   1     0.01  -0.19   0.28    -0.17  -0.03   0.06     0.03   0.01  -0.02
  12   6    -0.12   0.09  -0.06     0.51  -0.13  -0.07    -0.08  -0.00   0.04
  13   1    -0.04   0.03  -0.03     0.15  -0.06   0.01    -0.02   0.00   0.01
  14   1    -0.05   0.04  -0.03     0.15  -0.06   0.01    -0.02   0.00   0.00
  15   8    -0.03   0.03  -0.02    -0.07   0.03  -0.01     0.02  -0.01   0.00
                     13                     14                     15
                        a                      a                      a 
 Frequencies --   862.1607               911.4814               912.0080
 Red. masses --     3.3675                 2.4078                 4.0955
 Frc consts  --     0.0000                 0.0000                 0.0000
 IR Inten    --     0.7138                 0.3242                 0.2560
 Raman Activ --     0.0000                 0.0000                 0.0000
 Depolar     --     0.0000                 0.0000                 0.0000
 Atom AN      X      Y      Z        X      Y      Z        X      Y      Z
   1   6    -0.04  -0.12   0.17    -0.02  -0.07   0.10    -0.05  -0.14   0.22
   2   6    -0.04  -0.13   0.20     0.04   0.12  -0.19     0.04   0.12  -0.20
   3   1    -0.07  -0.23   0.37     0.04   0.15  -0.24    -0.07  -0.24   0.39
   4   6     0.00   0.00   0.01    -0.01  -0.04   0.06    -0.00  -0.00  -0.01
   5   1     0.07   0.23  -0.34     0.05   0.20  -0.29     0.06   0.23  -0.33
   6   6     0.00  -0.00   0.01    -0.01  -0.07   0.11     0.00   0.01  -0.01
   7   1     0.08   0.24  -0.38    -0.09  -0.29   0.46    -0.06  -0.19   0.30
   8   6     0.03   0.13  -0.21     0.03   0.10  -0.15    -0.05  -0.15   0.22
   9   1     0.01   0.02  -0.01     0.06   0.19  -0.30    -0.00  -0.01   0.03
  10   6     0.04   0.11  -0.19    -0.02  -0.04   0.07     0.05   0.15  -0.23
  11   1    -0.08  -0.24   0.38    -0.08  -0.26   0.40     0.07   0.24  -0.37
  12   6     0.00   0.00  -0.00     0.00   0.00  -0.00    -0.00  -0.01  -0.01
  13   1     0.00  -0.00  -0.00    -0.00   0.00  -0.00    -0.01   0.01   0.00
  14   1    -0.00   0.00   0.00    -0.00   0.00  -0.00     0.01  -0.00   0.00
  15   8     0.00   0.00   0.00    -0.00  -0.00   0.00     0.00   0.00   0.00
                     16                     17                     18
                        a                      a                      a 
 Frequencies --   976.3196               994.4039              1078.9893
 Red. masses --    10.9428                 5.4246                 7.2519
 Frc consts  --     0.0000                 0.0000                 0.0000
 IR Inten    --     7.3952                17.3984                 2.2919
 Raman Activ --     0.0000                 0.0000                 0.0000
 Depolar     --     0.0000                 0.0000                 0.0000
 Atom AN      X      Y      Z        X      Y      Z        X      Y      Z
   1   6     0.31   0.36   0.30    -0.05  -0.12  -0.09    -0.16   0.05  -0.01
   2   6     0.01  -0.16  -0.11     0.05  -0.07  -0.04    -0.04  -0.32  -0.21
   3   1    -0.05  -0.13  -0.10    -0.01  -0.04  -0.02    -0.31  -0.02  -0.06
   4   6    -0.14   0.06  -0.01     0.03   0.08   0.05    -0.04   0.01   0.01
   5   1     0.05   0.14   0.09    -0.01  -0.04  -0.03    -0.23   0.18   0.08
   6   6    -0.38   0.13   0.00     0.02   0.05   0.04     0.43  -0.15  -0.01
   7   1    -0.08  -0.05  -0.04     0.09  -0.02   0.02    -0.28  -0.12  -0.14
   8   6     0.11   0.13   0.10    -0.09  -0.03  -0.03     0.16   0.28   0.21
   9   1    -0.10   0.03   0.01     0.03   0.08   0.06     0.13  -0.05  -0.00
  10   6     0.02  -0.48  -0.29    -0.03  -0.13  -0.09    -0.15   0.06   0.01
  11   1    -0.03   0.08   0.05    -0.08   0.05   0.00    -0.14   0.27   0.14
  12   6     0.10  -0.03  -0.02     0.15   0.41   0.31     0.04  -0.03   0.02
  13   1     0.04  -0.03   0.01     0.41  -0.26  -0.22     0.00   0.00   0.00
  14   1     0.05  -0.02   0.02    -0.53  -0.07  -0.03     0.00  -0.00  -0.00
  15   8     0.01  -0.01   0.02    -0.03  -0.09  -0.08    -0.00   0.02  -0.02
                     19                     20                     21
                        a                      a                      a 
 Frequencies --  1121.0363              1128.3293              1182.5339
 Red. masses --     4.0823                12.5776                 1.3711
 Frc consts  --     0.0000                 0.0000                 0.0000
 IR Inten    --     3.5823               199.3663                 0.0668
 Raman Activ --     0.0000                 0.0000                 0.0000
 Depolar     --     0.0000                 0.0000                 0.0000
 Atom AN      X      Y      Z        X      Y      Z        X      Y      Z
   1   6    -0.24  -0.02  -0.07    -0.01  -0.04  -0.04     0.08  -0.03  -0.01
   2   6     0.06  -0.15  -0.09     0.02  -0.08  -0.05     0.04   0.01   0.01
   3   1     0.42   0.01   0.07     0.19   0.03   0.06     0.15   0.03   0.05
   4   6     0.05   0.11   0.08    -0.30   0.07   0.06     0.02   0.06   0.04
   5   1    -0.34   0.25   0.11     0.11  -0.13  -0.05    -0.10   0.11   0.05
   6   6     0.06   0.17   0.12    -0.02   0.01   0.00    -0.03  -0.07  -0.05
   7   1     0.24  -0.02   0.04     0.02  -0.03  -0.00     0.43   0.05   0.12
   8   6    -0.14  -0.08  -0.08     0.06   0.05   0.04    -0.03   0.03   0.01
   9   1     0.12   0.35   0.25    -0.00   0.01   0.01    -0.20  -0.56  -0.39
  10   6     0.16  -0.17  -0.07     0.03   0.04   0.02    -0.08   0.02  -0.00
  11   1    -0.21   0.13   0.05     0.02   0.01   0.02    -0.31   0.31   0.13
  12   6    -0.04  -0.10  -0.10     0.10  -0.42   0.51    -0.00  -0.00  -0.00
  13   1    -0.07   0.02   0.08     0.04   0.00   0.02     0.01  -0.01   0.02
  14   1     0.09   0.04  -0.03     0.04  -0.03  -0.02    -0.00   0.02  -0.01
  15   8     0.01   0.02   0.04    -0.01   0.36  -0.48     0.00   0.01   0.01
                     22                     23                     24
                        a                      a                      a 
 Frequencies --  1197.4343              1213.1627              1222.1989
 Red. masses --     4.1968                 8.3493                 2.6673
 Frc consts  --     0.0000                 0.0000                 0.0000
 IR Inten    --    43.6185                27.7102                 4.0533
 Raman Activ --     0.0000                 0.0000                 0.0000
 Depolar     --     0.0000                 0.0000                 0.0000
 Atom AN      X      Y      Z        X      Y      Z        X      Y      Z
   1   6    -0.00   0.08   0.05    -0.18   0.04  -0.02     0.01   0.05   0.04
   2   6     0.06   0.10   0.08     0.14  -0.14  -0.07     0.03   0.02   0.02
   3   1    -0.48  -0.08  -0.14    -0.05   0.02   0.02     0.16   0.03   0.05
   4   6     0.23  -0.08   0.00    -0.54   0.19   0.00    -0.05  -0.13  -0.09
   5   1    -0.33   0.35   0.16    -0.05  -0.00  -0.00    -0.11   0.12   0.06
   6   6     0.01  -0.00   0.00     0.06  -0.02  -0.00    -0.00  -0.00  -0.00
   7   1     0.31   0.06   0.10     0.40  -0.00   0.08    -0.03   0.00  -0.01
   8   6    -0.02  -0.12  -0.08     0.20   0.03   0.05    -0.01   0.03   0.02
   9   1    -0.00   0.00  -0.00     0.02  -0.01   0.00    -0.01  -0.02  -0.01
  10   6    -0.05  -0.06  -0.05    -0.16   0.08   0.01     0.02   0.05   0.03
  11   1     0.20  -0.23  -0.11     0.32  -0.25  -0.09     0.02  -0.02  -0.00
  12   6    -0.16  -0.11   0.22     0.30   0.03  -0.19     0.07   0.18   0.14
  13   1    -0.02   0.01   0.02     0.04  -0.02  -0.00    -0.20   0.31  -0.51
  14   1    -0.03  -0.01   0.01     0.04  -0.01   0.00     0.14  -0.48   0.39
  15   8     0.03   0.14  -0.21    -0.03  -0.12   0.17    -0.05  -0.15  -0.12
                     25                     26                     27
                        a                      a                      a 
 Frequencies --  1293.6950              1335.6718              1344.2289
 Red. masses --     3.4661                 3.0797                11.4985
 Frc consts  --     0.0000                 0.0000                 0.0000
 IR Inten    --     0.1562                31.4805                 9.6794
 Raman Activ --     0.0000                 0.0000                 0.0000
 Depolar     --     0.0000                 0.0000                 0.0000
 Atom AN      X      Y      Z        X      Y      Z        X      Y      Z
   1   6     0.17  -0.13  -0.04     0.05  -0.02  -0.00    -0.25   0.26   0.11
   2   6     0.07   0.05   0.05     0.01   0.03   0.02     0.36   0.05   0.11
   3   1     0.42   0.06   0.12    -0.05  -0.01  -0.02     0.05   0.01   0.02
   4   6    -0.07  -0.20  -0.15     0.03   0.01  -0.05    -0.12  -0.35  -0.25
   5   1    -0.29   0.30   0.14    -0.03   0.04   0.02    -0.03   0.03   0.01
   6   6     0.05   0.15   0.11    -0.03   0.00  -0.00    -0.12  -0.33  -0.24
   7   1    -0.35  -0.03  -0.09    -0.02   0.01  -0.00     0.03   0.01   0.01
   8   6    -0.02   0.08   0.05    -0.02  -0.02  -0.01    -0.24   0.26   0.11
   9   1    -0.07  -0.19  -0.14    -0.01   0.01   0.00     0.01   0.03   0.02
  10   6    -0.21   0.01  -0.04     0.06  -0.01   0.01     0.35   0.05   0.11
  11   1     0.26  -0.24  -0.10    -0.02   0.01   0.00    -0.02   0.02   0.02
  12   6     0.01   0.03   0.02     0.30  -0.17   0.10     0.00   0.03   0.02
  13   1     0.09  -0.12   0.10    -0.35   0.40  -0.35     0.09  -0.10   0.07
  14   1    -0.10   0.11  -0.12    -0.36   0.38  -0.37    -0.08   0.06  -0.07
  15   8     0.01   0.03   0.02    -0.12  -0.05   0.13     0.01   0.01   0.01
                     28                     29                     30
                        a                      a                      a 
 Frequencies --  1440.0989              1466.6594              1507.6120
 Red. masses --     8.6776                 8.2874                 1.9049
 Frc consts  --     0.0000                 0.0000                 0.0000
 IR Inten    --     1.2339                13.9770               126.5535
 Raman Activ --     0.0000                 0.0000                 0.0000
 Depolar     --     0.0000                 0.0000                 0.0000
 Atom AN      X      Y      Z        X      Y      Z        X      Y      Z
   1   6    -0.29  -0.01  -0.07     0.12  -0.26  -0.14    -0.03   0.06   0.03
   2   6     0.36  -0.14  -0.02     0.28   0.13   0.14    -0.03  -0.02  -0.02
   3   1    -0.10  -0.08  -0.07    -0.27  -0.00  -0.05     0.06  -0.00   0.01
   4   6     0.10   0.29   0.21    -0.36   0.12   0.01     0.09  -0.03  -0.01
   5   1     0.03  -0.12  -0.07    -0.21   0.16   0.07     0.05  -0.04  -0.01
   6   6     0.07   0.21   0.15    -0.24   0.08   0.00     0.03  -0.01  -0.00
   7   1    -0.20  -0.08  -0.09    -0.27  -0.00  -0.05     0.03  -0.00   0.01
   8   6    -0.37   0.10  -0.01     0.14  -0.27  -0.15    -0.01   0.04   0.02
   9   1    -0.10  -0.29  -0.21    -0.07   0.02   0.00     0.01  -0.00   0.00
  10   6     0.22  -0.19  -0.07     0.26   0.14   0.14    -0.06  -0.02  -0.03
  11   1     0.11  -0.18  -0.10    -0.21   0.16   0.07     0.03  -0.02  -0.01
  12   6    -0.02  -0.05  -0.04     0.10   0.01  -0.06     0.18   0.01  -0.09
  13   1    -0.06   0.07  -0.03    -0.01  -0.02   0.13    -0.34   0.17   0.56
  14   1     0.07  -0.04   0.06    -0.04  -0.10   0.07    -0.54  -0.38   0.15
  15   8    -0.00  -0.01  -0.00     0.00  -0.00   0.00     0.02   0.06  -0.09
                     31                     32                     33
                        a                      a                      a 
 Frequencies --  1558.4519              1590.3183              2262.3842
 Red. masses --    11.2789                11.3542                 1.8063
 Frc consts  --     0.0000                 0.0000                 0.0000
 IR Inten    --     0.3489                94.1717               421.5607
 Raman Activ --     0.0000                 0.0000                 0.0000
 Depolar     --     0.0000                 0.0000                 0.0000
 Atom AN      X      Y      Z        X      Y      Z        X      Y      Z
   1   6     0.09  -0.26  -0.16    -0.38   0.22   0.06    -0.01  -0.00  -0.00
   2   6     0.17   0.21   0.17     0.46  -0.04   0.07     0.00   0.00   0.00
   3   1     0.09  -0.02   0.01     0.09   0.04   0.04    -0.01   0.00   0.00
   4   6     0.12   0.35   0.25     0.24  -0.08  -0.01     0.01   0.03   0.02
   5   1    -0.08   0.05   0.01     0.04  -0.08  -0.05     0.01  -0.00  -0.00
   6   6    -0.16  -0.44  -0.31    -0.20   0.07   0.00    -0.00  -0.00  -0.00
   7   1    -0.06   0.04   0.02    -0.11  -0.03  -0.04    -0.00  -0.00  -0.00
   8   6    -0.00   0.27   0.17     0.38  -0.25  -0.08    -0.00   0.00   0.00
   9   1     0.05   0.13   0.09    -0.05   0.02  -0.00    -0.00  -0.00  -0.00
  10   6    -0.24  -0.16  -0.14    -0.44   0.06  -0.05     0.00  -0.01  -0.01
  11   1     0.08  -0.00   0.00    -0.07   0.09   0.05     0.00  -0.00  -0.00
  12   6    -0.01  -0.03  -0.02    -0.04  -0.02   0.05     0.07   0.21   0.15
  13   1    -0.03   0.05  -0.02    -0.01   0.01  -0.04    -0.48  -0.45  -0.04
  14   1     0.04  -0.02   0.04    -0.00   0.04  -0.02     0.22  -0.35  -0.57
  15   8    -0.00  -0.00  -0.00     0.01   0.01  -0.02     0.00   0.00   0.01
                     34                     35                     36
                        a                      a                      a 
 Frequencies --  2423.0633              2997.3150              3000.4423
 Red. masses --     1.2978                 1.7251                 1.7963
 Frc consts  --     0.0000                 0.0000                 0.0000
 IR Inten    --   636.7519                 6.6391               148.1598
 Raman Activ --     0.0000                 0.0000                 0.0000
 Depolar     --     0.0000                 0.0000                 0.0000
 Atom AN      X      Y      Z        X      Y      Z        X      Y      Z
   1   6     0.00  -0.00  -0.00    -0.02  -0.01  -0.01    -0.02  -0.01  -0.01
   2   6    -0.00  -0.00  -0.00    -0.03   0.14   0.08    -0.04   0.15   0.09
   3   1     0.00  -0.00  -0.00     0.02  -0.06  -0.04    -0.03   0.10   0.06
   4   6     0.01  -0.00  -0.00    -0.00   0.00  -0.00    -0.00  -0.00  -0.00
   5   1     0.01   0.00   0.00     0.07   0.05   0.04     0.08   0.06   0.05
   6   6     0.00  -0.00  -0.00     0.12  -0.04  -0.00    -0.01   0.01   0.00
   7   1    -0.00   0.00   0.00     0.14  -0.52  -0.30     0.15  -0.54  -0.31
   8   6    -0.00   0.01   0.00    -0.10  -0.08  -0.07     0.14   0.10   0.09
   9   1    -0.00  -0.00   0.00    -0.47   0.16   0.01     0.03  -0.01  -0.00
  10   6     0.00   0.00   0.00    -0.01   0.01   0.01     0.01  -0.02  -0.01
  11   1    -0.00  -0.00  -0.00     0.38   0.28   0.26    -0.50  -0.36  -0.34
  12   6     0.12  -0.01  -0.03     0.00  -0.00   0.00     0.00   0.00   0.00
  13   1    -0.45  -0.55  -0.14    -0.00  -0.00  -0.00     0.00   0.00   0.00
  14   1    -0.10   0.40   0.54    -0.00   0.00   0.00    -0.00   0.00   0.00
  15   8     0.01   0.05  -0.07    -0.00   0.00  -0.00    -0.00  -0.00  -0.00
                     37                     38                     39
                        a                      a                      a 
 Frequencies --  3024.0210              3044.8250              3049.5309
 Red. masses --     1.8611                 1.8308                 1.8477
 Frc consts  --     0.0000                 0.0000                 0.0000
 IR Inten    --   233.7286               162.2292                 6.0687
 Raman Activ --     0.0000                 0.0000                 0.0000
 Depolar     --     0.0000                 0.0000                 0.0000
 Atom AN      X      Y      Z        X      Y      Z        X      Y      Z
   1   6     0.04   0.03   0.03    -0.16  -0.11  -0.10    -0.10  -0.07  -0.07
   2   6     0.02  -0.08  -0.04     0.01  -0.04  -0.02     0.01  -0.04  -0.02
   3   1    -0.04   0.17   0.09    -0.13   0.46   0.26     0.18  -0.64  -0.37
   4   6     0.00  -0.00   0.00    -0.00  -0.00  -0.00    -0.01   0.00   0.00
   5   1    -0.15  -0.11  -0.10     0.55   0.40   0.37     0.36   0.26   0.24
   6   6     0.22  -0.08  -0.00     0.01   0.00   0.00     0.05  -0.02  -0.00
   7   1    -0.07   0.26   0.15    -0.03   0.12   0.07    -0.03   0.12   0.07
   8   6     0.07   0.05   0.05    -0.02  -0.01  -0.01     0.04   0.03   0.03
   9   1    -0.76   0.26   0.01    -0.04   0.01  -0.00    -0.18   0.06   0.00
  10   6     0.01  -0.04  -0.03     0.04  -0.13  -0.07    -0.05   0.18   0.10
  11   1    -0.22  -0.16  -0.15     0.05   0.04   0.03    -0.13  -0.10  -0.09
  12   6    -0.00   0.00  -0.00    -0.00  -0.00  -0.00    -0.00   0.00  -0.00
  13   1     0.00   0.00   0.00     0.01   0.01   0.00     0.00   0.00  -0.00
  14   1     0.00  -0.00  -0.00    -0.00   0.00   0.00     0.00  -0.00  -0.01
  15   8     0.00  -0.00   0.00     0.00   0.00   0.00     0.00  -0.00   0.00
