      -----------------------------------------------------------      
     |                   =====================                   |     
     |                           x T B                           |     
     |                   =====================                   |     
     |                         S. Grimme                         |     
     |          Mulliken Center for Theoretical Chemistry        |     
     |                    University of Bonn                     |     
      -----------------------------------------------------------      

   * xtb version 6.7.1 (edcfbbe) compiled by 'albert@albert-system' on 2024-07-22

   xtb is free software: you can redistribute it and/or modify it under
   the terms of the GNU Lesser General Public License as published by
   the Free Software Foundation, either version 3 of the License, or
   (at your option) any later version.
   
   xtb is distributed in the hope that it will be useful,
   but WITHOUT ANY WARRANTY; without even the implied warranty of
   MERCHANTABILITY or FITNESS FOR A PARTICULAR PURPOSE.  See the
   GNU Lesser General Public License for more details.
   
   Cite this work as:
   * C. Bannwarth, E. Caldeweyher, S. Ehlert, A. Hansen, P. Pracht,
     J. Seibert, S. Spicher, S. Grimme, WIREs Comput. Mol. Sci., 2020, 11,
     e01493. DOI: 10.1002/wcms.1493
   
   for GFN2-xTB:
   * C. Bannwarth, S. Ehlert and S. Grimme., J. Chem. Theory Comput., 2019,
     15, 1652-1671. DOI: 10.1021/acs.jctc.8b01176
   for GFN1-xTB:
   * S. Grimme, C. Bannwarth, P. Shushkov, J. Chem. Theory Comput., 2017,
     13, 1989-2009. DOI: 10.1021/acs.jctc.7b00118
   for GFN0-xTB:
   * P. Pracht, E. Caldeweyher, S. Ehlert, S. Grimme, ChemRxiv, 2019, preprint.
     DOI: 10.26434/chemrxiv.8326202.v1
   for GFN-FF:
   * S. Spicher and S. Grimme, Angew. Chem. Int. Ed., 2020, 59, 15665-15673.
     DOI: 10.1002/anie.202004239
   
   for ALPB and GBSA implicit solvation:
   * S. Ehlert, M. Stahn, S. Spicher, S. Grimme, J. Chem. Theory Comput.,
     2021, 17, 4250-4261. DOI: 10.1021/acs.jctc.1c00471
   
   for ddCOSMO and CPCM-X implicit solvation:
   * M. Stahn, S. Ehlert, S. Grimme, J. Phys. Chem. A,
     2023, XX, XXXX-XXXX. DOI: 10.1021/acs.jpca.3c04382
   
   for DFT-D4:
   * E. Caldeweyher, C. Bannwarth and S. Grimme, J. Chem. Phys., 2017,
     147, 034112. DOI: 10.1063/1.4993215
   * E. Caldeweyher, S. Ehlert, A. Hansen, H. Neugebauer, S. Spicher,
     C. Bannwarth and S. Grimme, J. Chem. Phys., 2019, 150, 154122.
     DOI: 10.1063/1.5090222
   * E. Caldeweyher, J.-M. Mewes, S. Ehlert and S. Grimme, Phys. Chem. Chem. Phys.
     2020, 22, 8499-8512. DOI: 10.1039/D0CP00502A
   
   for sTDA-xTB:
   * S. Grimme and C. Bannwarth, J. Chem. Phys., 2016, 145, 054103.
     DOI: 10.1063/1.4959605
   
   in the mass-spec context:
   * V. Asgeirsson, C. Bauer and S. Grimme, Chem. Sci., 2017, 8, 4879.
     DOI: 10.1039/c7sc00601b
   * J. Koopman and S. Grimme, ACS Omega 2019, 4, 12, 15120-15133.
     DOI: 10.1021/acsomega.9b02011
   
   for metadynamics refer to:
   * S. Grimme, J. Chem. Theory Comput., 2019, 155, 2847-2862
     DOI: 10.1021/acs.jctc.9b00143
   
   for SPH calculations refer to:
   * S. Spicher and S. Grimme, J. Chem. Theory Comput., 2021, 17, 1701-1714
     DOI: 10.1021/acs.jctc.0c01306
   
   for ONIOM refer to:
   * C. Plett, A. Katbashev, S. Ehlert, S. Grimme, M. Bursch,
     Phys. Chem. Chem. Phys., 2023, 25, 17860-17868. DOI: 10.1039/D3CP02178E
   
   for DIPRO refer to:
   * J. Kohn, N. Gildemeister, S. Grimme, D. Fazzi, A. Hansen,
     J. Chem. Phys., 2023, just accepted.
   
   for PTB refer to:
   * S. Grimme, M. Mueller, A. Hansen, J. Chem. Phys., 2023, 158, 124111.
     DOI: 10.1063/5.0137838
   
   with help from (in alphabetical order)
   P. Atkinson, C. Bannwarth, F. Bohle, G. Brandenburg, E. Caldeweyher
   M. Checinski, S. Dohm, S. Ehlert, S. Ehrlich, I. Gerasimov, C. Hölzer
   A. Katbashev, J. Kohn, J. Koopman, C. Lavigne, S. Lehtola, F. März, M. Müller,
   F. Musil, H. Neugebauer, J. Pisarek, C. Plett, P. Pracht, F. Pultar,
   J. Seibert, P. Shushkov, S. Spicher, M. Stahn, M. Steiner, T. Strunk,
   J. Stückrath, T. Rose, and J. Unsleber
   
 * started run on 2025/10/18 at 01:12:33.554     
   ID    Z sym.   atoms
    1    6 C      1, 2, 4, 6, 8, 10, 12
    2    1 H      3, 5, 7, 9, 11, 13, 14
    3    8 O      15

           -------------------------------------------------
          |                Calculation Setup                |
           -------------------------------------------------

          program call               : xtb xyz.xyz --charge -1 --ohess
          hostname                   : m003
          coordinate file            : xyz.xyz
          omp threads                :                     2


           -------------------------------------------------
          |                 G F N 2 - x T B                 |
           -------------------------------------------------

        Reference                      10.1021/acs.jctc.8b01176
      * Hamiltonian:
        H0-scaling (s, p, d)           1.850000    2.230000    2.230000
        zeta-weighting                 0.500000
      * Dispersion:
        s8                             2.700000
        a1                             0.520000
        a2                             5.000000
        s9                             5.000000
      * Repulsion:
        kExp                           1.500000    1.000000
        rExp                           1.000000
      * Coulomb:
        alpha                          2.000000
        third order                    shell-resolved
        anisotropic                    true
        a3                             3.000000
        a5                             4.000000
        cn-shift                       1.200000
        cn-exp                         4.000000
        max-rad                        5.000000


          ...................................................
          :                      SETUP                      :
          :.................................................:
          :  # basis functions                  39          :
          :  # atomic orbitals                  39          :
          :  # shells                           23          :
          :  # electrons                        42          :
          :  max. iterations                   250          :
          :  Hamiltonian                  GFN2-xTB          :
          :  restarted?                      false          :
          :  GBSA solvation                  false          :
          :  PC potential                    false          :
          :  electronic temp.          300.0000000     K    :
          :  accuracy                    1.0000000          :
          :  -> integral cutoff          0.2500000E+02      :
          :  -> integral neglect         0.1000000E-07      :
          :  -> SCF convergence          0.1000000E-05 Eh   :
          :  -> wf. convergence          0.1000000E-03 e    :
          :  Broyden damping             0.4000000          :
          :  net charge                         -1          :
          :  unpaired electrons                  0          :
          ...................................................

 iter      E             dE          RMSdq      gap      omega  full diag
   1    -23.0035978 -0.230036E+02  0.481E+00    4.58       0.0  T
   2    -23.0865587 -0.829609E-01  0.247E+00    1.79       1.0  T
   3    -23.0840194  0.253923E-02  0.111E+00    0.82       1.0  T
   4    -23.0910143 -0.699490E-02  0.696E-01    1.27       1.0  T
   5    -23.0942666 -0.325224E-02  0.130E-01    1.24       1.0  T
   6    -23.0943825 -0.115902E-03  0.642E-02    1.12       1.0  T
   7    -23.0943852 -0.276472E-05  0.284E-02    1.17       1.0  T
   8    -23.0943951 -0.982310E-05  0.612E-03    1.15       4.2  T
   9    -23.0943953 -0.216914E-06  0.298E-03    1.15       8.7  T
  10    -23.0943953 -0.117848E-07  0.663E-04    1.15      38.9  T
  11    -23.0943953 -0.104303E-08  0.318E-04    1.15      81.2  T

   *** convergence criteria satisfied after 11 iterations ***

         #    Occupation            Energy/Eh            Energy/eV
      -------------------------------------------------------------
         1        2.0000           -0.4881644             -13.2836
       ...           ...                  ...                  ...
        15        2.0000           -0.2746021              -7.4723
        16        2.0000           -0.2663712              -7.2483
        17        2.0000           -0.2532470              -6.8912
        18        2.0000           -0.2506214              -6.8198
        19        2.0000           -0.2276925              -6.1958
        20        2.0000           -0.1163228              -3.1653
        21        2.0000           -0.1159643              -3.1555 (HOMO)
        22                         -0.0737922              -2.0080 (LUMO)
        23                         -0.0654875              -1.7820
        24                          0.0555299               1.5110
        25                          0.2508218               6.8252
        26                          0.2587403               7.0407
       ...                                ...                  ...
        39                          0.7794537              21.2100
      -------------------------------------------------------------
                  HL-Gap            0.0421721 Eh            1.1476 eV
             Fermi-level           -0.0946358 Eh           -2.5752 eV

 SCC (total)                   0 d,  0 h,  0 min,  0.035 sec
 SCC setup                      ...        0 min,  0.000 sec (  0.716%)
 Dispersion                     ...        0 min,  0.000 sec (  0.604%)
 classical contributions        ...        0 min,  0.000 sec (  0.120%)
 integral evaluation            ...        0 min,  0.001 sec (  3.758%)
 iterations                     ...        0 min,  0.030 sec ( 86.936%)
 molecular gradient             ...        0 min,  0.003 sec (  7.314%)
 printout                       ...        0 min,  0.000 sec (  0.435%)

         :::::::::::::::::::::::::::::::::::::::::::::::::::::
         ::                     SUMMARY                     ::
         :::::::::::::::::::::::::::::::::::::::::::::::::::::
         :: total energy             -22.757625226689 Eh    ::
         :: gradient norm              0.052038033238 Eh/a0 ::
         :: HOMO-LUMO gap              1.147561608682 eV    ::
         ::.................................................::
         :: SCC energy               -23.094372302937 Eh    ::
         :: -> isotropic ES            0.176632505658 Eh    ::
         :: -> anisotropic ES          0.011852688793 Eh    ::
         :: -> anisotropic XC          0.006454899036 Eh    ::
         :: -> dispersion             -0.012746943146 Eh    ::
         :: repulsion energy           0.336747076248 Eh    ::
         :: add. restraining           0.000000000000 Eh    ::
         :: total charge              -0.999999999686 e     ::
         :::::::::::::::::::::::::::::::::::::::::::::::::::::

      ----------------------------------------------------------- 
     |                   =====================                   |
     |                        A N C O P T                        |
     |                   =====================                   |
     |               Approximate Normal Coordinate               |
     |                Rational Function Optimizer                |
      ----------------------------------------------------------- 
      ----------------------------------------------------------- 
     |                   =====================                   |
     |                        A N C O P T                        |
     |                   =====================                   |
     |               Approximate Normal Coordinate               |
     |                Rational Function Optimizer                |
      ----------------------------------------------------------- 

          ...................................................
          :                      SETUP                      :
          :.................................................:
          :   optimization level            normal          :
          :   max. optcycles                   200          :
          :   ANC micro-cycles                  20          :
          :   degrees of freedom                39          :
          :.................................................:
          :   RF solver                   davidson          :
          :   write xtbopt.log                true          :
          :   linear?                        false          :
          :   energy convergence         0.5000000E-05 Eh   :
          :   grad. convergence          0.1000000E-02 Eh/α :
          :   maxmium RF displ.          1.0000000          :
          :   Hlow (freq-cutoff)         0.1000000E-01      :
          :   Hmax (freq-cutoff)         5.0000000          :
          :   S6 in model hess.         20.0000000          :
          ...................................................

generating ANC from exact Hessian ...
Using Lindh-Hessian (1995)
 Shifting diagonal of input Hessian by   5.009491276510365E-003
 Lowest  eigenvalues of input Hessian
    0.000000    0.000000    0.000000    0.000000    0.000000    0.000000
    0.010000    0.012609    0.019326    0.020722    0.023018    0.028307
    0.044686    0.049084    0.064649    0.070556    0.091854    0.097050
 Highest eigenvalues
    1.517976    1.533136    1.715837    1.818004    1.919488    1.936301
 

........................................................................
.............................. CYCLE    1 ..............................
........................................................................

 iter      E             dE          RMSdq      gap      omega  full diag
   1    -23.0943953 -0.230944E+02  0.136E-04    1.15       0.0  T
   2    -23.0943953 -0.936353E-10  0.776E-05    1.15     332.9  T
   3    -23.0943953 -0.356479E-10  0.425E-05    1.15     607.6  T
     SCC iter.                  ...        0 min,  0.002 sec
     gradient                   ...        0 min,  0.002 sec
 * total energy  :   -22.7576252 Eh     change       -0.7372414E-09 Eh
   gradient norm :     0.0520389 Eh/α   predicted     0.0000000E+00 (-100.00%)
   displ. norm   :     0.2701753 α      lambda       -0.7922083E-02
   maximum displ.:     0.1529930 α      in ANC's #1, #17, #7, ...

........................................................................
.............................. CYCLE    2 ..............................
........................................................................

 iter      E             dE          RMSdq      gap      omega  full diag
   1    -23.1050402 -0.231050E+02  0.318E-01    1.25       0.0  T
   2    -23.1051293 -0.891412E-04  0.185E-01    1.29       1.0  T
   3    -23.1050970  0.322956E-04  0.944E-02    1.26       1.0  T
   4    -23.1051643 -0.673124E-04  0.156E-02    1.26       1.7  T
   5    -23.1051658 -0.152580E-05  0.732E-03    1.27       3.5  T
   6    -23.1051664 -0.557782E-06  0.242E-03    1.26      10.6  T
   7    -23.1051664 -0.156196E-07  0.101E-03    1.26      25.5  T
   8    -23.1051664 -0.493072E-08  0.204E-04    1.26     126.6  T
   9    -23.1051664 -0.134861E-09  0.119E-04    1.26     217.7  T
     SCC iter.                  ...        0 min,  0.004 sec
     gradient                   ...        0 min,  0.002 sec
 * total energy  :   -22.7624754 Eh     change       -0.4850164E-02 Eh
   gradient norm :     0.0164334 Eh/α   predicted    -0.4250179E-02 ( -12.37%)
   displ. norm   :     0.2361043 α      lambda       -0.1198157E-02
   maximum displ.:     0.2169594 α      in ANC's #1, #5, #17, ...

........................................................................
.............................. CYCLE    3 ..............................
........................................................................

 iter      E             dE          RMSdq      gap      omega  full diag
   1    -23.1072889 -0.231073E+02  0.172E-01    1.30       0.0  T
   2    -23.1073168 -0.278924E-04  0.101E-01    1.34       1.0  T
   3    -23.1073090  0.776275E-05  0.458E-02    1.31       1.0  T
   4    -23.1073245 -0.154945E-04  0.764E-03    1.32       3.4  T
   5    -23.1073250 -0.510957E-06  0.312E-03    1.32       8.3  T
   6    -23.1073251 -0.891414E-07  0.121E-03    1.32      21.3  T
   7    -23.1073251 -0.796857E-08  0.600E-04    1.32      43.0  T
   8    -23.1073251 -0.137157E-08  0.106E-04    1.32     243.7  T
     SCC iter.                  ...        0 min,  0.003 sec
     gradient                   ...        0 min,  0.002 sec
 * total energy  :   -22.7631897 Eh     change       -0.7143443E-03 Eh
   gradient norm :     0.0063207 Eh/α   predicted    -0.6324714E-03 ( -11.46%)
   displ. norm   :     0.1359776 α      lambda       -0.2310528E-03
   maximum displ.:     0.1313376 α      in ANC's #1, #2, #8, ...

........................................................................
.............................. CYCLE    4 ..............................
........................................................................

 iter      E             dE          RMSdq      gap      omega  full diag
   1    -23.1066636 -0.231067E+02  0.891E-02    1.33       0.0  T
   2    -23.1066826 -0.190221E-04  0.526E-02    1.39       1.0  T
   3    -23.1066843 -0.168686E-05  0.281E-02    1.37       1.0  T
   4    -23.1066870 -0.272720E-05  0.544E-03    1.38       4.7  T
   5    -23.1066873 -0.316153E-06  0.165E-03    1.38      15.7  T
   6    -23.1066874 -0.886514E-08  0.807E-04    1.38      32.0  T
   7    -23.1066874 -0.345871E-08  0.423E-04    1.38      61.0  T
     SCC iter.                  ...        0 min,  0.002 sec
     gradient                   ...        0 min,  0.002 sec
 * total energy  :   -22.7633704 Eh     change       -0.1806390E-03 Eh
   gradient norm :     0.0048313 Eh/α   predicted    -0.1176630E-03 ( -34.86%)
   displ. norm   :     0.1344276 α      lambda       -0.1821354E-03
   maximum displ.:     0.1243984 α      in ANC's #1, #2, #8, ...

........................................................................
.............................. CYCLE    5 ..............................
........................................................................

 iter      E             dE          RMSdq      gap      omega  full diag
   1    -23.1067071 -0.231067E+02  0.880E-02    1.39       0.0  T
   2    -23.1067333 -0.261422E-04  0.541E-02    1.46       1.0  T
   3    -23.1067387 -0.542582E-05  0.303E-02    1.44       1.0  T
   4    -23.1067409 -0.223914E-05  0.737E-03    1.45       3.5  T
   5    -23.1067416 -0.642270E-06  0.202E-03    1.45      12.8  T
   6    -23.1067416 -0.752874E-08  0.102E-03    1.45      25.2  T
   7    -23.1067416 -0.613403E-08  0.449E-04    1.45      57.5  T
   8    -23.1067416 -0.474685E-09  0.115E-04    1.45     225.2  T
     SCC iter.                  ...        0 min,  0.003 sec
     gradient                   ...        0 min,  0.002 sec
 * total energy  :   -22.7635060 Eh     change       -0.1355908E-03 Eh
   gradient norm :     0.0034645 Eh/α   predicted    -0.9271372E-04 ( -31.62%)
   displ. norm   :     0.1236056 α      lambda       -0.9943727E-04
   maximum displ.:     0.1106672 α      in ANC's #1, #2, #8, ...

........................................................................
.............................. CYCLE    6 ..............................
........................................................................

 iter      E             dE          RMSdq      gap      omega  full diag
   1    -23.1068170 -0.231068E+02  0.768E-02    1.46       0.0  T
   2    -23.1068360 -0.190345E-04  0.464E-02    1.52       1.0  T
   3    -23.1068398 -0.378308E-05  0.264E-02    1.50       1.0  T
   4    -23.1068416 -0.179734E-05  0.618E-03    1.51       4.2  T
   5    -23.1068420 -0.409763E-06  0.200E-03    1.51      12.9  T
   6    -23.1068420 -0.249123E-08  0.975E-04    1.51      26.5  T
   7    -23.1068420 -0.654693E-08  0.301E-04    1.51      85.7  T
     SCC iter.                  ...        0 min,  0.002 sec
     gradient                   ...        0 min,  0.002 sec
 * total energy  :   -22.7635753 Eh     change       -0.6929090E-04 Eh
   gradient norm :     0.0033317 Eh/α   predicted    -0.5047805E-04 ( -27.15%)
   displ. norm   :     0.0935442 α      lambda       -0.4661996E-04
   maximum displ.:     0.0795379 α      in ANC's #1, #2, #8, ...

........................................................................
.............................. CYCLE    7 ..............................
........................................................................

 iter      E             dE          RMSdq      gap      omega  full diag
   1    -23.1072587 -0.231073E+02  0.577E-02    1.52       0.0  T
   2    -23.1072667 -0.803138E-05  0.347E-02    1.55       1.0  T
   3    -23.1072679 -0.111041E-05  0.197E-02    1.54       1.3  T
   4    -23.1072693 -0.144808E-05  0.410E-03    1.55       6.3  T
   5    -23.1072695 -0.163587E-06  0.154E-03    1.55      16.8  T
   6    -23.1072695 -0.632969E-09  0.665E-04    1.55      38.8  T
   7    -23.1072695 -0.400278E-08  0.167E-04    1.55     154.9  T
     SCC iter.                  ...        0 min,  0.002 sec
     gradient                   ...        0 min,  0.002 sec
 * total energy  :   -22.7636059 Eh     change       -0.3065161E-04 Eh
   gradient norm :     0.0025309 Eh/α   predicted    -0.2351379E-04 ( -23.29%)
   displ. norm   :     0.0428197 α      lambda       -0.1791241E-04
   maximum displ.:     0.0281721 α      in ANC's #2, #1, #3, ...

........................................................................
.............................. CYCLE    8 ..............................
........................................................................

 iter      E             dE          RMSdq      gap      omega  full diag
   1    -23.1076820 -0.231077E+02  0.278E-02    1.55       0.0  T
   2    -23.1076829 -0.895403E-06  0.165E-02    1.56       1.6  T
   3    -23.1076827  0.204799E-06  0.881E-03    1.55       2.9  T
   4    -23.1076832 -0.535385E-06  0.156E-03    1.56      16.5  T
   5    -23.1076832 -0.129667E-07  0.738E-04    1.56      35.0  T
   6    -23.1076832 -0.110080E-08  0.239E-04    1.56     108.1  T
     SCC iter.                  ...        0 min,  0.002 sec
     gradient                   ...        0 min,  0.002 sec
 * total energy  :   -22.7636183 Eh     change       -0.1239056E-04 Eh
   gradient norm :     0.0014236 Eh/α   predicted    -0.8970984E-05 ( -27.60%)
   displ. norm   :     0.0430791 α      lambda       -0.9135427E-05
   maximum displ.:     0.0396820 α      in ANC's #2, #3, #5, ...

........................................................................
.............................. CYCLE    9 ..............................
........................................................................

 iter      E             dE          RMSdq      gap      omega  full diag
   1    -23.1080062 -0.231080E+02  0.284E-02    1.56       0.0  T
   2    -23.1080069 -0.708353E-06  0.166E-02    1.55       1.6  T
   3    -23.1080066  0.381680E-06  0.902E-03    1.56       2.9  T
   4    -23.1080073 -0.703761E-06  0.154E-03    1.56      16.8  T
   5    -23.1080073 -0.101734E-07  0.630E-04    1.56      41.0  T
   6    -23.1080073 -0.166288E-08  0.201E-04    1.56     128.5  T
     SCC iter.                  ...        0 min,  0.002 sec
     gradient                   ...        0 min,  0.002 sec
 * total energy  :   -22.7636254 Eh     change       -0.7130348E-05 Eh
   gradient norm :     0.0008737 Eh/α   predicted    -0.4570496E-05 ( -35.90%)
   displ. norm   :     0.0225180 α      lambda       -0.2846854E-05
   maximum displ.:     0.0159404 α      in ANC's #1, #2, #3, ...

........................................................................
.............................. CYCLE   10 ..............................
........................................................................

 iter      E             dE          RMSdq      gap      omega  full diag
   1    -23.1078755 -0.231079E+02  0.120E-02    1.55       0.0  T
   2    -23.1078758 -0.363684E-06  0.731E-03    1.55       3.5  T
   3    -23.1078759 -0.633683E-07  0.419E-03    1.55       6.2  T
   4    -23.1078760 -0.585067E-07  0.783E-04    1.55      33.0  T
   5    -23.1078760 -0.584485E-08  0.300E-04    1.55      86.1  T
     SCC iter.                  ...        0 min,  0.002 sec
     gradient                   ...        0 min,  0.002 sec
 * total energy  :   -22.7636288 Eh     change       -0.3403960E-05 Eh
   gradient norm :     0.0007081 Eh/α   predicted    -0.1424916E-05 ( -58.14%)
   displ. norm   :     0.0263012 α      lambda       -0.2568559E-05
   maximum displ.:     0.0194950 α      in ANC's #2, #1, #3, ...

   *** GEOMETRY OPTIMIZATION CONVERGED AFTER 10 ITERATIONS ***

------------------------------------------------------------------------
 total energy gain   :        -0.0060036 Eh       -3.7673 kcal/mol
 total RMSD          :         0.2405537 a0        0.1273 Å
 total power (kW/mol):        -1.5762467 (step) -196.4514 (real)
------------------------------------------------------------------------

 ANCopt (total)                0 d,  0 h,  0 min,  0.080 sec
 optimizer setup                ...        0 min,  0.000 sec (  0.209%)
 model hessian                  ...        0 min,  0.003 sec (  3.463%)
 ANC generation                 ...        0 min,  0.000 sec (  0.466%)
 coordinate transformation      ...        0 min,  0.000 sec (  0.100%)
 single point calculation       ...        0 min,  0.054 sec ( 66.924%)
 optimization log               ...        0 min,  0.021 sec ( 26.280%)
 hessian update                 ...        0 min,  0.000 sec (  0.120%)
 rational function              ...        0 min,  0.002 sec (  1.883%)

================
 final structure:
================
15
 xtb: 6.7.1 (edcfbbe)
C           -4.20803080108038       -4.17033584044503       -3.21424819918928
C           -2.90158977883558       -4.61540914407284       -3.23894907681122
H           -3.80242301678276       -1.38813381479596       -1.35915584739810
C           -4.56666320449470       -3.00256871173019       -2.53644847998337
H           -4.97786793302286       -4.72949371407885       -3.73120855437513
C           -1.90656611577954       -3.90775283326161       -2.58050058607572
H           -2.64988604698620       -5.53136459362343       -3.76440614056911
C           -2.24231540499878       -2.74156373625684       -1.90763965306650
H           -0.88172553886428       -4.26144089947292       -2.59019965177567
C           -3.54964602533041       -2.29990090245199       -1.88552909570795
H           -1.47152037481543       -2.18312811324877       -1.38572800268275
C           -5.93839263518720       -2.38242507981446       -2.72584023384934
H           -6.70684018244505       -3.21986524884660       -2.80253749824375
H           -6.21903717651870       -1.82519544932338       -1.77142392832955
O           -5.84777876485813       -1.61969291857712       -3.80135905194256
 
 Bond Distances (Angstroems)
 ---------------------------
C1-C2=1.3804         C1-C4=1.3970         C1-H5=1.0828         C2-C1=1.3804         C2-C6=1.3872         C2-H7=1.0856         
H3-C10=1.0827        C4-C1=1.3970         C4-C10=1.3971        C4-C12=1.5173        H5-C1=1.0828         C6-C2=1.3872         
C6-C8=1.3876         C6-H9=1.0842         H7-C2=1.0856         C8-C6=1.3876         C8-C10=1.3801        C8-H11=1.0855        
H9-C6=1.0842         C10-H3=1.0827        C10-C4=1.3971        C10-C8=1.3801        H11-C8=1.0855        C12-C4=1.5173        
C12-H13=1.1392       C12-H14=1.1403       C12-O15=1.3216       H13-C12=1.1392       H14-C12=1.1403       O15-C12=1.3216       
 C  H  Rav=1.1000 sigma=0.0251  Rmin=1.0827  Rmax=1.1403     7
 C  C  Rav=1.4067 sigma=0.0456  Rmin=1.3801  Rmax=1.5173     7
 O  C  Rav=1.3216 sigma=0.0000  Rmin=1.3216  Rmax=1.3216     1
 
 selected bond angles (degree)
 --------------------
C4-C1-C2=121.41                H5-C1-C2=119.86                H5-C1-C4=118.73                C6-C2-C1=120.39                
H7-C2-C1=120.01                H7-C2-C6=119.59                C10-C4-C1=117.36               C12-C4-C1=120.88               
C12-C4-C10=120.71              C8-C6-C2=119.03                H9-C6-C2=120.49                H9-C6-C8=120.48                
C10-C8-C6=120.39               H11-C8-C6=119.58               H11-C8-C10=120.02              C4-C10-H3=118.69               
C8-C10-H3=119.90               C8-C10-C4=121.41               
 
 selected dihedral angles (degree)
 ---------------------------------
C6-C2-C1-C4=  0.22            C6-C2-C1-H5=180.00            H7-C2-C1-C4=179.39            H7-C2-C1-H5=359.17            
C10-C4-C1-C2=  0.12           C10-C4-C1-H5=180.34           C12-C4-C1-C2=168.48           C12-C4-C1-H5=348.70           
C8-C6-C2-C1=359.45            C8-C6-C2-H7=180.28            H9-C6-C2-C1=179.36            H9-C6-C2-H7=  0.19            
C10-C8-C6-C2=  0.54           C10-C8-C6-H9=180.63           H11-C8-C6-C2=179.73           H11-C8-C6-H9=359.82           
H3-C10-C4-C1=179.59           H3-C10-C4-C12= 11.21          C8-C10-C4-C1=359.87           C8-C10-C4-C12=191.49          
H3-C10-C8-C6=180.08           H3-C10-C8-H11=  0.90          C4-C10-C8-C6=359.80           C4-C10-C8-H11=180.61          
           -------------------------------------------------
          |                Final Singlepoint                |
           -------------------------------------------------

          ...................................................
          :                      SETUP                      :
          :.................................................:
          :  # basis functions                  39          :
          :  # atomic orbitals                  39          :
          :  # shells                           23          :
          :  # electrons                        42          :
          :  max. iterations                   250          :
          :  Hamiltonian                  GFN2-xTB          :
          :  restarted?                      false          :
          :  GBSA solvation                  false          :
          :  PC potential                    false          :
          :  electronic temp.          300.0000000     K    :
          :  accuracy                    1.0000000          :
          :  -> integral cutoff          0.2500000E+02      :
          :  -> integral neglect         0.1000000E-07      :
          :  -> SCF convergence          0.1000000E-05 Eh   :
          :  -> wf. convergence          0.1000000E-03 e    :
          :  Broyden damping             0.4000000          :
          :  net charge                         -1          :
          :  unpaired electrons                  0          :
          ...................................................

 iter      E             dE          RMSdq      gap      omega  full diag
   1    -23.1078760 -0.231079E+02  0.114E-04    1.55       0.0  T
   2    -23.1078760 -0.672919E-10  0.689E-05    1.55     374.7  T
   3    -23.1078760 -0.449347E-10  0.343E-05    1.55     753.2  T

   *** convergence criteria satisfied after 3 iterations ***

         #    Occupation            Energy/Eh            Energy/eV
      -------------------------------------------------------------
         1        2.0000           -0.4871785             -13.2568
       ...           ...                  ...                  ...
        15        2.0000           -0.2774228              -7.5491
        16        2.0000           -0.2642687              -7.1911
        17        2.0000           -0.2532262              -6.8906
        18        2.0000           -0.2491124              -6.7787
        19        2.0000           -0.2272920              -6.1849
        20        2.0000           -0.1239588              -3.3731
        21        2.0000           -0.1231814              -3.3519 (HOMO)
        22                         -0.0662743              -1.8034 (LUMO)
        23                         -0.0604697              -1.6455
        24                          0.0641313               1.7451
        25                          0.2544150               6.9230
        26                          0.2643034               7.1921
       ...                                ...                  ...
        39                          0.8071911              21.9648
      -------------------------------------------------------------
                  HL-Gap            0.0569071 Eh            1.5485 eV
             Fermi-level           -0.0945594 Eh           -2.5731 eV

 SCC (total)                   0 d,  0 h,  0 min,  0.004 sec
 SCC setup                      ...        0 min,  0.000 sec (  1.906%)
 Dispersion                     ...        0 min,  0.000 sec (  1.525%)
 classical contributions        ...        0 min,  0.000 sec (  0.333%)
 integral evaluation            ...        0 min,  0.001 sec ( 20.478%)
 iterations                     ...        0 min,  0.001 sec ( 25.451%)
 molecular gradient             ...        0 min,  0.002 sec ( 47.804%)
 printout                       ...        0 min,  0.000 sec (  1.881%)

         :::::::::::::::::::::::::::::::::::::::::::::::::::::
         ::                     SUMMARY                     ::
         :::::::::::::::::::::::::::::::::::::::::::::::::::::
         :: total energy             -22.763628833300 Eh    ::
         :: gradient norm              0.000708669189 Eh/a0 ::
         :: HOMO-LUMO gap              1.548522337630 eV    ::
         ::.................................................::
         :: SCC energy               -23.107853129550 Eh    ::
         :: -> isotropic ES            0.172979961269 Eh    ::
         :: -> anisotropic ES          0.010612648063 Eh    ::
         :: -> anisotropic XC          0.006086241420 Eh    ::
         :: -> dispersion             -0.012885015422 Eh    ::
         :: repulsion energy           0.344224296250 Eh    ::
         :: add. restraining           0.000000000000 Eh    ::
         :: total charge              -1.000000000000 e     ::
         :::::::::::::::::::::::::::::::::::::::::::::::::::::

           ------------------------------------------------- 
          |                Numerical Hessian                |
           ------------------------------------------------- 
step length          :   0.00500
SCC accuracy         :   0.30000
Hessian scale factor :   1.00000
frozen atoms in %    :   0.00000    0
RMS gradient         :   0.00071
estimated CPU  time      0.02 min
estimated wall time      0.01 min

writing file <hessian>.

 projected vibrational frequencies (cm⁻¹)
eigval :       -0.00    -0.00    -0.00    -0.00     0.00     0.00
eigval :       85.55   119.09   272.32   312.25   355.59   462.81
eigval :      532.06   589.45   653.78   738.65   794.31   858.11
eigval :      862.16   911.48   912.01   976.32   994.40  1078.99
eigval :     1121.04  1128.33  1182.53  1197.43  1213.16  1222.20
eigval :     1293.70  1335.67  1344.23  1440.10  1466.66  1507.61
eigval :     1558.45  1590.32  2262.38  2423.06  2997.31  3000.44
eigval :     3024.02  3044.82  3049.53
           -------------------------------------------------
          |                Property Printout                |
           -------------------------------------------------

    * Orbital Energies and Occupations

         #    Occupation            Energy/Eh            Energy/eV
      -------------------------------------------------------------
         1        2.0000           -0.4871783             -13.2568
       ...           ...                  ...                  ...
         9        2.0000           -0.3450852              -9.3902
        10        2.0000           -0.3378994              -9.1947
        11        2.0000           -0.3284653              -8.9380
        12        2.0000           -0.3207511              -8.7281
        13        2.0000           -0.3104074              -8.4466
        14        2.0000           -0.2877977              -7.8314
        15        2.0000           -0.2774228              -7.5491
        16        2.0000           -0.2642688              -7.1911
        17        2.0000           -0.2532263              -6.8906
        18        2.0000           -0.2491123              -6.7787
        19        2.0000           -0.2272920              -6.1849
        20        2.0000           -0.1239588              -3.3731
        21        2.0000           -0.1231815              -3.3519 (HOMO)
        22                         -0.0662742              -1.8034 (LUMO)
        23                         -0.0604696              -1.6455
        24                          0.0641313               1.7451
        25                          0.2544151               6.9230
        26                          0.2643034               7.1921
        27                          0.2896071               7.8806
        28                          0.3136198               8.5340
        29                          0.3200877               8.7100
        30                          0.3394631               9.2373
        31                          0.3520761               9.5805
        32                          0.3596764               9.7873
       ...                                ...                  ...
        39                          0.8071912              21.9648
      -------------------------------------------------------------
                  HL-Gap            0.0569073 Eh            1.5485 eV
             Fermi-level           -0.0945594 Eh           -2.5731 eV

     #   Z          covCN         q      C6AA      α(0)
     1   6 C        2.924    -0.037    28.910     8.818
     2   6 C        2.917    -0.043    29.067     8.841
     3   1 H        0.925     0.006     2.959     2.690
     4   6 C        2.966     0.001    27.998     8.679
     5   1 H        0.925     0.005     2.976     2.698
     6   6 C        2.918    -0.057    29.426     8.895
     7   1 H        0.925    -0.015     3.339     2.857
     8   6 C        2.917    -0.043    29.070     8.841
     9   1 H        0.925    -0.020     3.423     2.893
    10   6 C        2.924    -0.036    28.888     8.814
    11   1 H        0.925    -0.015     3.336     2.856
    12   6 C        3.665     0.181    17.945     6.076
    13   1 H        0.915    -0.104     5.705     3.736
    14   1 H        0.915    -0.105     5.731     3.744
    15   8 O        0.860    -0.718    29.215     7.247

 Mol. C6AA /au·bohr⁶  :       3082.515395
 Mol. C8AA /au·bohr⁸  :      71706.423739
 Mol. α(0) /au        :         87.686634


Wiberg/Mayer (AO) data.
largest (>0.10) Wiberg bond orders for each atom

 ---------------------------------------------------------------------------
     #   Z sym  total        # sym  WBO       # sym  WBO       # sym  WBO
 ---------------------------------------------------------------------------
     1   6 C    3.991 --     2 C    1.467     4 C    1.367     5 H    0.970
     2   6 C    3.990 --     1 C    1.467     6 C    1.416     7 H    0.971
     3   1 H    1.000 --    10 C    0.970
     4   6 C    3.944 --     1 C    1.367    10 C    1.366    12 C    0.951
                            15 O    0.132
     5   1 H    1.000 --     1 C    0.970
     6   6 C    3.985 --     2 C    1.416     8 C    1.414     9 H    0.972
     7   1 H    0.999 --     2 C    0.971
     8   6 C    3.990 --    10 C    1.468     6 C    1.414    11 H    0.971
     9   1 H    0.999 --     6 C    0.972
    10   6 C    3.991 --     8 C    1.468     4 C    1.366     3 H    0.970
    11   1 H    0.999 --     8 C    0.971
    12   6 C    3.982 --    15 O    1.146     4 C    0.951    13 H    0.925
                            14 H    0.925
    13   1 H    0.989 --    12 C    0.925
    14   1 H    0.989 --    12 C    0.925
    15   8 O    1.518 --    12 C    1.146     4 C    0.132
 ---------------------------------------------------------------------------

Topologies differ in total number of bonds
Writing topology from bond orders to xtbtopo.mol

molecular dipole:
                 x           y           z       tot (Debye)
 q only:        9.663       4.159       6.367
   full:        9.736       3.975       6.577      31.527
molecular quadrupole (traceless):
                xx          xy          yy          xz          yz          zz
 q only:      -70.461     -53.901      51.231     -95.584     -37.996      19.229
  q+dip:      -68.826     -51.726      54.938     -99.085     -33.747      13.888
   full:      -70.004     -51.509      54.726     -99.543     -35.639      15.278

           -------------------------------------------------
          |                Geometry Summary                 |
           -------------------------------------------------

      molecular mass/u    :      107.1301415
   center of mass at/Å    :       -3.9626137      -3.0516388      -2.7594885
  moments of inertia/u·Å² :        0.1076914E+03   0.3168559E+03   0.3862781E+03
rotational constants/cm⁻¹ :        0.1565365E+00   0.5320284E-01   0.4364118E-01

 * 13 selected distances

     #   Z          #   Z                                           value/Å
     1   6 C        2   6 C                                       1.3803945
     1   6 C        4   6 C                                       1.3970362
     1   6 C        5   1 H                                       1.0828458
     2   6 C        6   6 C                                       1.3872290
     2   6 C        7   1 H                                       1.0855572
     6   6 C        8   6 C                                       1.3876119
     6   6 C        9   1 H                                       1.0841991
     3   1 H       10   6 C                                       1.0827209 (min)
     4   6 C       10   6 C                                       1.3970549 (max)
     8   6 C       10   6 C                                       1.3800973
     8   6 C       11   1 H                                       1.0855263
    12   6 C       13   1 H                                       1.1391665
    12   6 C       14   1 H                                       1.1402530

 * 2 distinct bonds (by element types)

   Z      Z             #   av. dist./Å        max./Å        min./Å
   1 H    6 C           7     1.1000384     1.1402530     1.0827209
   6 C    6 C           6     1.3882373     1.3970549     1.3800973

           -------------------------------------------------
          |               Frequency Printout                |
           -------------------------------------------------
 projected vibrational frequencies (cm⁻¹)
eigval :       -0.00    -0.00    -0.00    -0.00     0.00     0.00
eigval :       85.55   119.09   272.32   312.25   355.59   462.81
eigval :      532.06   589.45   653.78   738.65   794.31   858.11
eigval :      862.16   911.48   912.01   976.32   994.40  1078.99
eigval :     1121.04  1128.33  1182.53  1197.43  1213.16  1222.20
eigval :     1293.70  1335.67  1344.23  1440.10  1466.66  1507.61
eigval :     1558.45  1590.32  2262.38  2423.06  2997.31  3000.44
eigval :     3024.02  3044.82  3049.53
 reduced masses (amu)
   1: 12.92   2: 11.83   3: 12.02   4: 10.57   5: 11.30   6: 10.79   7: 11.61   8: 12.77
   9: 11.86  10:  7.67  11:  8.90  12: 10.06  13: 10.41  14: 11.16  15:  9.60  16:  5.19
  17:  9.88  18:  4.41  19:  3.37  20:  2.41  21:  4.10  22: 10.94  23:  5.42  24:  7.25
  25:  4.08  26: 12.58  27:  1.37  28:  4.20  29:  8.35  30:  2.67  31:  3.47  32:  3.08
  33: 11.50  34:  8.68  35:  8.29  36:  1.90  37: 11.28  38: 11.35  39:  1.81  40:  1.30
  41:  1.73  42:  1.80  43:  1.86  44:  1.83  45:  1.85
 IR intensities (km·mol⁻¹)
   1: 16.18   2:  7.88   3: 10.30   4:  5.40   5:  3.27   6:  2.10   7:  8.34   8: 40.91
   9: 63.20  10:  0.12  11:  0.09  12:  0.24  13: 56.07  14:  0.26  15:  9.73  16:  7.68
  17: 41.13  18:  3.40  19:  0.71  20:  0.32  21:  0.26  22:  7.40  23: 17.40  24:  2.29
  25:  3.58  26:199.37  27:  0.07  28: 43.62  29: 27.71  30:  4.05  31:  0.16  32: 31.48
  33:  9.68  34:  1.23  35: 13.98  36:126.55  37:  0.35  38: 94.17  39:421.56  40:636.75
  41:  6.64  42:148.16  43:233.73  44:162.23  45:  6.07
 Raman intensities (Ä⁴*amu⁻¹)
   1:  0.00   2:  0.00   3:  0.00   4:  0.00   5:  0.00   6:  0.00   7:  0.00   8:  0.00
   9:  0.00  10:  0.00  11:  0.00  12:  0.00  13:  0.00  14:  0.00  15:  0.00  16:  0.00
  17:  0.00  18:  0.00  19:  0.00  20:  0.00  21:  0.00  22:  0.00  23:  0.00  24:  0.00
  25:  0.00  26:  0.00  27:  0.00  28:  0.00  29:  0.00  30:  0.00  31:  0.00  32:  0.00
  33:  0.00  34:  0.00  35:  0.00  36:  0.00  37:  0.00  38:  0.00  39:  0.00  40:  0.00
  41:  0.00  42:  0.00  43:  0.00  44:  0.00  45:  0.00
 output can be read by thermo (or use thermo option).
 writing <g98.out> molden fake output.
 recommended (thermochemical) frequency scaling factor: 1.0
           -------------------------------------------------
          |             Thermodynamic Functions             |
           -------------------------------------------------

Refinement of some symmetry elements was terminated before convergence was reached.
Some symmetry elements may remain unidentified.
Molecule has the following symmetry elements: (sigma) 
It seems to be the Cs point group
cs  symmetry found (for desy threshold:  0.10E+00) used in thermo

          ...................................................
          :                      SETUP                      :
          :.................................................:
          :  # frequencies                          39      :
          :  # imaginary freq.                       0      :
          :  linear?                             false      :
          :  only rotor calc.                    false      :
          :  symmetry                               cs      :
          :  rotational number                       1      :
          :  scaling factor                  1.0000000      :
          :  rotor cutoff                   50.0000000 cm⁻¹ :
          :  imag. cutoff                  -20.0000000 cm⁻¹ :
          :.................................................:

    mode    ω/cm⁻¹     T·S(HO)/kcal·mol⁻¹    T·S(FR)/kcal·mol⁻¹   T·S(vib)
   ------------------------------------------------------------------------
       1     85.55    -1.12082 ( 89.55%)    -0.89722 ( 10.45%)    -1.09746
       2    119.09    -0.92875 ( 96.99%)    -0.79930 (  3.01%)    -0.92485
       3    272.32    -0.47151 ( 99.89%)    -0.55437 (  0.11%)    -0.47160
   ------------------------------------------------------------------------

   temp. (K)  partition function   enthalpy   heat capacity  entropy
                                   cal/mol     cal/K/mol   cal/K/mol   J/K/mol
 298.15  VIB   22.9                 2578.289     19.884     14.776
         ROT  0.277E+06              888.752      2.981     27.887
         INT  0.634E+07             3467.041     22.865     42.663
         TR   0.107E+28             1481.254      4.968     39.905
         TOT                        4948.2952    27.8330    82.5681   345.4649

       T/K    H(0)-H(T)+PV         H(T)/Eh          T*S/Eh         G(T)/Eh
   ------------------------------------------------------------------------
    298.15    0.788561E-02    0.121594E+00    0.392308E-01    0.823636E-01
   ------------------------------------------------------------------------

         :::::::::::::::::::::::::::::::::::::::::::::::::::::
         ::                  THERMODYNAMIC                  ::
         :::::::::::::::::::::::::::::::::::::::::::::::::::::
         :: total free energy         -22.681265265450 Eh   ::
         ::.................................................::
         :: total energy              -22.763628833301 Eh   ::
         :: zero point energy           0.113708728204 Eh   ::
         :: G(RRHO) w/o ZPVE           -0.031345160352 Eh   ::
         :: G(RRHO) contrib.            0.082363567852 Eh   ::
         :::::::::::::::::::::::::::::::::::::::::::::::::::::

optimized geometry written to: xtbopt.xyz


           -------------------------------------------------
          | TOTAL ENERGY              -22.763628833301 Eh   |
          | TOTAL ENTHALPY            -22.642034494788 Eh   |
          | TOTAL FREE ENERGY         -22.681265265450 Eh   |
          | GRADIENT NORM               0.000708797948 Eh/α |
          | HOMO-LUMO GAP               1.548525122416 eV   |
           -------------------------------------------------
########################################################################
[WARNING] Runtime exception occurred
-2- restart_readRestart: Dimension missmatch in restart file.
-1- restart_readRestart: Number of electron missmatch in restart file.
########################################################################

------------------------------------------------------------------------
 * finished run on 2025/10/18 at 01:12:34.390     
------------------------------------------------------------------------
 total:
 * wall-time:     0 d,  0 h,  0 min,  0.835 sec
 *  cpu-time:     0 d,  0 h,  0 min,  1.167 sec
 * ratio c/w:     1.397 speedup
 SCF:
 * wall-time:     0 d,  0 h,  0 min,  0.035 sec
 *  cpu-time:     0 d,  0 h,  0 min,  0.050 sec
 * ratio c/w:     1.422 speedup
 ANC optimizer:
 * wall-time:     0 d,  0 h,  0 min,  0.124 sec
 *  cpu-time:     0 d,  0 h,  0 min,  0.189 sec
 * ratio c/w:     1.527 speedup
 analytical hessian:
 * wall-time:     0 d,  0 h,  0 min,  0.395 sec
 *  cpu-time:     0 d,  0 h,  0 min,  0.703 sec
 * ratio c/w:     1.777 speedup

