15
 energy: -22.763628833300 gnorm: 0.000708669189 xtb: 6.7.1 (edcfbbe)
C           -4.20806385667123       -4.17031941704642       -3.21422623175716
C           -2.90162525107051       -4.61539960428736       -3.23893089291893
H           -3.80243502931201       -1.38811627748408       -1.35914015167696
C           -4.56668777969763       -3.00254922758320       -2.53642729883130
H           -4.97790572087563       -4.72947416207051       -3.73118292378596
C           -1.90659558433387       -3.90774735422125       -2.58048711056951
H           -2.64992814934802       -5.53135728882764       -3.76438723664075
C           -2.24233641866784       -2.74155532490350       -1.90762704096325
H           -0.88175689319935       -4.26144080340777       -2.59018913633573
C           -3.54966464925448       -2.29988560734845       -1.88551269100719
H           -1.47153664272096       -2.18312282687914       -1.38571905581973
C           -5.93841462440595       -2.38239874386592       -2.72581534681164
H           -6.70686682419462       -3.21983502316393       -2.80250846720869
H           -6.21905291653766       -1.82516597817870       -1.77139903421404
O           -5.84780051470580       -1.61966893420812       -3.80133581241751
