15
 energy: -22.757625227426 gnorm: 0.052038881598 xtb: 6.7.1 (edcfbbe)
C           -4.20105400000000       -4.13483700000000       -3.29009200000000
C           -2.90344500000000       -4.64563800000000       -3.21575200000000
H           -3.77601000000000       -1.28267900000000       -1.50020800000000
C           -4.53224500000000       -2.92677900000000       -2.65798500000000
H           -4.96791100000000       -4.66016100000000       -3.85250200000000
C           -1.91917600000000       -3.95136300000000       -2.51311000000000
H           -2.66576800000000       -5.57804900000000       -3.71650800000000
C           -2.23024600000000       -2.74269600000000       -1.89070600000000
H           -0.90879600000000       -4.34322400000000       -2.46317400000000
C           -3.52853100000000       -2.23415600000000       -1.96375100000000
H           -1.46676800000000       -2.18641500000000       -1.35806500000000
C           -5.96132800000000       -2.38022300000000       -2.71690400000000
H           -6.61242100000000       -3.26971300000000       -2.74711600000000
H           -6.17155400000000       -2.02841300000000       -1.69298800000000
O           -6.02503000000000       -1.51392500000000       -3.71631300000000
15
 energy: -22.762475391592 gnorm: 0.016433704366 xtb: 6.7.1 (edcfbbe)
C           -4.19126389784263       -4.13701051335944       -3.27628961363804
C           -2.89497792086546       -4.62444882104639       -3.23614563352414
H           -3.77738024228552       -1.31466280011880       -1.47842439974242
C           -4.53996992508603       -2.96068129098217       -2.60919041661029
H           -4.95912263893864       -4.67520958011261       -3.81834517330677
C           -1.91484225213535       -3.93840266607645       -2.53422053724398
H           -2.65847102476359       -5.56731153297579       -3.71773997625265
C           -2.22970557102006       -2.73445916685289       -1.91948415501423
H           -0.91023240864901       -4.34173970002356       -2.46334813093904
C           -3.52695604321514       -2.25120295469106       -1.96112133429882
H           -1.46978685818213       -2.19167428683281       -1.36768251621354
C           -5.95562735354430       -2.38555156602746       -2.70989762583054
H           -6.65070658247829       -3.27109159064986       -2.79761591479183
H           -6.19299532870269       -1.95749584312359       -1.69077002094111
O           -5.99824495229114       -1.52732868712713       -3.71489855165260
15
 energy: -22.763189735899 gnorm: 0.006320876578 xtb: 6.7.1 (edcfbbe)
C           -4.19314257351370       -4.15011811980555       -3.25106164291700
C           -2.89547603037752       -4.62482576477813       -3.22997628700893
H           -3.78197200936299       -1.33862879480847       -1.44996665939536
C           -4.54703111938901       -2.98010125232437       -2.58041434889610
H           -4.95947524195940       -4.69449182147270       -3.78760057278199
C           -1.91021826641262       -3.93354457046850       -2.54329500989635
H           -2.64817851755257       -5.55111699404813       -3.73803200152244
C           -2.23414289976384       -2.74060527741850       -1.91458100465525
H           -0.89785983351873       -4.31983877400819       -2.49955364061744
C           -3.53271117278114       -2.27087528932795       -1.93897418000423
H           -1.46552836692486       -2.18433245667106       -1.38861358608494
C           -5.94852970001682       -2.38338972426652       -2.71561450588292
H           -6.67984519521089       -3.25401331401897       -2.82152353290136
H           -6.21751445124117       -1.91411729570084       -1.70644055551166
O           -5.95865762197472       -1.53827155088212       -3.72952647192404
15
 energy: -22.763370374946 gnorm: 0.004831856288 xtb: 6.7.1 (edcfbbe)
C           -4.19790776410998       -4.15729874389303       -3.23859898357036
C           -2.89678359566978       -4.62280590811319       -3.23160900256652
H           -3.78839580668821       -1.35198478877532       -1.42629687171428
C           -4.55341879208183       -2.98745568516221       -2.56777039430262
H           -4.96514411845417       -4.70886575304355       -3.76738798610063
C           -1.90743055811068       -3.92618274859040       -2.55500468413621
H           -2.64722972851689       -5.54696174427631       -3.74334822041913
C           -2.23651529779148       -2.74003555284545       -1.91471187627970
H           -0.89153154323650       -4.30486297078469       -2.52340853110421
C           -3.53821549633684       -2.27903744297854       -1.92557534936131
H           -1.46645304029974       -2.18291612021450       -1.39081546093431
C           -5.94469112148817       -2.38087894252335       -2.72126602621442
H           -6.68710962658670       -3.24575415628671       -2.82834990519086
H           -6.22131009965709       -1.89606642833585       -1.71759876425727
O           -5.92814641097194       -1.54716401417690       -3.74343194384817
15
 energy: -22.763505965762 gnorm: 0.003464914343 xtb: 6.7.1 (edcfbbe)
C           -4.20235764947516       -4.16295755669060       -3.22910336405103
C           -2.89911166236600       -4.62104634648147       -3.23295859082004
H           -3.79408478573945       -1.36453239550746       -1.40260450401756
C           -4.55909691896677       -2.99190146037826       -2.55914221336683
H           -4.97024676269946       -4.72177143029259       -3.74995471862252
C           -1.90666031951785       -3.91905166494735       -2.56534814988372
H           -2.64846266395345       -5.54401447138075       -3.74678530889492
C           -2.23949459286821       -2.73961964832644       -1.91340561397490
H           -0.88659074947396       -4.28765444018035       -2.54995154183849
C           -3.54318609002566       -2.28576803226889       -1.91309160124649
H           -1.46890538366780       -2.18256744044765       -1.38962680967543
C           -5.94084487536144       -2.37932816104156       -2.72568619932864
H           -6.69245209738263       -3.23690746715738       -2.82844818706925
H           -6.22320919411953       -1.87954783699899       -1.73059599674944
O           -5.89557925438263       -1.56160264790026       -3.75847120046073
15
 energy: -22.763575256664 gnorm: 0.003332109010 xtb: 6.7.1 (edcfbbe)
C           -4.20601044543559       -4.16821337381036       -3.21999942803511
C           -2.90057910549834       -4.61925780499880       -3.23470600292642
H           -3.79856146694215       -1.37552326753053       -1.38263558114241
C           -4.56397179609399       -2.99705375798387       -2.54896990767247
H           -4.97406902604806       -4.73006984746304       -3.73698467651830
C           -1.90625863921726       -3.91282452843321       -2.57419826179398
H           -2.64936744329683       -5.54043848953943       -3.75158495867025
C           -2.24125757781717       -2.73948862900477       -1.91212685728691
H           -0.88317369753482       -4.27283645842223       -2.57264633722903
C           -3.54708431249099       -2.29248953912574       -1.90049648726140
H           -1.47042577141137       -2.18193282651414       -1.38911142902842
C           -5.93852496599485       -2.37901676752138       -2.72799105334573
H           -6.69888604148909       -3.22781936788834       -2.82527518131400
H           -6.22631689547971       -1.86230516632555       -1.74462012012057
O           -5.86579581524977       -1.57900117543863       -3.77382771765497
15
 energy: -22.763605908278 gnorm: 0.002531199746 xtb: 6.7.1 (edcfbbe)
C           -4.20823762924805       -4.17144941704541       -3.21387398957944
C           -2.90170941785528       -4.61781268989108       -3.23590608877502
H           -3.80193468100807       -1.38416291933996       -1.36712681008286
C           -4.56680525508865       -3.00082566483853       -2.54117360953516
H           -4.97724340608133       -4.73479118303019       -3.72773504590019
C           -1.90646075057561       -3.90863955232459       -2.57979174674096
H           -2.65018577076205       -5.53666952561035       -3.75669410493217
C           -2.24244064456191       -2.73989667292308       -1.91049246385300
H           -0.88139429973629       -4.26235877702341       -2.58853368124601
C           -3.54946753987881       -2.29751367858690       -1.89094990788854
H           -1.47134227888450       -2.18113921119734       -1.38923822098312
C           -5.93733131159267       -2.37974233952640       -2.72865803307077
H           -6.70326080160804       -3.22139776083207       -2.82189068369068
H           -6.22653909696331       -1.84663782508062       -1.75725656373878
O           -5.84593011615541       -1.59523378275007       -3.78585304998331
15
 energy: -22.763618298841 gnorm: 0.001423774572 xtb: 6.7.1 (edcfbbe)
C           -4.20885352332500       -4.17243199022533       -3.21172570126191
C           -2.90195119937460       -4.61691692955373       -3.23691052592119
H           -3.80303227691113       -1.38761542441340       -1.36097285960653
C           -4.56750129417204       -3.00265849089819       -2.53726478434882
H           -4.97839457565070       -4.73476076963078       -3.72567842959808
C           -1.90655466998320       -3.90703440555976       -2.58182988929387
H           -2.65046991634690       -5.53439542493399       -3.75997123952178
C           -2.24259707284679       -2.74030547340683       -1.90954524760321
H           -0.88121205655029       -4.25900804001355       -2.59352328411383
C           -3.55009458346804       -2.29964229312112       -1.88671240312716
H           -1.47159233937932       -2.18111764713457       -1.38875541808868
C           -5.93736151131246       -2.38073384963038       -2.72792997151715
H           -6.70519607657732       -3.21882420597307       -2.81758963758814
H           -6.22519286742025       -1.83740665155517       -1.76456513973082
O           -5.84027903668195       -1.60541940395011       -3.79219946867881
15
 energy: -22.763625429189 gnorm: 0.000873703254 xtb: 6.7.1 (edcfbbe)
C           -4.20855764001635       -4.17173374263082       -3.21221929833701
C           -2.90182643761215       -4.61584805879634       -3.23830116666651
H           -3.80309900575406       -1.38909112743663       -1.35796198504672
C           -4.56723053022425       -3.00359163123867       -2.53491170388925
H           -4.97859322174698       -4.73170838864828       -3.72794513401155
C           -1.90673943540019       -3.90701727349883       -2.58152644543980
H           -2.65019713063100       -5.53170205904556       -3.76398578447837
C           -2.24251151827788       -2.74124787985249       -1.90802863836577
H           -0.88147982882558       -4.25907541332836       -2.59356402542991
C           -3.54999772667391       -2.30058722686193       -1.88449248019830
H           -1.47159008244281       -2.18197395625664       -1.38727438220834
C           -5.93812193218498       -2.38213845282922       -2.72619411136721
H           -6.70668631377939       -3.21834099260009       -2.80823444079687
H           -6.22148759418439       -1.82716373216696       -1.77122281188272
O           -5.84216460224608       -1.61705106480920       -3.79931159188166
15
 energy: -22.763628833150 gnorm: 0.000708108174 xtb: 6.7.1 (edcfbbe)
C           -4.20803080108038       -4.17033584044503       -3.21424819918928
C           -2.90158977883558       -4.61540914407284       -3.23894907681122
H           -3.80242301678276       -1.38813381479596       -1.35915584739810
C           -4.56666320449470       -3.00256871173019       -2.53644847998337
H           -4.97786793302286       -4.72949371407885       -3.73120855437513
C           -1.90656611577954       -3.90775283326161       -2.58050058607572
H           -2.64988604698620       -5.53136459362343       -3.76440614056911
C           -2.24231540499878       -2.74156373625684       -1.90763965306650
H           -0.88172553886428       -4.26144089947292       -2.59019965177567
C           -3.54964602533041       -2.29990090245199       -1.88552909570795
H           -1.47152037481543       -2.18312811324877       -1.38572800268275
C           -5.93839263518720       -2.38242507981446       -2.72584023384934
H           -6.70684018244505       -3.21986524884660       -2.80253749824375
H           -6.21903717651870       -1.82519544932338       -1.77142392832955
O           -5.84777876485813       -1.61969291857712       -3.80135905194256
