 Entering Gaussian System
 *********************************************
 Gaussian 98:
 frequency output generated by the xtb code
 *********************************************
                         Standard orientation:
 --------------------------------------------------------------------
  Center     Atomic     Atomic              Coordinates (Angstroms)
  Number     Number      Type              X           Y           Z
 --------------------------------------------------------------------
    1          6             0       -3.057275    1.729150   -0.000003
    2          6             0       -3.031349    0.357037    0.000011
    3          1             0        0.285956    2.303429   -0.000042
    4          8             0       -1.878736    3.782843   -0.000035
    5          6             0       -1.830554   -0.342968    0.000006
    6          1             0       -3.968985   -0.198308    0.000026
    7          6             0       -0.646434    0.384889   -0.000014
    8          1             0       -1.817879   -1.428261    0.000017
    9          6             0       -0.652560    1.757234   -0.000028
   10          1             0        0.303917   -0.148406   -0.000018
   11          6             0       -1.864010    2.521787   -0.000025
   12          1             0       -4.008290    2.253280    0.000002
 --------------------------------------------------------------------
     1 basis functions        1 primitive gaussians
     1 alpha electrons        1 beta electrons
 
 Harmonic frequencies (cm**-1), IR intensities (km*mol⁻¹),
 Raman scattering activities (A**4/amu), Raman depolarization ratios,
 reduced masses (AMU), force constants (mDyne/A) and normal coordinates:
                      1                      2                      3
                        a                      a                      a 
 Frequencies --   191.9630               374.3215               436.1431
 Red. masses --    11.5546                 9.4419                12.6897
 Frc consts  --     0.0000                 0.0000                 0.0000
 IR Inten    --     6.8529                 0.0000                 7.2370
 Raman Activ --     0.0000                 0.0000                 0.0000
 Depolar     --     0.0000                 0.0000                 0.0000
 Atom AN      X      Y      Z        X      Y      Z        X      Y      Z
   1   6     0.00   0.00   0.43     0.00   0.00   0.45    -0.36  -0.04   0.00
   2   6     0.00  -0.00   0.01    -0.00  -0.00  -0.43     0.09  -0.10   0.00
   3   1     0.00   0.00   0.19    -0.00  -0.00  -0.22    -0.16   0.11   0.00
   4   8    -0.00  -0.00  -0.53     0.00  -0.00  -0.00     0.67   0.01  -0.00
   5   6    -0.00  -0.00  -0.42    -0.00   0.00   0.00     0.15   0.00  -0.00
   6   1    -0.00  -0.00  -0.01    -0.00  -0.00  -0.26     0.06  -0.09   0.00
   7   6     0.00  -0.00   0.01     0.00   0.00   0.43     0.09   0.10  -0.00
   8   1    -0.00  -0.00  -0.27     0.00   0.00   0.00     0.06   0.00  -0.00
   9   6     0.00   0.00   0.43    -0.00  -0.00  -0.45    -0.36   0.03   0.00
  10   1    -0.00  -0.00  -0.01     0.00   0.00   0.26     0.06   0.09  -0.00
  11   6     0.00   0.00   0.12    -0.00   0.00   0.00    -0.35  -0.00   0.00
  12   1     0.00   0.00   0.19     0.00   0.00   0.22    -0.16  -0.11   0.00
                      4                      5                      6
                        a                      a                      a 
 Frequencies --   467.5722               499.5640               587.8005
 Red. masses --     8.8567                12.4660                11.4689
 Frc consts  --     0.0000                 0.0000                 0.0000
 IR Inten    --     0.0000                 3.8792                 0.4109
 Raman Activ --     0.0000                 0.0000                 0.0000
 Depolar     --     0.0000                 0.0000                 0.0000
 Atom AN      X      Y      Z        X      Y      Z        X      Y      Z
   1   6     0.00   0.00   0.14     0.28  -0.06  -0.00    -0.20   0.34  -0.00
   2   6    -0.00  -0.00  -0.32     0.23  -0.13  -0.00     0.33   0.39  -0.00
   3   1    -0.00  -0.00  -0.22    -0.02  -0.12   0.00    -0.07  -0.06   0.00
   4   8    -0.00  -0.00  -0.22    -0.01   0.50  -0.00    -0.25  -0.00   0.00
   5   6     0.00   0.00   0.44     0.01  -0.49   0.00     0.14   0.00  -0.00
   6   1    -0.00  -0.00  -0.32     0.02   0.04   0.00     0.11   0.08  -0.00
   7   6    -0.00  -0.00  -0.32    -0.23  -0.14   0.00     0.34  -0.38   0.00
   8   1     0.00   0.00   0.07     0.00  -0.14   0.00    -0.13  -0.00   0.00
   9   6     0.00   0.00   0.14    -0.28  -0.07   0.00    -0.19  -0.34   0.00
  10   1    -0.00  -0.00  -0.32    -0.02   0.04   0.00     0.11  -0.08   0.00
  11   6     0.00   0.00   0.47    -0.00   0.39  -0.00    -0.13  -0.00   0.00
  12   1    -0.00  -0.00  -0.22     0.02  -0.12   0.00    -0.07   0.06   0.00
                      7                      8                      9
                        a                      a                      a 
 Frequencies --   652.4535               739.0658               797.5495
 Red. masses --     9.4024                 4.6432                 5.3937
 Frc consts  --     0.0000                 0.0000                 0.0000
 IR Inten    --     4.8126                29.7755                13.4447
 Raman Activ --     0.0000                 0.0000                 0.0000
 Depolar     --     0.0000                 0.0000                 0.0000
 Atom AN      X      Y      Z        X      Y      Z        X      Y      Z
   1   6     0.00   0.00   0.24     0.00   0.00   0.12     0.00   0.00   0.29
   2   6    -0.00  -0.00  -0.36     0.00   0.00   0.12     0.00   0.00   0.05
   3   1     0.00   0.00   0.31    -0.00  -0.00  -0.18    -0.00  -0.00  -0.42
   4   8     0.00   0.00   0.12     0.00   0.00   0.14     0.00  -0.00   0.10
   5   6     0.00   0.00   0.34     0.00   0.00   0.24    -0.00  -0.00  -0.31
   6   1     0.00   0.00   0.08    -0.00  -0.00  -0.23    -0.00  -0.00  -0.07
   7   6    -0.00  -0.00  -0.36     0.00   0.00   0.12    -0.00   0.00   0.05
   8   1     0.00   0.00   0.18    -0.00  -0.00  -0.71     0.00   0.00   0.49
   9   6     0.00   0.00   0.24     0.00   0.00   0.12     0.00   0.00   0.29
  10   1     0.00   0.00   0.08    -0.00  -0.00  -0.23    -0.00  -0.00  -0.07
  11   6    -0.00  -0.00  -0.51    -0.00  -0.00  -0.44    -0.00  -0.00  -0.34
  12   1     0.00   0.00   0.31    -0.00  -0.00  -0.18    -0.00  -0.00  -0.42
                     10                     11                     12
                        a                      a                      a 
 Frequencies --   837.0980               840.8688               905.5314
 Red. masses --     3.2787                11.8502                 3.6348
 Frc consts  --     0.0000                 0.0000                 0.0000
 IR Inten    --     0.0000                 1.2539                 0.0000
 Raman Activ --     0.0000                 0.0000                 0.0000
 Depolar     --     0.0000                 0.0000                 0.0000
 Atom AN      X      Y      Z        X      Y      Z        X      Y      Z
   1   6     0.00   0.00   0.25    -0.19  -0.16   0.00     0.00   0.00   0.20
   2   6     0.00   0.00   0.20    -0.38  -0.29   0.00    -0.00  -0.00  -0.28
   3   1     0.00   0.00   0.53     0.07  -0.06   0.00     0.00   0.00   0.34
   4   8     0.00  -0.00   0.00    -0.01   0.46  -0.00    -0.00   0.00  -0.00
   5   6     0.00  -0.00  -0.00    -0.00   0.25  -0.00    -0.00  -0.00   0.00
   6   1    -0.00  -0.00  -0.34    -0.04  -0.19   0.00     0.00   0.00   0.51
   7   6    -0.00  -0.00  -0.20     0.39  -0.28  -0.00     0.00   0.00   0.28
   8   1     0.00  -0.00   0.00    -0.00   0.06   0.00    -0.00  -0.00  -0.00
   9   6    -0.00  -0.00  -0.25     0.19  -0.16  -0.00    -0.00  -0.00  -0.20
  10   1     0.00   0.00   0.34     0.05  -0.19   0.00    -0.00  -0.00  -0.51
  11   6     0.00  -0.00  -0.00    -0.00   0.22  -0.00     0.00   0.00   0.00
  12   1    -0.00  -0.00  -0.53    -0.07  -0.06  -0.00    -0.00  -0.00  -0.34
                     13                     14                     15
                        a                      a                      a 
 Frequencies --   906.5854               953.9184              1072.6334
 Red. masses --     2.2399                10.6031                 7.0408
 Frc consts  --     0.0000                 0.0000                 0.0000
 IR Inten    --     0.0831                 9.8010                 0.7893
 Raman Activ --     0.0000                 0.0000                 0.0000
 Depolar     --     0.0000                 0.0000                 0.0000
 Atom AN      X      Y      Z        X      Y      Z        X      Y      Z
   1   6     0.00   0.00   0.08     0.55  -0.14  -0.00    -0.04   0.17  -0.00
   2   6    -0.00  -0.00  -0.20    -0.18  -0.04   0.00    -0.34  -0.05   0.00
   3   1    -0.00  -0.00  -0.30    -0.21   0.07   0.00    -0.14   0.32  -0.00
   4   8    -0.00   0.00  -0.01     0.00  -0.08   0.00    -0.00   0.00  -0.00
   5   6     0.00   0.00   0.08    -0.00   0.38  -0.00     0.01  -0.50   0.00
   6   1     0.00   0.00   0.56    -0.08   0.06   0.00    -0.23   0.20   0.00
   7   6    -0.00  -0.00  -0.20     0.18  -0.04  -0.00     0.34  -0.04  -0.00
   8   1    -0.00  -0.00  -0.29    -0.00   0.10  -0.00     0.00  -0.15   0.00
   9   6     0.00   0.00   0.08    -0.55  -0.15   0.00     0.04   0.17  -0.00
  10   1     0.00   0.00   0.56     0.08   0.06  -0.00     0.22   0.20  -0.00
  11   6     0.00   0.00   0.12     0.00  -0.03   0.00     0.00  -0.02   0.00
  12   1    -0.00  -0.00  -0.30     0.21   0.07  -0.00     0.14   0.32  -0.00
                     16                     17                     18
                        a                      a                      a 
 Frequencies --  1100.8826              1177.4136              1196.0689
 Red. masses --     5.1376                 1.8651                 1.7927
 Frc consts  --     0.0000                 0.0000                 0.0000
 IR Inten    --     0.7721                 0.5995                 8.2825
 Raman Activ --     0.0000                 0.0000                 0.0000
 Depolar     --     0.0000                 0.0000                 0.0000
 Atom AN      X      Y      Z        X      Y      Z        X      Y      Z
   1   6     0.23  -0.16  -0.00    -0.04  -0.13   0.00    -0.01  -0.08   0.00
   2   6     0.16   0.07  -0.00     0.03  -0.01  -0.00    -0.13   0.09   0.00
   3   1    -0.14   0.38  -0.00     0.04  -0.05   0.00     0.23  -0.41   0.00
   4   8     0.04   0.00  -0.00     0.00   0.00  -0.00     0.00  -0.07   0.00
   5   6    -0.26  -0.00   0.00    -0.08  -0.00   0.00    -0.00   0.02  -0.00
   6   1    -0.09   0.26  -0.00     0.21  -0.35   0.00    -0.26   0.42  -0.00
   7   6     0.16  -0.07  -0.00     0.03   0.01  -0.00     0.13   0.09  -0.00
   8   1    -0.37  -0.00   0.00    -0.76  -0.01   0.00    -0.00   0.00   0.00
   9   6     0.22   0.16  -0.00    -0.05   0.13  -0.00     0.01  -0.08   0.00
  10   1    -0.09  -0.26   0.00     0.21   0.36  -0.00     0.25   0.42  -0.00
  11   6    -0.31  -0.00   0.00     0.18   0.00  -0.00    -0.00   0.03  -0.00
  12   1    -0.13  -0.39   0.00     0.04   0.06  -0.00    -0.22  -0.42   0.00
                     19                     20                     21
                        a                      a                      a 
 Frequencies --  1241.4293              1327.3949              1394.6681
 Red. masses --     6.8651                 6.3064                 8.2700
 Frc consts  --     0.0000                 0.0000                 0.0000
 IR Inten    --     3.7967                 6.6892                81.1310
 Raman Activ --     0.0000                 0.0000                 0.0000
 Depolar     --     0.0000                 0.0000                 0.0000
 Atom AN      X      Y      Z        X      Y      Z        X      Y      Z
   1   6     0.16   0.02  -0.00     0.23   0.29  -0.00    -0.19  -0.32   0.00
   2   6     0.11  -0.14   0.00     0.00  -0.04   0.00     0.26  -0.03  -0.00
   3   1     0.27  -0.39   0.00    -0.09   0.18  -0.00    -0.15   0.24  -0.00
   4   8     0.07   0.00  -0.00    -0.01  -0.00   0.00    -0.00   0.33  -0.00
   5   6    -0.07  -0.00   0.00    -0.39  -0.00   0.00    -0.00   0.20  -0.00
   6   1    -0.02   0.05  -0.00     0.21  -0.36   0.00    -0.11   0.31  -0.00
   7   6     0.10   0.14  -0.00     0.00   0.04  -0.00    -0.26  -0.03   0.00
   8   1    -0.13  -0.00   0.00     0.29   0.00  -0.00    -0.00   0.07  -0.00
   9   6     0.16  -0.02  -0.00     0.24  -0.28   0.00     0.20  -0.31   0.00
  10   1    -0.02  -0.05   0.00     0.20   0.37  -0.00     0.10   0.31  -0.00
  11   6    -0.64  -0.01   0.00    -0.23  -0.00   0.00     0.00  -0.23   0.00
  12   1     0.26   0.40  -0.00    -0.08  -0.18   0.00     0.14   0.25  -0.00
                     22                     23                     24
                        a                      a                      a 
 Frequencies --  1471.8125              1527.5684              1559.2684
 Red. masses --    10.2158                10.9879                11.7857
 Frc consts  --     0.0000                 0.0000                 0.0000
 IR Inten    --    75.5384                11.8144               180.2513
 Raman Activ --     0.0000                 0.0000                 0.0000
 Depolar     --     0.0000                 0.0000                 0.0000
 Atom AN      X      Y      Z        X      Y      Z        X      Y      Z
   1   6    -0.05   0.40  -0.00    -0.20  -0.16   0.00    -0.08   0.12  -0.00
   2   6     0.09  -0.48   0.00     0.35  -0.09  -0.00     0.17  -0.36   0.00
   3   1    -0.10   0.04   0.00     0.05  -0.12   0.00    -0.01   0.11  -0.00
   4   8    -0.06  -0.00   0.00    -0.01  -0.00   0.00     0.00  -0.42   0.00
   5   6     0.02   0.00  -0.00    -0.66  -0.01   0.00    -0.00   0.22  -0.00
   6   1    -0.13   0.12  -0.00     0.03   0.07  -0.00    -0.09   0.14  -0.00
   7   6     0.08   0.48  -0.00     0.35   0.10  -0.00    -0.16  -0.36   0.00
   8   1    -0.27  -0.00   0.00     0.22   0.00  -0.00    -0.00   0.06  -0.00
   9   6    -0.04  -0.40   0.00    -0.20   0.16   0.00     0.08   0.12  -0.00
  10   1    -0.13  -0.13   0.00     0.03  -0.07   0.00     0.09   0.14  -0.00
  11   6     0.18   0.00  -0.00     0.26   0.00  -0.00    -0.01   0.58  -0.00
  12   1    -0.10  -0.05   0.00     0.05   0.12  -0.00     0.01   0.11  -0.00
                     25                     26                     27
                        a                      a                      a 
 Frequencies --  1628.6012              2939.0627              2943.8384
 Red. masses --    11.7893                 1.7875                 1.7264
 Frc consts  --     0.0000                 0.0000                 0.0000
 IR Inten    --   554.2277               230.9892                65.7462
 Raman Activ --     0.0000                 0.0000                 0.0000
 Depolar     --     0.0000                 0.0000                 0.0000
 Atom AN      X      Y      Z        X      Y      Z        X      Y      Z
   1   6    -0.08  -0.40   0.00     0.02  -0.01  -0.00    -0.02   0.02   0.00
   2   6    -0.10   0.35  -0.00    -0.16  -0.10   0.00     0.15   0.08  -0.00
   3   1    -0.08   0.09   0.00    -0.09  -0.06   0.00    -0.10  -0.06   0.00
   4   8     0.00  -0.24   0.00    -0.00  -0.00   0.00    -0.00   0.00  -0.00
   5   6     0.00  -0.14   0.00    -0.01  -0.00   0.00     0.00  -0.06   0.00
   6   1     0.06  -0.06   0.00     0.58   0.34  -0.00    -0.56  -0.33   0.00
   7   6     0.09   0.35  -0.00    -0.16   0.09   0.00    -0.15   0.08   0.00
   8   1     0.00  -0.03   0.00     0.00   0.00  -0.00    -0.00   0.27  -0.00
   9   6     0.09  -0.40   0.00     0.02   0.02  -0.00     0.02   0.02  -0.00
  10   1    -0.05  -0.06   0.00     0.59  -0.33  -0.00     0.57  -0.31  -0.00
  11   6    -0.01   0.52  -0.00     0.01   0.00  -0.00    -0.00  -0.00   0.00
  12   1     0.08   0.09  -0.00    -0.09   0.05   0.00     0.11  -0.06  -0.00
                     28                     29                     30
                        a                      a                      a 
 Frequencies --  2994.8567              3002.6278              3014.5546
 Red. masses --     1.8202                 1.8308                 1.8585
 Frc consts  --     0.0000                 0.0000                 0.0000
 IR Inten    --   314.7025               296.2129                 2.0905
 Raman Activ --     0.0000                 0.0000                 0.0000
 Depolar     --     0.0000                 0.0000                 0.0000
 Atom AN      X      Y      Z        X      Y      Z        X      Y      Z
   1   6     0.08  -0.04  -0.00     0.16  -0.10  -0.00     0.14  -0.08  -0.00
   2   6    -0.03  -0.02   0.00     0.03   0.02  -0.00     0.06   0.03  -0.00
   3   1     0.30   0.17  -0.00    -0.58  -0.34   0.00     0.50   0.29  -0.00
   4   8    -0.00   0.00  -0.00    -0.00  -0.00   0.00    -0.00   0.01  -0.00
   5   6     0.00  -0.23   0.00    -0.01  -0.00   0.00    -0.00   0.13  -0.00
   6   1     0.09   0.05  -0.00    -0.09  -0.05   0.00    -0.17  -0.10   0.00
   7   6     0.03  -0.02  -0.00     0.03  -0.02  -0.00    -0.06   0.03   0.00
   8   1    -0.01   0.82  -0.00     0.00  -0.00  -0.00     0.01  -0.43   0.00
   9   6    -0.08  -0.05   0.00     0.16   0.10  -0.00    -0.14  -0.08   0.00
  10   1    -0.09   0.05   0.00    -0.09   0.05   0.00     0.17  -0.09  -0.00
  11   6     0.00  -0.01   0.00     0.01   0.00  -0.00     0.00  -0.02   0.00
  12   1    -0.30   0.17   0.00    -0.59   0.33   0.00    -0.50   0.28   0.00
