12
 energy: -19.643193384941 gnorm: 0.049311294231 xtb: 6.7.1 (edcfbbe)
C           -3.06670216740208        1.73694560038718       -0.00001066344998
C           -3.04200667825507        0.34346525169058        0.00000095146063
H            0.30127519728873        2.31891772836055       -0.00003736573204
O           -1.87943006493464        3.82141390020846       -0.00003636347040
C           -1.83029420403238       -0.36563732120655       -0.00000133987670
H           -3.98868609584092       -0.20637053482539        0.00001193030022
C           -0.63540033467885        0.37153684752154       -0.00001492438488
H           -1.81763727523773       -1.45677998002679        0.00000739842659
C           -0.64322801500126        1.76524914676076       -0.00002663031396
H            0.32383286077545       -0.15607824761796       -0.00001694690018
C           -1.86409112844898        2.53057881977508       -0.00002567991169
H           -4.02389920378020        2.26834885398358       -0.00000836576253
12
 energy: -19.645712010108 gnorm: 0.013011077569 xtb: 6.7.1 (edcfbbe)
C           -3.05875121363163        1.73033293910947       -0.00001058716283
C           -3.03276381565466        0.35507718706061        0.00000071647840
H            0.28885878174011        2.30463913602097       -0.00003738625258
O           -1.87887596896017        3.78631293336117       -0.00003591849334
C           -1.83053058934357       -0.34488688623023       -0.00000142083158
H           -3.97295318197106       -0.19630631001912        0.00001161693488
C           -0.64496755864107        0.38297010993792       -0.00001531429210
H           -1.81786694030937       -1.43080913298354        0.00000755588738
C           -0.65109398739741        1.75846215780631       -0.00002668508154
H            0.30783627812839       -0.14630587583019       -0.00001694375443
C           -1.86395744170255        2.51770026823754       -0.00002489767387
H           -4.01120147180494        2.25440353854016       -0.00000873537333
12
 energy: -19.645795607612 gnorm: 0.002979854452 xtb: 6.7.1 (edcfbbe)
C           -3.05708907243060        1.72930590592545       -0.00001069899049
C           -3.03110921384718        0.35706245534873        0.00000069981697
H            0.28572596451995        2.30287389674075       -0.00003720392715
O           -1.87876222313455        3.78144908414633       -0.00003560641772
C           -1.83056081710790       -0.34217586083725       -0.00000136853029
H           -3.96927493463891       -0.19682287473156        0.00001154000918
C           -0.64668250568650        0.38492476170281       -0.00001516152385
H           -1.81788246929389       -1.42744776599056        0.00000761000737
C           -0.65275922781263        1.75740136818096       -0.00002667548534
H            0.30416632622575       -0.14689059189884       -0.00001705649604
C           -1.86398550311695        2.51919358577842       -0.00002553501383
H           -4.00805343322451        2.25271610064581       -0.00000854306376
12
 energy: -19.645800748132 gnorm: 0.000919920546 xtb: 6.7.1 (edcfbbe)
C           -3.05712571145030        1.72922788908700       -0.00001062526525
C           -3.03119000592000        0.35706996976205        0.00000067121219
H            0.28569047853156        2.30311072406291       -0.00003765800535
O           -1.87875613405394        3.78216516530330       -0.00003560743141
C           -1.83055646268944       -0.34255353250286       -0.00000134198021
H           -3.96897989035459       -0.19774604488057        0.00001153202000
C           -0.64660145482205        0.38493306392417       -0.00001530241098
H           -1.81787498826924       -1.42784779780526        0.00000771311584
C           -0.65272722386042        1.75732382150950       -0.00002667015488
H            0.30389584065437       -0.14782000489265       -0.00001700711280
C           -1.86400841139856        2.52077655072043       -0.00002466028810
H           -4.00803314591533        2.25295026072302       -0.00000904331399
12
 energy: -19.645801261414 gnorm: 0.000422180330 xtb: 6.7.1 (edcfbbe)
C           -3.05728421912290        1.72913383224144       -0.00001080802185
C           -3.03135052154239        0.35702152345731        0.00000075056142
H            0.28594355514568        2.30343052084039       -0.00003670280922
O           -1.87875576373889        3.78283296127311       -0.00003539962514
C           -1.83055176229536       -0.34297744059896       -0.00000134463769
H           -3.96898400073825       -0.19832880033151        0.00001148902520
C           -0.64643642503431        0.38488594583286       -0.00001509179147
H           -1.81787113114208       -1.42827000026607        0.00000768953370
C           -0.65256924445508        1.75723085670673       -0.00002677242042
H            0.30391760795820       -0.14840440951761       -0.00001712306241
C           -1.86402353019853        2.52177654836828       -0.00002664884584
H           -4.00830167438401        2.25325852700512       -0.00000803752122
