12
 energy: -19.645801261629 gnorm: 0.000420145905 xtb: 6.7.1 (edcfbbe)
C           -3.05727516538706        1.72914984009897       -0.00000315399454
C           -3.03134865212160        0.35703739556739        0.00001070885078
H            0.28595561573187        2.30342902354429       -0.00004172118519
O           -1.87873595698124        3.78284279829588       -0.00003544381938
C           -1.83055355808740       -0.34296785584947        0.00000564380194
H           -3.96898503906552       -0.19830801875681        0.00002568954201
C           -0.64643440981844        0.38488933053386       -0.00001350705536
H           -1.81787860947477       -1.42826048187991        0.00001652790243
C           -0.65256004370707        1.75723427347781       -0.00002756147045
H            0.30391683084965       -0.14840600085411       -0.00001792492044
C           -1.86401032627888        2.52178630828774       -0.00002454350663
H           -4.00828987631237        2.25327951437526        0.00000202141309
