 Entering Gaussian System
 *********************************************
 Gaussian 98:
 frequency output generated by the xtb code
 *********************************************
                         Standard orientation:
 --------------------------------------------------------------------
  Center     Atomic     Atomic              Coordinates (Angstroms)
  Number     Number      Type              X           Y           Z
 --------------------------------------------------------------------
    1          6             0       -5.299185   -3.614570    0.515392
    2          6             0       -6.452283   -4.156718    1.299232
    3          8             0       -8.355999   -5.593180    1.175156
    4          8             0       -6.650164   -3.889902    2.471264
    5          8             0       -7.164831   -5.283351   -0.689845
    6          6             0       -7.419462   -5.104319    0.516556
    7          1             0       -4.657354   -3.005088    1.144578
    8          1             0       -4.756666   -4.451037    0.081942
    9          1             0       -5.700840   -3.036175   -0.313772
 --------------------------------------------------------------------
     1 basis functions        1 primitive gaussians
     1 alpha electrons        1 beta electrons
 
 Harmonic frequencies (cm**-1), IR intensities (km*mol⁻¹),
 Raman scattering activities (A**4/amu), Raman depolarization ratios,
 reduced masses (AMU), force constants (mDyne/A) and normal coordinates:
                      1                      2                      3
                        a                      a                      a 
 Frequencies --   -55.0954                49.3144               226.6187
 Red. masses --     8.5758                 7.1313                12.9534
 Frc consts  --     0.0000                 0.0000                 0.0000
 IR Inten    --     6.9033                 0.0414                10.8500
 Raman Activ --     0.0000                 0.0000                 0.0000
 Depolar     --     0.0000                 0.0000                 0.0000
 Atom AN      X      Y      Z        X      Y      Z        X      Y      Z
   1   6     0.17  -0.24   0.08    -0.15   0.22  -0.08     0.27   0.27   0.27
   2   6    -0.01   0.02  -0.00     0.01  -0.01   0.01     0.08   0.00  -0.19
   3   8     0.23  -0.31   0.09    -0.20   0.28  -0.09     0.20   0.24   0.30
   4   8    -0.15   0.21  -0.07     0.22  -0.31   0.11    -0.24  -0.26  -0.21
   5   8    -0.26   0.36  -0.11     0.15  -0.20   0.06    -0.35  -0.29  -0.16
   6   6    -0.01   0.02  -0.01    -0.01   0.02  -0.01     0.03  -0.01  -0.11
   7   1    -0.12   0.18  -0.05    -0.26   0.39  -0.12    -0.01   0.06   0.19
   8   1     0.23  -0.14   0.37     0.22   0.05   0.33     0.15   0.13   0.09
   9   1     0.12  -0.38  -0.22    -0.07  -0.31  -0.27     0.15   0.13   0.08
                      4                      5                      6
                        a                      a                      a 
 Frequencies --   344.1730               374.3422               524.4792
 Red. masses --    11.3142                13.2162                14.0679
 Frc consts  --     0.0000                 0.0000                 0.0000
 IR Inten    --    29.5317                 4.8193                 2.6412
 Raman Activ --     0.0000                 0.0000                 0.0000
 Depolar     --     0.0000                 0.0000                 0.0000
 Atom AN      X      Y      Z        X      Y      Z        X      Y      Z
   1   6     0.02  -0.11   0.01     0.18   0.20   0.25     0.14   0.07  -0.10
   2   6    -0.38   0.53  -0.16    -0.01   0.05  -0.04    -0.05  -0.09  -0.33
   3   8     0.17  -0.15   0.07    -0.31  -0.33  -0.26    -0.25  -0.13   0.20
   4   8     0.15  -0.26   0.11     0.49   0.30  -0.01    -0.08  -0.21  -0.41
   5   8     0.13  -0.18   0.03    -0.19  -0.16   0.01     0.34   0.35   0.35
   6   6    -0.22   0.34  -0.12    -0.21  -0.11  -0.01    -0.17  -0.03   0.24
   7   1     0.09  -0.14   0.03    -0.05   0.03   0.21    -0.06  -0.02   0.11
   8   1    -0.13  -0.18   0.11     0.14   0.11   0.09     0.12   0.07  -0.01
   9   1     0.21  -0.00  -0.07     0.15   0.13   0.07     0.14   0.09  -0.03
                      7                      8                      9
                        a                      a                      a 
 Frequencies --   611.7448               699.3769               771.9568
 Red. masses --    12.1275                10.0448                13.1563
 Frc consts  --     0.0000                 0.0000                 0.0000
 IR Inten    --    65.3981                33.3777                82.7012
 Raman Activ --     0.0000                 0.0000                 0.0000
 Depolar     --     0.0000                 0.0000                 0.0000
 Atom AN      X      Y      Z        X      Y      Z        X      Y      Z
   1   6    -0.38  -0.18   0.26    -0.08   0.08  -0.02    -0.23  -0.13   0.10
   2   6    -0.29  -0.27  -0.11    -0.20   0.26  -0.09    -0.06  -0.09  -0.15
   3   8     0.16   0.20   0.29    -0.11   0.17  -0.04     0.19   0.02  -0.40
   4   8     0.31   0.17  -0.14     0.06  -0.06   0.03     0.05  -0.04  -0.22
   5   8     0.22   0.09  -0.22    -0.12   0.17  -0.06    -0.27  -0.10   0.34
   6   6    -0.04  -0.07  -0.19     0.43  -0.59   0.17     0.38   0.37   0.31
   7   1    -0.24  -0.08   0.24     0.06  -0.12   0.05    -0.17  -0.06   0.16
   8   1     0.00   0.03   0.07    -0.18  -0.18   0.17     0.01   0.01   0.03
   9   1    -0.04   0.02   0.09     0.29   0.05  -0.13    -0.00   0.01   0.03
                     10                     11                     12
                        a                      a                      a 
 Frequencies --   954.1860               977.3790              1155.2936
 Red. masses --     6.2074                 7.0195                 9.9015
 Frc consts  --     0.0000                 0.0000                 0.0000
 IR Inten    --     5.6109                11.6449               143.0849
 Raman Activ --     0.0000                 0.0000                 0.0000
 Depolar     --     0.0000                 0.0000                 0.0000
 Atom AN      X      Y      Z        X      Y      Z        X      Y      Z
   1   6     0.21  -0.30   0.15    -0.14   0.11   0.48     0.31   0.23   0.04
   2   6    -0.24   0.39  -0.15     0.28   0.09  -0.15    -0.62  -0.43   0.02
   3   8    -0.05   0.04  -0.01    -0.07  -0.05   0.02     0.15   0.09  -0.08
   4   8     0.06  -0.08  -0.01     0.08  -0.04  -0.32     0.09   0.06  -0.01
   5   8    -0.03   0.05  -0.01     0.02   0.02   0.03    -0.04   0.01   0.14
   6   6     0.14  -0.20   0.06    -0.06  -0.01   0.01     0.02   0.01  -0.01
   7   1    -0.07   0.18  -0.09     0.28   0.08  -0.26     0.32   0.12  -0.30
   8   1     0.25   0.23  -0.28    -0.41  -0.21   0.11    -0.06  -0.02  -0.02
   9   1    -0.47  -0.11   0.25    -0.27  -0.22   0.06    -0.03  -0.06  -0.02
                     13                     14                     15
                        a                      a                      a 
 Frequencies --  1315.4158              1338.3622              1412.8501
 Red. masses --    14.0516                 3.5087                 1.6424
 Frc consts  --     0.0000                 0.0000                 0.0000
 IR Inten    --   253.7466                56.4053                11.8897
 Raman Activ --     0.0000                 0.0000                 0.0000
 Depolar     --     0.0000                 0.0000                 0.0000
 Atom AN      X      Y      Z        X      Y      Z        X      Y      Z
   1   6    -0.03  -0.03  -0.03    -0.34  -0.16   0.27     0.14  -0.19   0.05
   2   6     0.12   0.07  -0.04     0.06   0.04  -0.01     0.01  -0.03   0.01
   3   8     0.40   0.22  -0.26     0.02   0.01  -0.02     0.00  -0.00   0.00
   4   8    -0.02   0.00   0.04    -0.00  -0.01  -0.01     0.00  -0.00   0.00
   5   8    -0.08   0.09   0.51    -0.00   0.01   0.04     0.00  -0.00  -0.00
   6   6    -0.40  -0.39  -0.31    -0.03  -0.03  -0.03    -0.01   0.01  -0.00
   7   1    -0.06  -0.02   0.07     0.25   0.09  -0.37    -0.40   0.60  -0.16
   8   1    -0.01  -0.03   0.05     0.26   0.35  -0.30    -0.38  -0.20  -0.15
   9   1    -0.04   0.02   0.03     0.50   0.02  -0.20     0.27   0.33   0.13
                     16                     17                     18
                        a                      a                      a 
 Frequencies --  1425.5710              1679.7689              1710.7114
 Red. masses --     1.8727                13.1734                13.2972
 Frc consts  --     0.0000                 0.0000                 0.0000
 IR Inten    --    36.3377               665.3351               619.1925
 Raman Activ --     0.0000                 0.0000                 0.0000
 Depolar     --     0.0000                 0.0000                 0.0000
 Atom AN      X      Y      Z        X      Y      Z        X      Y      Z
   1   6     0.16   0.14   0.13     0.00  -0.00  -0.00     0.03   0.00  -0.04
   2   6    -0.01  -0.03  -0.06    -0.02   0.02   0.12    -0.12   0.17   0.75
   3   8     0.02   0.01  -0.01    -0.28  -0.14   0.21     0.07   0.04  -0.04
   4   8    -0.02   0.02   0.09     0.02  -0.01  -0.07     0.09  -0.13  -0.57
   5   8    -0.00  -0.00   0.00    -0.08   0.05   0.37     0.00  -0.01  -0.05
   6   6    -0.02  -0.01   0.01     0.43   0.11  -0.70    -0.10  -0.05   0.07
   7   1    -0.21  -0.05   0.31    -0.02  -0.01   0.02    -0.05  -0.01   0.06
   8   1    -0.31   0.08  -0.54    -0.01   0.00  -0.02    -0.00   0.03  -0.06
   9   1     0.08  -0.49  -0.37     0.01  -0.02  -0.02     0.04  -0.03  -0.04
                     19                     20                     21
                        a                      a                      a 
 Frequencies --  3024.1095              3034.5514              3051.0916
 Red. masses --     1.8851                 1.2681                 2.0049
 Frc consts  --     0.0000                 0.0000                 0.0000
 IR Inten    --     1.8992                 4.7514                25.7662
 Raman Activ --     0.0000                 0.0000                 0.0000
 Depolar     --     0.0000                 0.0000                 0.0000
 Atom AN      X      Y      Z        X      Y      Z        X      Y      Z
   1   6    -0.13   0.22  -0.11    -0.15  -0.00   0.04    -0.08  -0.16  -0.24
   2   6    -0.00   0.01  -0.00    -0.01  -0.00   0.01    -0.00  -0.01  -0.01
   3   8    -0.00  -0.00   0.00    -0.00  -0.00   0.00    -0.00  -0.00   0.00
   4   8    -0.00   0.00   0.00     0.00  -0.00  -0.00    -0.00   0.00   0.00
   5   8    -0.00  -0.00   0.00     0.00   0.00  -0.00    -0.00  -0.00   0.00
   6   6     0.00  -0.00  -0.00     0.00   0.00   0.00     0.00   0.00  -0.00
   7   1    -0.06  -0.01  -0.06     0.36   0.36   0.38     0.44   0.41   0.42
   8   1     0.23  -0.35  -0.21     0.33  -0.53  -0.27    -0.27   0.39   0.18
   9   1     0.30  -0.43   0.64    -0.14   0.18  -0.25     0.13  -0.22   0.24
