9
 energy: -20.465287715920 gnorm: 0.064144435506 xtb: 6.7.1 (edcfbbe)
C           -5.29923700000000       -3.61738100000000        0.49176100000000
C           -6.45796500000000       -4.17121900000000        1.26706200000000
O           -8.39174400000000       -5.60964500000000        1.20925000000000
O           -6.66161900000000       -3.89935300000000        2.45179100000000
O           -7.18011700000000       -5.29788200000000       -0.68967800000000
C           -7.43328400000000       -5.10634300000000        0.54410800000000
H           -4.66841500000000       -3.01956500000000        1.15566100000000
H           -4.69845800000000       -4.43495300000000        0.08556200000000
H           -5.66576200000000       -2.97830300000000       -0.31527900000000
9
 energy: -20.468127601293 gnorm: 0.022156127065 xtb: 6.7.1 (edcfbbe)
C           -5.30075794320323       -3.61649611682180        0.50755887079729
C           -6.45570325334579       -4.16354438679067        1.28137261519934
O           -8.36166777208445       -5.59313716274248        1.18701386404300
O           -6.65074109439076       -3.88980959708349        2.45645667848425
O           -7.17961940558780       -5.29457308999374       -0.68914294928997
C           -7.41693630660787       -5.10551470625756        0.52940357921643
H           -4.66838825721688       -3.01451891634786        1.16128795178042
H           -4.73762765129232       -4.44338175668101        0.07899349862876
H           -5.68515931627090       -3.01366826728140       -0.31270610885953
9
 energy: -20.468375701523 gnorm: 0.009369351259 xtb: 6.7.1 (edcfbbe)
C           -5.30039552919642       -3.61527150903775        0.51513711970631
C           -6.45486525384371       -4.15847517866160        1.29399667219218
O           -8.35031478344555       -5.59564446874911        1.17640309166762
O           -6.64934514898625       -3.88743676609077        2.46572375484286
O           -7.16477174917477       -5.29645503675027       -0.68511978232527
C           -7.42342132895934       -5.09147120467598        0.51737776642564
H           -4.65936671811979       -3.01328865711169        1.15430346664483
H           -4.75870267757493       -4.44842222205080        0.07315172744059
H           -5.69541781069924       -3.02817895687203       -0.31073581659476
9
 energy: -20.468395353209 gnorm: 0.010226347045 xtb: 6.7.1 (edcfbbe)
C           -5.29938776003454       -3.61443257011090        0.51891349820908
C           -6.45390897764437       -4.15509790480157        1.30219796158794
O           -8.35369464725641       -5.58921112489946        1.16852078757523
O           -6.65096474143610       -3.88557797538646        2.47215940827954
O           -7.16682493379342       -5.27887430159745       -0.68894663390218
C           -7.40823109594678       -5.11230426268436        0.51865101608157
H           -4.65603580090455       -3.00602945417891        1.14549116343422
H           -4.76487166619346       -4.45141080456577        0.07714421517920
H           -5.70268137679035       -3.04170560177512       -0.31389341644459
9
 energy: -20.468520908035 gnorm: 0.002234248923 xtb: 6.7.1 (edcfbbe)
C           -5.29958424509755       -3.61497865989937        0.51573842182994
C           -6.45343657319748       -4.15705474913980        1.29856286386243
O           -8.35541196213815       -5.59313881997178        1.17393599518892
O           -6.65067301625453       -3.88736444177627        2.47012737405099
O           -7.16473777489055       -5.28498623205093       -0.68876000924480
C           -7.41652388842045       -5.10410696359549        0.51829207544995
H           -4.65730602727501       -3.00820374525581        1.14681776440191
H           -4.75895142374879       -4.45053554828950        0.07811932421794
H           -5.69997608897748       -3.03427484002105       -0.31259580975727
9
 energy: -20.468526131348 gnorm: 0.001180529813 xtb: 6.7.1 (edcfbbe)
C           -5.29941413095647       -3.61485451125674        0.51557634845907
C           -6.45312073045191       -4.15665753783169        1.29888936048725
O           -8.35548098743523       -5.59358049064884        1.17440495496541
O           -6.65063197622068       -3.88809945378845        2.47061199679627
O           -7.16411983821651       -5.28464105565573       -0.68906953497753
C           -7.41792273560750       -5.10375414834666        0.51745076857890
H           -4.65688321996321       -3.00746824850067        1.14581345012691
H           -4.75859170468030       -4.45099039941009        0.07925332031387
H           -5.70043567646818       -3.03459815456112       -0.31269266475015
9
 energy: -20.468527789643 gnorm: 0.000515478232 xtb: 6.7.1 (edcfbbe)
C           -5.29916707105864       -3.61459855841933        0.51536723119188
C           -6.45226557803259       -4.15675400673357        1.29920259572241
O           -8.35597298052653       -5.59322559918368        1.17511646160450
O           -6.65015191848518       -3.88994112884698        2.47123382313267
O           -7.16480022179216       -5.28338684884089       -0.68987919204391
C           -7.41943612089309       -5.10435873078815        0.51652087602168
H           -4.65734202846974       -3.00511402937567        1.14455599170937
H           -4.75664234348814       -4.45106129104207        0.08191717002855
H           -5.70082273725393       -3.03620380676966       -0.31379695736716
