9
 energy: -20.468527789649 gnorm: 0.000515305095 xtb: 6.7.1 (edcfbbe)
C           -5.29918419794978       -3.61456991251429        0.51539203743516
C           -6.45228280750813       -4.15671795517414        1.29923237327259
O           -8.35599816444675       -5.59317979638262        1.17515539146394
O           -6.65016365975798       -3.88990199560220        2.47126382575124
O           -7.16483029350593       -5.28335053800791       -0.68984496091822
C           -7.41946104407219       -5.10431898114417        0.51655568352214
H           -4.65735376783491       -3.00508764593793        1.14457749380463
H           -4.75666536312364       -4.45103624228227        0.08194154240945
H           -5.70083973000940       -3.03617450495864       -0.31377175856408
