 Entering Gaussian System
 *********************************************
 Gaussian 98:
 frequency output generated by the xtb code
 *********************************************
                         Standard orientation:
 --------------------------------------------------------------------
  Center     Atomic     Atomic              Coordinates (Angstroms)
  Number     Number      Type              X           Y           Z
 --------------------------------------------------------------------
    1          6             0       -3.710146   -3.999873   -2.656086
    2          6             0       -4.236684   -2.615536   -3.144569
    3          8             0       -3.285127   -1.678159   -3.240154
    4          1             0       -6.196620   -2.980621   -2.227784
    5          6             0       -5.423281   -2.215786   -2.214874
    6          1             0       -4.712849   -2.818096   -4.174563
    7          1             0       -5.837545   -1.269177   -2.554861
    8          1             0       -5.047251   -2.084215   -1.202366
    9          1             0       -3.313073   -3.889165   -1.649141
   10          1             0       -4.508364   -4.738783   -2.661810
   11          1             0       -2.904607   -4.324693   -3.310959
 --------------------------------------------------------------------
     1 basis functions        1 primitive gaussians
     1 alpha electrons        1 beta electrons
 
 Harmonic frequencies (cm**-1), IR intensities (km*mol⁻¹),
 Raman scattering activities (A**4/amu), Raman depolarization ratios,
 reduced masses (AMU), force constants (mDyne/A) and normal coordinates:
                      1                      2                      3
                        a                      a                      a 
 Frequencies --   180.3658               226.7148               362.3974
 Red. masses --     1.2498                 2.0011                 8.1690
 Frc consts  --     0.0000                 0.0000                 0.0000
 IR Inten    --     0.0712                 2.4229                 6.7948
 Raman Activ --     0.0000                 0.0000                 0.0000
 Depolar     --     0.0000                 0.0000                 0.0000
 Atom AN      X      Y      Z        X      Y      Z        X      Y      Z
   1   6    -0.07  -0.04  -0.07    -0.01  -0.03  -0.10    -0.39   0.10   0.19
   2   6    -0.01   0.01   0.00     0.01   0.01  -0.01     0.17   0.20  -0.15
   3   8     0.02  -0.02  -0.00     0.06   0.00   0.22     0.19   0.23  -0.19
   4   1     0.19  -0.17   0.35     0.15  -0.17   0.26     0.16  -0.25  -0.02
   5   6     0.06   0.05   0.07    -0.05   0.01  -0.09     0.11  -0.42   0.06
   6   1    -0.01   0.01   0.00     0.02   0.03  -0.02     0.06   0.07  -0.04
   7   1    -0.25  -0.18  -0.20    -0.26  -0.19  -0.26    -0.15  -0.16   0.15
   8   1     0.12   0.40  -0.07     0.05   0.38  -0.10     0.06  -0.18   0.02
   9   1    -0.37  -0.13   0.13     0.36   0.08  -0.18    -0.16   0.05   0.07
  10   1     0.06  -0.10  -0.40    -0.10   0.09   0.34    -0.24   0.16   0.08
  11   1     0.23   0.18   0.19    -0.27  -0.19  -0.26    -0.13  -0.18   0.14
                      4                      5                      6
                        a                      a                      a 
 Frequencies --   421.9642               503.8609               817.5503
 Red. masses --    10.9991                 8.4287                 9.0724
 Frc consts  --     0.0000                 0.0000                 0.0000
 IR Inten    --    22.9048                 8.2540                11.8767
 Raman Activ --     0.0000                 0.0000                 0.0000
 Depolar     --     0.0000                 0.0000                 0.0000
 Atom AN      X      Y      Z        X      Y      Z        X      Y      Z
   1   6     0.07   0.35  -0.07    -0.05   0.26   0.02     0.20  -0.45   0.05
   2   6    -0.18   0.19   0.05    -0.24  -0.11  -0.47     0.01   0.11  -0.40
   3   8     0.44  -0.46  -0.11    -0.10  -0.19   0.36     0.17   0.17  -0.01
   4   1     0.01  -0.13  -0.06     0.00   0.05   0.16    -0.11   0.04   0.15
   5   6    -0.33  -0.08   0.13     0.26  -0.05  -0.06    -0.41   0.18   0.20
   6   1    -0.10   0.10   0.03    -0.00   0.04  -0.15     0.07   0.09  -0.09
   7   1    -0.21  -0.06   0.09     0.09   0.04   0.12    -0.19   0.08   0.22
   8   1    -0.16  -0.06   0.07     0.34  -0.07  -0.10     0.05  -0.03   0.01
   9   1     0.06   0.17  -0.04    -0.07   0.35   0.00    -0.02   0.05   0.02
  10   1     0.13  -0.02   0.02     0.09  -0.04   0.13     0.07  -0.14   0.11
  11   1     0.05   0.23  -0.05     0.08   0.06   0.13     0.11  -0.24   0.15
                      7                      8                      9
                        a                      a                      a 
 Frequencies --   873.8385               915.9729               977.1833
 Red. masses --     4.9859                 3.8761                 7.8651
 Frc consts  --     0.0000                 0.0000                 0.0000
 IR Inten    --    13.3158                 1.6568               129.4640
 Raman Activ --     0.0000                 0.0000                 0.0000
 Depolar     --     0.0000                 0.0000                 0.0000
 Atom AN      X      Y      Z        X      Y      Z        X      Y      Z
   1   6     0.06   0.21  -0.26    -0.07  -0.30  -0.07     0.27   0.07  -0.04
   2   6     0.25  -0.26  -0.06    -0.16   0.16   0.04     0.18   0.20  -0.10
   3   8     0.01  -0.01  -0.00    -0.05   0.05   0.01    -0.36  -0.37   0.12
   4   1    -0.22   0.15   0.08     0.22  -0.12  -0.31     0.25  -0.16  -0.21
   5   6    -0.15  -0.12   0.28     0.31   0.05   0.01     0.08   0.27   0.01
   6   1    -0.08   0.08   0.02    -0.24   0.25   0.06    -0.08  -0.07  -0.04
   7   1     0.23  -0.03  -0.27     0.02  -0.08  -0.18    -0.25   0.01   0.15
   8   1    -0.25   0.18   0.12    -0.30   0.06   0.13    -0.08  -0.07   0.06
   9   1    -0.19   0.28  -0.01    -0.07   0.33  -0.04    -0.06  -0.09   0.05
  10   1    -0.15   0.23   0.02     0.17  -0.29   0.21    -0.19   0.30  -0.10
  11   1     0.08  -0.29   0.19     0.12  -0.06   0.14     0.02  -0.28   0.08
                     10                     11                     12
                        a                      a                      a 
 Frequencies --  1064.3810              1116.0685              1160.0058
 Red. masses --     7.6498                 6.7404                10.2343
 Frc consts  --     0.0000                 0.0000                 0.0000
 IR Inten    --    61.3670                59.0610               360.2136
 Raman Activ --     0.0000                 0.0000                 0.0000
 Depolar     --     0.0000                 0.0000                 0.0000
 Atom AN      X      Y      Z        X      Y      Z        X      Y      Z
   1   6     0.30  -0.10   0.07    -0.01  -0.04  -0.31     0.16   0.09  -0.03
   2   6    -0.42   0.44   0.11     0.06  -0.08   0.55    -0.52  -0.49  -0.03
   3   8     0.08  -0.08  -0.02    -0.00   0.02  -0.09     0.32   0.29   0.03
   4   1    -0.17   0.12   0.13     0.03  -0.04   0.12     0.16  -0.11  -0.15
   5   6     0.06  -0.27  -0.16    -0.11   0.07  -0.28     0.09   0.16  -0.01
   6   1    -0.16   0.17   0.04     0.04   0.02   0.06    -0.08  -0.11   0.12
   7   1     0.24  -0.01  -0.16    -0.13   0.07   0.23    -0.15  -0.02   0.06
   8   1     0.14   0.05  -0.10     0.31  -0.14  -0.17    -0.08  -0.06   0.05
   9   1    -0.03  -0.16   0.08    -0.16   0.35  -0.05    -0.06  -0.09   0.04
  10   1    -0.13   0.20  -0.05    -0.01  -0.00   0.13    -0.13   0.19  -0.07
  11   1     0.03  -0.27   0.09     0.12  -0.18   0.16    -0.01  -0.16   0.02
                     13                     14                     15
                        a                      a                      a 
 Frequencies --  1308.1460              1348.5060              1352.4314
 Red. masses --     3.2116                 3.0729                 2.8027
 Frc consts  --     0.0000                 0.0000                 0.0000
 IR Inten    --   113.8197                 5.9916                41.8727
 Raman Activ --     0.0000                 0.0000                 0.0000
 Depolar     --     0.0000                 0.0000                 0.0000
 Atom AN      X      Y      Z        X      Y      Z        X      Y      Z
   1   6    -0.04   0.04  -0.19    -0.09   0.27  -0.04     0.11  -0.19   0.12
   2   6    -0.23   0.24   0.06     0.07  -0.08  -0.02    -0.10  -0.11   0.07
   3   8     0.03  -0.03  -0.01    -0.01   0.01   0.00    -0.06  -0.04  -0.08
   4   1     0.06  -0.04  -0.12     0.20  -0.21  -0.21     0.17  -0.16  -0.21
   5   6     0.01  -0.01   0.20    -0.25   0.08   0.14    -0.13   0.08   0.18
   6   1     0.56  -0.58  -0.15    -0.15   0.17   0.04     0.40   0.43  -0.22
   7   1     0.12  -0.03  -0.15     0.23   0.03  -0.23     0.16   0.00  -0.20
   8   1    -0.01   0.04   0.04     0.36  -0.09  -0.13     0.21  -0.04  -0.06
   9   1    -0.05   0.03  -0.03     0.09  -0.37   0.01    -0.04   0.23   0.01
  10   1     0.06  -0.08   0.09     0.23  -0.24   0.10    -0.20   0.23  -0.12
  11   1     0.05  -0.16   0.11     0.01  -0.28   0.16    -0.04   0.22  -0.16
                     16                     17                     18
                        a                      a                      a 
 Frequencies --  1372.6000              1478.1964              1486.0112
 Red. masses --     2.7399                 1.6267                 1.5967
 Frc consts  --     0.0000                 0.0000                 0.0000
 IR Inten    --    60.3653                 1.5585                 3.2731
 Raman Activ --     0.0000                 0.0000                 0.0000
 Depolar     --     0.0000                 0.0000                 0.0000
 Atom AN      X      Y      Z        X      Y      Z        X      Y      Z
   1   6    -0.01   0.21  -0.03    -0.05   0.03   0.15    -0.07   0.04   0.14
   2   6    -0.10  -0.12   0.10    -0.03   0.03   0.01    -0.01  -0.02   0.05
   3   8    -0.09  -0.07  -0.08     0.00  -0.00  -0.00     0.00   0.01  -0.00
   4   1    -0.10   0.12   0.14     0.22  -0.23   0.41    -0.21   0.22  -0.39
   5   6     0.20  -0.01  -0.09    -0.06   0.09  -0.13     0.07  -0.10   0.11
   6   1     0.44   0.48  -0.23     0.02  -0.02  -0.01    -0.00  -0.00   0.01
   7   1    -0.18  -0.02   0.16     0.28   0.12  -0.03    -0.26  -0.10   0.07
   8   1    -0.27   0.04   0.10    -0.24  -0.24   0.11     0.22   0.26  -0.11
   9   1     0.05  -0.29   0.02     0.22   0.25  -0.11     0.25   0.24  -0.12
  10   1     0.14  -0.13   0.08     0.10  -0.11  -0.48     0.10  -0.11  -0.49
  11   1     0.01  -0.21   0.11    -0.12  -0.27  -0.00    -0.09  -0.28   0.03
                     19                     20                     21
                        a                      a                      a 
 Frequencies --  1504.1058              1514.0501              2136.7611
 Red. masses --     1.6426                 1.6050                 1.6217
 Frc consts  --     0.0000                 0.0000                 0.0000
 IR Inten    --     0.1772                 2.8669               977.1661
 Raman Activ --     0.0000                 0.0000                 0.0000
 Depolar     --     0.0000                 0.0000                 0.0000
 Atom AN      X      Y      Z        X      Y      Z        X      Y      Z
   1   6     0.15   0.06   0.03    -0.15  -0.06  -0.05     0.01  -0.01   0.03
   2   6     0.01  -0.01  -0.00    -0.03  -0.03  -0.02     0.01  -0.04   0.19
   3   8     0.00  -0.00  -0.00     0.00   0.00  -0.00     0.08   0.08   0.00
   4   1     0.13  -0.14  -0.10     0.14  -0.15  -0.07     0.01   0.01   0.00
   5   6    -0.09  -0.14  -0.06    -0.08  -0.12  -0.06    -0.00   0.00   0.03
   6   1     0.01  -0.01  -0.00     0.01   0.01  -0.00    -0.37  -0.14  -0.89
   7   1     0.24   0.23   0.37     0.23   0.22   0.34     0.00  -0.01   0.00
   8   1    -0.06   0.46  -0.04    -0.08   0.40  -0.03    -0.02   0.01   0.01
   9   1    -0.39   0.05   0.15     0.41  -0.08  -0.16     0.01  -0.03   0.01
  10   1     0.14  -0.14   0.02    -0.17   0.17   0.01     0.01   0.00   0.00
  11   1    -0.31  -0.13  -0.32     0.34   0.15   0.34    -0.00   0.00   0.01
                     22                     23                     24
                        a                      a                      a 
 Frequencies --  2988.2909              2994.3521              3004.5499
 Red. masses --     1.7254                 1.7343                 1.9461
 Frc consts  --     0.0000                 0.0000                 0.0000
 IR Inten    --     0.3670               251.4003                36.1247
 Raman Activ --     0.0000                 0.0000                 0.0000
 Depolar     --     0.0000                 0.0000                 0.0000
 Atom AN      X      Y      Z        X      Y      Z        X      Y      Z
   1   6     0.14   0.11  -0.02     0.14   0.11   0.00    -0.00   0.06   0.20
   2   6     0.00  -0.00  -0.00     0.01   0.01   0.00    -0.00   0.00   0.00
   3   8    -0.00   0.00   0.00     0.00   0.00  -0.00    -0.00   0.00   0.00
   4   1     0.48   0.49   0.02    -0.47  -0.49  -0.02     0.04   0.07  -0.02
   5   6    -0.11  -0.14   0.01     0.12   0.13   0.01    -0.10   0.05  -0.17
   6   1    -0.00   0.00   0.00    -0.00  -0.00  -0.01     0.00  -0.00  -0.00
   7   1    -0.05   0.04  -0.02     0.03  -0.01   0.02     0.13  -0.33   0.10
   8   1    -0.04  -0.03  -0.05     0.01   0.02  -0.02     0.20   0.08   0.52
   9   1     0.04   0.02   0.04     0.02   0.01  -0.02    -0.21  -0.06  -0.52
  10   1    -0.51  -0.45  -0.01    -0.51  -0.45  -0.01    -0.07  -0.05   0.03
  11   1    -0.03   0.04   0.04    -0.01   0.03   0.03     0.28  -0.10  -0.21
                     25                     26                     27
                        a                      a                      a 
 Frequencies --  3008.9312              3017.5513              3019.8468
 Red. masses --     1.8959                 1.4536                 1.4490
 Frc consts  --     0.0000                 0.0000                 0.0000
 IR Inten    --   211.5794               115.4517                30.8398
 Raman Activ --     0.0000                 0.0000                 0.0000
 Depolar     --     0.0000                 0.0000                 0.0000
 Atom AN      X      Y      Z        X      Y      Z        X      Y      Z
   1   6     0.01  -0.04  -0.20     0.14  -0.03  -0.00     0.14  -0.04  -0.01
   2   6    -0.00   0.00  -0.01     0.01  -0.01  -0.00     0.00   0.00  -0.00
   3   8     0.00   0.00   0.00    -0.00   0.00   0.00    -0.00  -0.00  -0.00
   4   1    -0.02   0.01  -0.03    -0.02  -0.04  -0.01     0.02   0.05   0.01
   5   6    -0.09   0.06  -0.17     0.02  -0.14  -0.04    -0.03   0.13   0.03
   6   1     0.00   0.00  -0.00     0.00  -0.00  -0.00     0.00  -0.00   0.01
   7   1     0.12  -0.31   0.09    -0.22   0.50  -0.21     0.21  -0.50   0.20
   8   1     0.21   0.08   0.54     0.15   0.02   0.37    -0.13  -0.02  -0.32
   9   1     0.22   0.07   0.54    -0.12  -0.05  -0.35    -0.11  -0.05  -0.34
  10   1     0.00  -0.01  -0.03     0.04   0.02  -0.00     0.05   0.02  -0.00
  11   1    -0.27   0.09   0.19    -0.40   0.16   0.35    -0.44   0.17   0.38
