11
 energy: -14.315333784393 gnorm: 0.049191439478 xtb: 6.7.1 (edcfbbe)
C           -3.70614300000000       -4.00337300000000       -2.67455000000000
C           -4.22442900000000       -2.60399800000000       -3.14501300000000
O           -3.27220900000000       -1.67630300000000       -3.20318600000000
H           -6.26464200000000       -2.94711600000000       -2.20959400000000
C           -5.43102400000000       -2.20689800000000       -2.23008900000000
H           -4.74806800000000       -2.85454100000000       -4.16577000000000
H           -5.83614800000000       -1.22878800000000       -2.56933100000000
H           -5.05992700000000       -2.05934600000000       -1.18934400000000
H           -3.28829700000000       -3.90578800000000       -1.64572200000000
H           -4.47608100000000       -4.80992500000000       -2.67071700000000
H           -2.86830200000000       -4.31823200000000       -3.33407800000000
11
 energy: -14.318893620916 gnorm: 0.016500989102 xtb: 6.7.1 (edcfbbe)
C           -3.70277698459586       -4.00157469659304       -2.65949909648106
C           -4.24178782645522       -2.62102678991160       -3.14308128062500
O           -3.29633253204710       -1.69277101068643       -3.22653431614670
H           -6.22052165151038       -2.95921846262888       -2.22110086137333
C           -5.42511193384561       -2.20754117015909       -2.21569270891768
H           -4.72371706667915       -2.82521192563035       -4.18659072820753
H           -5.83160225881193       -1.25172588839751       -2.56032587195826
H           -5.05911846863367       -2.06986257940251       -1.19235498402731
H           -3.29905234841536       -3.90394996090103       -1.64576161634081
H           -4.48742352031538       -4.76450827643560       -2.66811824358930
H           -2.88782540869035       -4.31691723925395       -3.31833429233301
11
 energy: -14.319275882735 gnorm: 0.006526829938 xtb: 6.7.1 (edcfbbe)
C           -3.71001612375542       -3.99979987279600       -2.65618705559310
C           -4.23383604588586       -2.61483976951787       -3.13654406658807
O           -3.28769632684208       -1.68028884383033       -3.24236552261707
H           -6.19965066469269       -2.97661735175243       -2.22770506542021
C           -5.42311488305364       -2.21554352496111       -2.21475845210326
H           -4.71669019432268       -2.82269095455440       -4.17068074911470
H           -5.83122980528400       -1.26900864531516       -2.55837097631897
H           -5.04982164695624       -2.08405330451047       -1.20330769042473
H           -3.31460616350502       -3.89195681294435       -1.65032554716228
H           -4.50450518872994       -4.74223338226515       -2.66497542259088
H           -2.90410295697244       -4.31727553755272       -3.31217345206674
11
 energy: -14.319319375878 gnorm: 0.002796212562 xtb: 6.7.1 (edcfbbe)
C           -3.71021865946609       -3.99834111901444       -2.65524084968354
C           -4.23558334545679       -2.61481324072695       -3.14351231917579
O           -3.28693447836905       -1.67947165734803       -3.24248647870254
H           -6.19566280328152       -2.98006386496140       -2.22947165399096
C           -5.42148979161877       -2.21603101109126       -2.21437501571977
H           -4.71726145048782       -2.82166134592129       -4.17697719956930
H           -5.83358160762150       -1.26871526888942       -2.55354014007692
H           -5.04672261127994       -2.08729463807218       -1.20165033079743
H           -3.31682410040685       -3.88927795100130       -1.64727200719547
H           -4.50801169772286       -4.73780746066483       -2.66442604225750
H           -2.90297945428882       -4.32083044230890       -3.30844196283078
11
 energy: -14.319328063025 gnorm: 0.001467113252 xtb: 6.7.1 (edcfbbe)
C           -3.70893018225535       -3.99964861391461       -2.65617679866447
C           -4.23635511759526       -2.61555918248260       -3.14346989483946
O           -3.28651023430673       -1.67928018226929       -3.24141220422175
H           -6.19642800757115       -2.97928466478114       -2.22933635039197
C           -5.42290971408697       -2.21457753790495       -2.21467636406197
H           -4.71605738382070       -2.82094799779823       -4.17536405504837
H           -5.83671015294438       -1.26729450449827       -2.55328586441149
H           -5.04755079187001       -2.08525280107035       -1.20175088495067
H           -3.31455399941002       -3.88993475779064       -1.64818068035035
H           -4.50731177021123       -4.73847030787648       -2.66426869124322
H           -2.90195264592819       -4.32405744961344       -3.30947221181627
11
 energy: -14.319332475860 gnorm: 0.000711655426 xtb: 6.7.1 (edcfbbe)
C           -3.71011536668742       -3.99988763816150       -2.65610561804106
C           -4.23665909911845       -2.61555210961729       -3.14458787788818
O           -3.28510616226617       -1.67817084230993       -3.24016846642971
H           -6.19659615685173       -2.98064974903983       -2.22781100351254
C           -5.42326106997339       -2.21581058192728       -2.21489700198901
H           -4.71281900436799       -2.81811303643552       -4.17458441531386
H           -5.83752915661037       -1.26920253661202       -2.55488305187739
H           -5.04723587930333       -2.08423894182240       -1.20238754626220
H           -3.31304630523383       -3.88917878135370       -1.64915904490105
H           -4.50832948778557       -4.73880168251749       -2.66183332869580
H           -2.90457231180175       -4.32470210020305       -3.31097664508919
