2
 energy: -5.113619381551 gnorm: 0.000059787697 xtb: 6.7.1 (edcfbbe)
N           -7.00263829945995       -1.58175522491904       -2.58996066464295
C           -7.23782475094846       -2.75730679650865       -2.64504436143029
