2
 energy: -5.045149875632 gnorm: 0.305039292630 xtb: 6.7.1 (edcfbbe)
N           -6.97782902438577       -1.45774900721872       -2.58415001280884
C           -7.26263402602264       -2.88131301420897       -2.65085501326440
2
 energy: -5.111234965579 gnorm: 0.090589701879 xtb: 6.7.1 (edcfbbe)
N           -6.99893873969011       -1.56326341438278       -2.58909418008434
C           -7.24152431071830       -2.77579860704491       -2.64591084598889
2
 energy: -5.108060892424 gnorm: 0.169944512277 xtb: 6.7.1 (edcfbbe)
N           -7.00772798239938       -1.60719540117272       -2.59115273395649
C           -7.23273506800903       -2.73186662025498       -2.64385229211675
2
 energy: -5.113550442193 gnorm: 0.016547098443 xtb: 6.7.1 (edcfbbe)
N           -7.00202944900661       -1.57871195817151       -2.58981806402311
C           -7.23843360140180       -2.76035006325618       -2.64518696205013
2
 energy: -5.113617445106 gnorm: 0.002806171249 xtb: 6.7.1 (edcfbbe)
N           -7.00253504655270       -1.58123912751369       -2.58993648148189
C           -7.23792800385571       -2.75782289391400       -2.64506854459135
2
 energy: -5.113619381550 gnorm: 0.000059885922 xtb: 6.7.1 (edcfbbe)
N           -7.00263829945995       -1.58175522491904       -2.58996066464295
C           -7.23782475094846       -2.75730679650865       -2.64504436143029
