
                                 *****************
                                 * O   R   C   A *
                                 *****************

                                            #,                                       
                                            ###                                      
                                            ####                                     
                                            #####                                    
                                            ######                                   
                                           ########,                                 
                                     ,,################,,,,,                         
                               ,,#################################,,                 
                          ,,##########################################,,             
                       ,#########################################, ''#####,          
                    ,#############################################,,   '####,        
                  ,##################################################,,,,####,       
                ,###########''''           ''''###############################       
              ,#####''   ,,,,##########,,,,          '''####'''          '####       
            ,##' ,,,,###########################,,,                        '##       
           ' ,,###''''                  '''############,,,                           
         ,,##''                                '''############,,,,        ,,,,,,###''
      ,#''                                            '''#######################'''  
     '                                                          ''''####''''         
             ,#######,   #######,   ,#######,      ##                                
            ,#'     '#,  ##    ##  ,#'     '#,    #''#        ######   ,####,        
            ##       ##  ##   ,#'  ##            #'  '#       #        #'  '#        
            ##       ##  #######   ##           ,######,      #####,   #    #        
            '#,     ,#'  ##    ##  '#,     ,#' ,#      #,         ##   #,  ,#        
             '#######'   ##     ##  '#######'  #'      '#     #####' # '####'        



                  #######################################################
                  #                        -***-                        #
                  #          Department of theory and spectroscopy      #
                  #    Directorship and core code : Frank Neese         #
                  #        Max Planck Institute fuer Kohlenforschung    #
                  #                Kaiser Wilhelm Platz 1               #
                  #                 D-45470 Muelheim/Ruhr               #
                  #                      Germany                        #
                  #                                                     #
                  #                  All rights reserved                #
                  #                        -***-                        #
                  #######################################################


                         Program Version 5.0.4 -  RELEASE  -


 With contributions from (in alphabetic order):
   Daniel Aravena         : Magnetic Suceptibility
   Michael Atanasov       : Ab Initio Ligand Field Theory (pilot matlab implementation)
   Alexander A. Auer      : GIAO ZORA, VPT2 properties, NMR spectrum
   Ute Becker             : Parallelization
   Giovanni Bistoni       : ED, misc. LED, open-shell LED, HFLD
   Martin Brehm           : Molecular dynamics
   Dmytro Bykov           : SCF Hessian
   Vijay G. Chilkuri      : MRCI spin determinant printing, contributions to CSF-ICE
   Dipayan Datta          : RHF DLPNO-CCSD density
   Achintya Kumar Dutta   : EOM-CC, STEOM-CC
   Dmitry Ganyushin       : Spin-Orbit,Spin-Spin,Magnetic field MRCI
   Miquel Garcia          : C-PCM and meta-GGA Hessian, CC/C-PCM, Gaussian charge scheme
   Yang Guo               : DLPNO-NEVPT2, F12-NEVPT2, CIM, IAO-localization
   Andreas Hansen         : Spin unrestricted coupled pair/coupled cluster methods
   Benjamin Helmich-Paris : MC-RPA, TRAH-SCF, COSX integrals
   Lee Huntington         : MR-EOM, pCC
   Robert Izsak           : Overlap fitted RIJCOSX, COSX-SCS-MP3, EOM
   Marcus Kettner         : VPT2
   Christian Kollmar      : KDIIS, OOCD, Brueckner-CCSD(T), CCSD density, CASPT2, CASPT2-K
   Simone Kossmann        : Meta GGA functionals, TD-DFT gradient, OOMP2, MP2 Hessian
   Martin Krupicka        : Initial AUTO-CI
   Lucas Lang             : DCDCAS
   Marvin Lechner         : AUTO-CI (C++ implementation), FIC-MRCC
   Dagmar Lenk            : GEPOL surface, SMD
   Dimitrios Liakos       : Extrapolation schemes; Compound Job, initial MDCI parallelization
   Dimitrios Manganas     : Further ROCIS development; embedding schemes
   Dimitrios Pantazis     : SARC Basis sets
   Anastasios Papadopoulos: AUTO-CI, single reference methods and gradients
   Taras Petrenko         : DFT Hessian,TD-DFT gradient, ASA, ECA, R-Raman, ABS, FL, XAS/XES, NRVS
   Peter Pinski           : DLPNO-MP2, DLPNO-MP2 Gradient
   Christoph Reimann      : Effective Core Potentials
   Marius Retegan         : Local ZFS, SOC
   Christoph Riplinger    : Optimizer, TS searches, QM/MM, DLPNO-CCSD(T), (RO)-DLPNO pert. Triples
   Tobias Risthaus        : Range-separated hybrids, TD-DFT gradient, RPA, STAB
   Michael Roemelt        : Original ROCIS implementation
   Masaaki Saitow         : Open-shell DLPNO-CCSD energy and density
   Barbara Sandhoefer     : DKH picture change effects
   Avijit Sen             : IP-ROCIS
   Kantharuban Sivalingam : CASSCF convergence, NEVPT2, FIC-MRCI
   Bernardo de Souza      : ESD, SOC TD-DFT
   Georgi Stoychev        : AutoAux, RI-MP2 NMR, DLPNO-MP2 response
   Willem Van den Heuvel  : Paramagnetic NMR
   Boris Wezisla          : Elementary symmetry handling
   Frank Wennmohs         : Technical directorship


 We gratefully acknowledge several colleagues who have allowed us to
 interface, adapt or use parts of their codes:
   Stefan Grimme, W. Hujo, H. Kruse, P. Pracht,  : VdW corrections, initial TS optimization,
                  C. Bannwarth, S. Ehlert          DFT functionals, gCP, sTDA/sTD-DF
   Ed Valeev, F. Pavosevic, A. Kumar             : LibInt (2-el integral package), F12 methods
   Garnet Chan, S. Sharma, J. Yang, R. Olivares  : DMRG
   Ulf Ekstrom                                   : XCFun DFT Library
   Mihaly Kallay                                 : mrcc  (arbitrary order and MRCC methods)
   Jiri Pittner, Ondrej Demel                    : Mk-CCSD
   Frank Weinhold                                : gennbo (NPA and NBO analysis)
   Christopher J. Cramer and Donald G. Truhlar   : smd solvation model
   Lars Goerigk                                  : TD-DFT with DH, B97 family of functionals
   V. Asgeirsson, H. Jonsson                     : NEB implementation
   FAccTs GmbH                                   : IRC, NEB, NEB-TS, DLPNO-Multilevel, CI-OPT
                                                   MM, QMMM, 2- and 3-layer-ONIOM, Crystal-QMMM,
                                                   LR-CPCM, SF, NACMEs, symmetry and pop. for TD-DFT,
                                                   nearIR, NL-DFT gradient (VV10), updates on ESD,
                                                   ML-optimized integration grids
   S Lehtola, MJT Oliveira, MAL Marques          : LibXC Library
   Liviu Ungur et al                             : ANISO software


 Your calculation uses the libint2 library for the computation of 2-el integrals
 For citations please refer to: http://libint.valeyev.net

 Your ORCA version has been built with support for libXC version: 5.1.0
 For citations please refer to: https://tddft.org/programs/libxc/

 This ORCA versions uses:
   CBLAS   interface :  Fast vector & matrix operations
   LAPACKE interface :  Fast linear algebra routines
   SCALAPACK package :  Parallel linear algebra routines
   Shared memory     :  Shared parallel matrices
   BLAS/LAPACK       :  OpenBLAS 0.3.15  USE64BITINT DYNAMIC_ARCH NO_AFFINITY Haswell SINGLE_THREADED
        Core in use  :  Haswell
   Copyright (c) 2011-2014, The OpenBLAS Project


Your calculation utilizes the atom-pairwise dispersion correction
with the Becke-Johnson damping scheme (D3BJ)
Cite in your paper:
S.Grimme, S.Ehrlich, L.Goerigk, J Comput Chem, (2011), 32, 1456–1465 
S.Grimme, J.Antony, S.Ehrlich and H.Krieg, J.Chem.Phys., 132, (2010), 154104 
   

================================================================================

----- Orbital basis set information -----
Your calculation utilizes the basis: def2-TZVP
   F. Weigend and R. Ahlrichs, Phys. Chem. Chem. Phys. 7, 3297 (2005).

----- AuxJ basis set information -----
Your calculation utilizes the auxiliary basis: def2/J
   F. Weigend, Phys. Chem. Chem. Phys. 8, 1057 (2006).

================================================================================
                                        WARNINGS
                       Please study these warnings very carefully!
================================================================================

WARNING: Old DensityContainer found on disk!
         Will remove this file - 
         If you want to keep old densities, please start your calculation with a different basename. 


WARNING: Geometry Optimization
  ===> : Switching off AutoStart
         For restart on a previous wavefunction, please use MOREAD

INFO   : the flag for use of the SHARK integral package has been found!

================================================================================
                                       INPUT FILE
================================================================================
NAME = inp.inp
|  1> !OPT PBE D3BJ def2-TZVP CPCM(water)
|  2> 
|  3> *xyz -1 1
|  4> N     -6.637576   -2.953975    3.328416
|  5> C     -5.521338   -2.625639    2.514529
|  6> H     -5.739588   -2.620117    1.462929
|  7> O     -7.719825   -3.098383    2.753622
|  8> H     -4.590453   -2.594577    3.049349
|  9> O     -6.427343   -3.066934    4.538968
| 10> *
| 11> 
| 12>                          ****END OF INPUT****
================================================================================

                       *****************************
                       * Geometry Optimization Run *
                       *****************************

Geometry optimization settings:
Update method            Update   .... BFGS
Choice of coordinates    CoordSys .... Z-matrix Internals
Initial Hessian          InHess   .... Almoef's Model

Convergence Tolerances:
Energy Change            TolE     ....  5.0000e-06 Eh
Max. Gradient            TolMAXG  ....  3.0000e-04 Eh/bohr
RMS Gradient             TolRMSG  ....  1.0000e-04 Eh/bohr
Max. Displacement        TolMAXD  ....  4.0000e-03 bohr
RMS Displacement         TolRMSD  ....  2.0000e-03 bohr
Strict Convergence                ....  False
------------------------------------------------------------------------------
                        ORCA OPTIMIZATION COORDINATE SETUP
------------------------------------------------------------------------------

The optimization will be done in new redundant internal coordinates
Making redundant internal coordinates   ...  (new redundants) done
Evaluating the initial hessian          ...  (Almloef) done
Evaluating the coordinates              ...  done
Calculating the B-matrix                .... done
Calculating the G-matrix                .... done
Diagonalizing the G-matrix              .... done
The first mode is                       ....    3
The number of degrees of freedom        ....   12

    -----------------------------------------------------------------
                    Redundant Internal Coordinates


    -----------------------------------------------------------------
         Definition                    Initial Value    Approx d2E/dq
    -----------------------------------------------------------------
      1. B(C   1,N   0)                  1.4199         0.501329   
      2. B(H   2,C   1)                  1.0740         0.381868   
      3. B(O   3,N   0)                  1.2339         0.889330   
      4. B(H   4,C   1)                  1.0740         0.381856   
      5. B(O   5,N   0)                  1.2339         0.889477   
      6. A(O   3,N   0,O   5)          126.5676         0.481954   
      7. A(C   1,N   0,O   5)          116.7172         0.437063   
      8. A(C   1,N   0,O   3)          116.7152         0.437050   
      9. A(N   0,C   1,H   4)          113.7416         0.341783   
     10. A(H   2,C   1,H   4)          131.5700         0.296272   
     11. A(N   0,C   1,H   2)          113.7448         0.341785   
     12. D(H   2,C   1,N   0,O   5)    175.1493         0.019873   
     13. D(H   4,C   1,N   0,O   3)   -175.0050         0.019873   
     14. D(H   4,C   1,N   0,O   5)      4.9507         0.019873   
     15. D(H   2,C   1,N   0,O   3)     -4.8065         0.019873   
    -----------------------------------------------------------------

Number of atoms                         .... 6
Number of degrees of freedom            .... 15

         *************************************************************
         *                GEOMETRY OPTIMIZATION CYCLE   1            *
         *************************************************************
---------------------------------
CARTESIAN COORDINATES (ANGSTROEM)
---------------------------------
  N     -6.637576   -2.953975    3.328416
  C     -5.521338   -2.625639    2.514529
  H     -5.739588   -2.620117    1.462929
  O     -7.719825   -3.098383    2.753622
  H     -4.590453   -2.594577    3.049349
  O     -6.427343   -3.066934    4.538968

----------------------------
CARTESIAN COORDINATES (A.U.)
----------------------------
  NO LB      ZA    FRAG     MASS         X           Y           Z
   0 N     7.0000    0    14.007  -12.543201   -5.582204    6.289795
   1 C     6.0000    0    12.011  -10.433817   -4.961739    4.751771
   2 H     1.0000    0     1.008  -10.846249   -4.951304    2.764535
   3 O     8.0000    0    15.999  -14.588355   -5.855095    5.203591
   4 H     1.0000    0     1.008   -8.674699   -4.903040    5.762434
   5 O     8.0000    0    15.999  -12.145918   -5.795665    8.577406

--------------------------------
INTERNAL COORDINATES (ANGSTROEM)
--------------------------------
 N      0   0   0     0.000000000000     0.00000000     0.00000000
 C      1   0   0     1.419930931528     0.00000000     0.00000000
 H      2   1   0     1.074023330745   113.74479991     0.00000000
 O      1   2   3     1.233898176877   116.71519237   355.19354017
 H      2   1   3     1.074031732990   113.74161643   189.80144703
 O      1   2   3     1.233853230605   116.71721441   175.14928087

---------------------------
INTERNAL COORDINATES (A.U.)
---------------------------
 N      0   0   0     0.000000000000     0.00000000     0.00000000
 C      1   0   0     2.683280589671     0.00000000     0.00000000
 H      2   1   0     2.029609956549   113.74479991     0.00000000
 O      1   2   3     2.331729631443   116.71519237   355.19354017
 H      2   1   3     2.029625834491   113.74161643   189.80144703
 O      1   2   3     2.331644695297   116.71721441   175.14928087

---------------------
BASIS SET INFORMATION
---------------------
There are 4 groups of distinct atoms

 Group   1 Type N   : 11s6p2d1f contracted to 5s3p2d1f pattern {62111/411/11/1}
 Group   2 Type C   : 11s6p2d1f contracted to 5s3p2d1f pattern {62111/411/11/1}
 Group   3 Type H   : 5s1p contracted to 3s1p pattern {311/1}
 Group   4 Type O   : 11s6p2d1f contracted to 5s3p2d1f pattern {62111/411/11/1}

Atom   0N    basis set group =>   1
Atom   1C    basis set group =>   2
Atom   2H    basis set group =>   3
Atom   3O    basis set group =>   4
Atom   4H    basis set group =>   3
Atom   5O    basis set group =>   4
---------------------------------
AUXILIARY/J BASIS SET INFORMATION
---------------------------------
There are 4 groups of distinct atoms

 Group   1 Type N   : 12s5p4d2f1g contracted to 6s4p3d1f1g pattern {711111/2111/211/2/1}
 Group   2 Type C   : 12s5p4d2f1g contracted to 6s4p3d1f1g pattern {711111/2111/211/2/1}
 Group   3 Type H   : 5s2p1d contracted to 3s1p1d pattern {311/2/1}
 Group   4 Type O   : 12s5p4d2f1g contracted to 6s4p3d1f1g pattern {711111/2111/211/2/1}

Atom   0N    basis set group =>   1
Atom   1C    basis set group =>   2
Atom   2H    basis set group =>   3
Atom   3O    basis set group =>   4
Atom   4H    basis set group =>   3
Atom   5O    basis set group =>   4
------------------------------------------------------------------------------
                           ORCA GTO INTEGRAL CALCULATION
                           -- RI-GTO INTEGRALS CHOSEN --
------------------------------------------------------------------------------
------------------------------------------------------------------------------
                   ___                                                        
                  /   \      - P O W E R E D   B Y -                         
                 /     \                                                     
                 |  |  |   _    _      __       _____    __    __             
                 |  |  |  | |  | |    /  \     |  _  \  |  |  /  |          
                  \  \/   | |  | |   /    \    | | | |  |  | /  /          
                 / \  \   | |__| |  /  /\  \   | |_| |  |  |/  /          
                |  |  |   |  __  | /  /__\  \  |    /   |      \           
                |  |  |   | |  | | |   __   |  |    \   |  |\   \          
                \     /   | |  | | |  |  |  |  | |\  \  |  | \   \       
                 \___/    |_|  |_| |__|  |__|  |_| \__\ |__|  \__/        
                                                                              
                      - O R C A' S   B I G   F R I E N D -                    
                                      &                                       
                       - I N T E G R A L  F E E D E R -                       
                                                                              
 v1 FN, 2020, v2 2021                                                         
------------------------------------------------------------------------------


Reading SHARK input file inp.SHARKINP.tmp ... ok
----------------------
SHARK INTEGRAL PACKAGE
----------------------

Number of atoms                             ...      6
Number of basis functions                   ...    136
Number of shells                            ...     52
Maximum angular momentum                    ...      3
Integral batch strategy                     ... SHARK/LIBINT Hybrid
RI-J (if used) integral strategy            ... SPLIT-RIJ (Revised 2003 algorithm where possible)
Printlevel                                  ...      1
Contraction scheme used                     ... SEGMENTED contraction
Coulomb Range Separation                    ... NOT USED
Exchange Range Separation                   ... NOT USED
Finite Nucleus Model                        ... NOT USED
Auxiliary Coulomb fitting basis             ... AVAILABLE
   # of basis functions in Aux-J            ...    218
   # of shells in Aux-J                     ...     70
   Maximum angular momentum in Aux-J        ...      4
Auxiliary J/K fitting basis                 ... NOT available
Auxiliary Correlation fitting basis         ... NOT available
Auxiliary 'external' fitting basis          ... NOT available
Integral threshold                          ...     2.500000e-11
Primitive cut-off                           ...     2.500000e-12
Primitive pair pre-selection threshold      ...     2.500000e-12

Calculating pre-screening integrals         ... done (  0.0 sec) Dimension = 52
Organizing shell pair data                  ... done (  0.1 sec)
Shell pair information
Total number of shell pairs                 ...      1378
Shell pairs after pre-screening             ...      1353
Total number of primitive shell pairs       ...      4372
Primitive shell pairs kept                  ...      3535
          la=0 lb=0:    332 shell pairs
          la=1 lb=0:    362 shell pairs
          la=1 lb=1:    105 shell pairs
          la=2 lb=0:    204 shell pairs
          la=2 lb=1:    112 shell pairs
          la=2 lb=2:     36 shell pairs
          la=3 lb=0:    104 shell pairs
          la=3 lb=1:     56 shell pairs
          la=3 lb=2:     32 shell pairs
          la=3 lb=3:     10 shell pairs

Calculating one electron integrals          ... done (  0.0 sec)
Calculating RI/J V-Matrix + Cholesky decomp.... done (  0.1 sec)
Calculating Nuclear repulsion               ... done (  0.0 sec) ENN=    117.400585369346 Eh

SHARK setup successfully completed in   0.8 seconds

Maximum memory used throughout the entire GTOINT-calculation: 26.9 MB
-------------------------------------------------------------------------------
                                 ORCA SCF
-------------------------------------------------------------------------------

------------
SCF SETTINGS
------------
Hamiltonian:
 Density Functional     Method          .... DFT(GTOs)
 Exchange Functional    Exchange        .... PBE
   PBE kappa parameter   XKappa         ....  0.804000
   PBE mue parameter    XMuePBE         ....  0.219520
 Correlation Functional Correlation     .... PBE
   PBE beta parameter  CBetaPBE         ....  0.066725
 LDA part of GGA corr.  LDAOpt          .... PW91-LDA
 Gradients option       PostSCFGGA      .... off
   Density functional embedding theory  .... OFF
   NL short-range parameter             ....  6.400000
 RI-approximation to the Coulomb term is turned on
   Number of AuxJ basis functions       .... 218


General Settings:
 Integral files         IntName         .... inp
 Hartree-Fock type      HFTyp           .... RHF
 Total Charge           Charge          ....   -1
 Multiplicity           Mult            ....    1
 Number of Electrons    NEL             ....   32
 Basis Dimension        Dim             ....  136
 Nuclear Repulsion      ENuc            ....    117.4005853693 Eh

Convergence Acceleration:
 DIIS                   CNVDIIS         .... on
   Start iteration      DIISMaxIt       ....    12
   Startup error        DIISStart       ....  0.200000
   # of expansion vecs  DIISMaxEq       ....     5
   Bias factor          DIISBfac        ....   1.050
   Max. coefficient     DIISMaxC        ....  10.000
 Trust-Rad. Augm. Hess. CNVTRAH         .... auto
   Auto Start mean grad. ratio tolernc. ....  1.125000
   Auto Start start iteration           ....    20
   Auto Start num. interpolation iter.  ....    10
   Max. Number of Micro iterations      ....    16
   Max. Number of Macro iterations      .... Maxiter - #DIIS iter
   Number of Davidson start vectors     ....     2
   Converg. threshold I  (grad. norm)   ....   1.000e-05
   Converg. threshold II (energy diff.) ....   1.000e-08
   Grad. Scal. Fac. for Micro threshold ....   0.100
   Minimum threshold for Micro iter.    ....   0.010
   NR start threshold (gradient norm)   ....   0.001
   Initial trust radius                 ....   0.400
   Minimum AH scaling param. (alpha)    ....   1.000
   Maximum AH scaling param. (alpha)    .... 1000.000
   Orbital update algorithm             .... Taylor
   White noise on init. David. guess    .... on
   Maximum white noise                  ....   0.010
   Quad. conv. algorithm                .... NR
 SOSCF                  CNVSOSCF        .... on
   Start iteration      SOSCFMaxIt      ....   150
   Startup grad/error   SOSCFStart      ....  0.003300
 Level Shifting         CNVShift        .... on
   Level shift para.    LevelShift      ....    0.2500
   Turn off err/grad.   ShiftErr        ....    0.0010
 Zerner damping         CNVZerner       .... off
 Static damping         CNVDamp         .... on
   Fraction old density DampFac         ....    0.7000
   Max. Damping (<1)    DampMax         ....    0.9800
   Min. Damping (>=0)   DampMin         ....    0.0000
   Turn off err/grad.   DampErr         ....    0.1000
 Fernandez-Rico         CNVRico         .... off

SCF Procedure:
 Maximum # iterations   MaxIter         ....   125
 SCF integral mode      SCFMode         .... Direct
   Integral package                     .... SHARK and LIBINT hybrid scheme
 Reset frequency        DirectResetFreq ....    20
 Integral Threshold     Thresh          ....  2.500e-11 Eh
 Primitive CutOff       TCut            ....  2.500e-12 Eh

Convergence Tolerance:
 Convergence Check Mode ConvCheckMode   .... Total+1el-Energy
 Convergence forced     ConvForced      .... 0
 Energy Change          TolE            ....  1.000e-08 Eh
 1-El. energy change                    ....  1.000e-05 Eh
 Orbital Gradient       TolG            ....  1.000e-05
 Orbital Rotation angle TolX            ....  1.000e-05
 DIIS Error             TolErr          ....  5.000e-07


Diagonalization of the overlap matrix:
Smallest eigenvalue                        ... 8.670e-04
Time for diagonalization                   ...    0.003 sec
Threshold for overlap eigenvalues          ... 1.000e-08
Number of eigenvalues below threshold      ... 0
Time for construction of square roots      ...    0.082 sec
Total time needed                          ...    0.085 sec

Time for model grid setup =    0.149 sec

------------------------------
INITIAL GUESS: MODEL POTENTIAL
------------------------------
Loading Hartree-Fock densities                     ... done
Calculating cut-offs                               ... done
Initializing the effective Hamiltonian             ... done
Setting up the integral package (SHARK)            ... done
Starting the Coulomb interaction                   ... done (   0.1 sec)
Reading the grid                                   ... done
Mapping shells                                     ... done
Starting the XC term evaluation                    ... done (   0.1 sec)
  promolecular density results
     # of electrons  =     30.999458578
     EX              =    -28.490587937
     EC              =     -1.038310491
     EX+EC           =    -29.528898427
Transforming the Hamiltonian                       ... done (   0.0 sec)
Diagonalizing the Hamiltonian                      ... done (   0.0 sec)
Back transforming the eigenvectors                 ... done (   0.0 sec)
Now organizing SCF variables                       ... done
                      ------------------
                      INITIAL GUESS DONE (   0.3 sec)
                      ------------------
-------------------
DFT GRID GENERATION
-------------------

General Integration Accuracy     IntAcc      ... 4.388
Radial Grid Type                 RadialGrid  ... OptM3 with GC (2021)
Angular Grid (max. ang.)         AngularGrid ... 4 (Lebedev-302)
Angular grid pruning method      GridPruning ... 4 (adaptive)
Weight generation scheme         WeightScheme... Becke
Basis function cutoff            BFCut       ... 1.0000e-11
Integration weight cutoff        WCut        ... 1.0000e-14
Angular grids for H and He will be reduced by one unit
Partially contracted basis set               ... off
Rotationally invariant grid construction     ... off

Total number of grid points                  ...    30975
Total number of batches                      ...      486
Average number of points per batch           ...       63
Average number of grid points per atom       ...     5162
Time for grid setup =    0.341 sec


--------------------
CPCM SOLVATION MODEL
--------------------
CPCM parameters:
  Epsilon                                         ...      80.4000
  Refrac                                          ...       1.3300
  Rsolv                                           ...       1.3000
  Surface type                                    ... GAUSSIAN VDW
  Epsilon function type                           ...         CPCM
Radii:
 Radius for N  used is    3.5149 Bohr (=   1.8600 Ang.)
 Radius for C  used is    3.8550 Bohr (=   2.0400 Ang.)
 Radius for H  used is    2.4944 Bohr (=   1.3200 Ang.)
 Radius for O  used is    3.4469 Bohr (=   1.8240 Ang.)
Calculating surface                               ...        done! (  0.0s)
GEPOL surface points                              ...          402
GEPOL Volume                                      ...     488.5525
GEPOL Surface-area                                ...     328.3873
Calculating surface distance matrix               ...        done! (  0.0s)
Performing Cholesky decomposition & store         ...        done! (  0.1s)
Overall time for CPCM initialization              ...                 0.1s
--------------
SCF ITERATIONS
--------------
ITER       Energy         Delta-E        Max-DP      RMS-DP      [F,P]     Damp
               ***  Starting incremental Fock matrix formation  ***
  0   -244.1862361244   0.000000000000 0.05413038  0.00209445  0.2479430 0.7000
  1   -244.2819613906  -0.095725266159 0.05328567  0.00145633  0.0931224 0.7000
                               ***Turning on DIIS***
  2   -244.3114673891  -0.029505998467 0.09895287  0.00229720  0.0351609 0.0000
  3   -244.3657291448  -0.054261755704 0.03188969  0.00090524  0.0543799 0.0000
  4   -244.3752631031  -0.009533958323 0.01523727  0.00036229  0.0214582 0.0000
                      *** Initiating the SOSCF procedure ***
                           *** Shutting down DIIS ***
                      *** Re-Reading the Fockian *** 
                      *** Removing any level shift *** 
ITER      Energy       Delta-E        Grad      Rot      Max-DP    RMS-DP
  5   -244.37658187  -0.0013187663  0.001247  0.001247  0.005120  0.000145
               *** Restarting incremental Fock matrix formation ***
  6   -244.37663997  -0.0000581048  0.000980  0.002678  0.003160  0.000104
  7   -244.37662381   0.0000161618  0.001582  0.003615  0.001646  0.000049
  8   -244.37664540  -0.0000215894  0.000275  0.001012  0.001924  0.000046
  9   -244.37664447   0.0000009350  0.000326  0.000415  0.000962  0.000021
 10   -244.37664657  -0.0000021069  0.000027  0.000067  0.000085  0.000003
 11   -244.37664656   0.0000000122  0.000064  0.000052  0.000042  0.000001
 12   -244.37664658  -0.0000000194  0.000004  0.000016  0.000017  0.000001
                 **** Energy Check signals convergence ****
              ***Rediagonalizing the Fockian in SOSCF/NRSCF***

               *****************************************************
               *                     SUCCESS                       *
               *           SCF CONVERGED AFTER  13 CYCLES          *
               *****************************************************


----------------
TOTAL SCF ENERGY
----------------

Total Energy       :         -244.37664658 Eh           -6649.82662 eV

Components:
Nuclear Repulsion  :          117.40058537 Eh            3194.63234 eV
Electronic Energy  :         -361.77723195 Eh           -9844.45896 eV
One Electron Energy:         -574.44508991 Eh          -15631.44558 eV
Two Electron Energy:          212.66785796 Eh            5786.98662 eV
CPCM Dielectric    :           -0.10179433 Eh              -2.76996 eV

Virial components:
Potential Energy   :         -488.03626710 Eh          -13280.14198 eV
Kinetic Energy     :          243.65962052 Eh            6630.31535 eV
Virial Ratio       :            2.00294274


DFT components:
N(Alpha)           :       16.000001865048 electrons
N(Beta)            :       16.000001865048 electrons
N(Total)           :       32.000003730095 electrons
E(X)               :      -29.135218782140 Eh       
E(C)               :       -1.076748530682 Eh       
E(XC)              :      -30.211967312822 Eh       
DFET-embed. en.    :        0.000000000000 Eh       
CPCM Solvation Model Properties:
Surface-charge          :            0.97724097
Charge-correction       :           -0.00389195 Eh              -0.10591 eV
Free-energy (cav+disp)  :  This term is not implemented in the current solvation scheme

---------------
SCF CONVERGENCE
---------------

  Last Energy change         ...    7.9697e-10  Tolerance :   1.0000e-08
  Last MAX-Density change    ...    5.9402e-06  Tolerance :   1.0000e-07
  Last RMS-Density change    ...    2.2596e-07  Tolerance :   5.0000e-09
  Last Orbital Gradient      ...    2.2927e-06  Tolerance :   1.0000e-05
  Last Orbital Rotation      ...    5.5144e-06  Tolerance :   1.0000e-05

             **** THE GBW FILE WAS UPDATED (inp.gbw) ****
             **** DENSITY inp.scfp WAS UPDATED ****
             **** ENERGY FILE WAS UPDATED (inp.en.tmp) ****
             **** THE GBW FILE WAS UPDATED (inp.gbw) ****
             **** DENSITY inp.scfp WAS UPDATED ****
----------------
ORBITAL ENERGIES
----------------

  NO   OCC          E(Eh)            E(eV) 
   0   2.0000     -18.704680      -508.9802 
   1   2.0000     -18.704667      -508.9799 
   2   2.0000     -14.133245      -384.5852 
   3   2.0000      -9.847590      -267.9666 
   4   2.0000      -1.065692       -28.9990 
   5   2.0000      -0.904905       -24.6237 
   6   2.0000      -0.660804       -17.9814 
   7   2.0000      -0.484291       -13.1782 
   8   2.0000      -0.420903       -11.4534 
   9   2.0000      -0.413870       -11.2620 
  10   2.0000      -0.411980       -11.2105 
  11   2.0000      -0.349385        -9.5073 
  12   2.0000      -0.223523        -6.0824 
  13   2.0000      -0.208284        -5.6677 
  14   2.0000      -0.192188        -5.2297 
  15   2.0000      -0.139986        -3.8092 
  16   0.0000      -0.014863        -0.4045 
  17   0.0000       0.077251         2.1021 
  18   0.0000       0.115965         3.1556 
  19   0.0000       0.119587         3.2541 
  20   0.0000       0.153359         4.1731 
  21   0.0000       0.221622         6.0306 
  22   0.0000       0.227342         6.1863 
  23   0.0000       0.243076         6.6144 
  24   0.0000       0.323049         8.7906 
  25   0.0000       0.327401         8.9090 
  26   0.0000       0.368946        10.0395 
  27   0.0000       0.371394        10.1062 
  28   0.0000       0.415765        11.3136 
  29   0.0000       0.416715        11.3394 
  30   0.0000       0.446765        12.1571 
  31   0.0000       0.452691        12.3183 
  32   0.0000       0.505138        13.7455 
  33   0.0000       0.506128        13.7724 
  34   0.0000       0.532467        14.4892 
  35   0.0000       0.536210        14.5910 
  36   0.0000       0.561251        15.2724 
  37   0.0000       0.595200        16.1962 
  38   0.0000       0.701625        19.0922 
  39   0.0000       0.730201        19.8698 
  40   0.0000       0.746037        20.3007 
  41   0.0000       0.884861        24.0783 
  42   0.0000       0.950338        25.8600 
  43   0.0000       0.988943        26.9105 
  44   0.0000       1.006289        27.3825 
  45   0.0000       1.092487        29.7281 
  46   0.0000       1.207581        32.8599 
  47   0.0000       1.279573        34.8190 
  48   0.0000       1.353187        36.8221 
  49   0.0000       1.359464        36.9929 
  50   0.0000       1.421742        38.6876 
  51   0.0000       1.481678        40.3185 
  52   0.0000       1.509358        41.0717 
  53   0.0000       1.592966        43.3468 
  54   0.0000       1.601406        43.5765 
  55   0.0000       1.609976        43.8097 
  56   0.0000       1.639412        44.6107 
  57   0.0000       1.733626        47.1744 
  58   0.0000       1.799580        48.9691 
  59   0.0000       1.820073        49.5267 
  60   0.0000       1.889901        51.4268 
  61   0.0000       1.896486        51.6060 
  62   0.0000       1.928633        52.4808 
  63   0.0000       2.007703        54.6324 
  64   0.0000       2.010238        54.7014 
  65   0.0000       2.111054        57.4447 
  66   0.0000       2.135102        58.0991 
  67   0.0000       2.143561        58.3293 
  68   0.0000       2.238990        60.9260 
  69   0.0000       2.274300        61.8868 
  70   0.0000       2.467640        67.1479 
  71   0.0000       2.487000        67.6747 
  72   0.0000       2.562818        69.7378 
  73   0.0000       2.564060        69.7716 
  74   0.0000       2.642314        71.9010 
  75   0.0000       2.669666        72.6453 
  76   0.0000       2.701014        73.4983 
  77   0.0000       2.705576        73.6225 
  78   0.0000       2.746296        74.7305 
  79   0.0000       2.877339        78.2964 
  80   0.0000       2.915043        79.3223 
  81   0.0000       2.938595        79.9632 
  82   0.0000       3.001767        81.6822 
  83   0.0000       3.092323        84.1464 
  84   0.0000       3.157984        85.9331 
  85   0.0000       3.170524        86.2744 
  86   0.0000       3.230011        87.8931 
  87   0.0000       3.270390        88.9918 
  88   0.0000       3.292005        89.5800 
  89   0.0000       3.409540        92.7783 
  90   0.0000       3.649169        99.2989 
  91   0.0000       3.695748       100.5664 
  92   0.0000       3.711741       101.0016 
  93   0.0000       3.950355       107.4946 
  94   0.0000       3.964580       107.8817 
  95   0.0000       4.064799       110.6088 
  96   0.0000       4.163815       113.3032 
  97   0.0000       4.448026       121.0369 
  98   0.0000       4.504378       122.5704 
  99   0.0000       4.580307       124.6365 
 100   0.0000       4.585051       124.7656 
 101   0.0000       4.594097       125.0117 
 102   0.0000       4.721872       128.4887 
 103   0.0000       4.777710       130.0081 
 104   0.0000       4.858573       132.2085 
 105   0.0000       5.037943       137.0894 
 106   0.0000       5.040165       137.1499 
 107   0.0000       5.064602       137.8148 
 108   0.0000       5.085466       138.3826 
 109   0.0000       5.096723       138.6889 
 110   0.0000       5.245074       142.7257 
 111   0.0000       5.257002       143.0503 
 112   0.0000       5.291780       143.9967 
 113   0.0000       5.501582       149.7057 
 114   0.0000       5.514110       150.0466 
 115   0.0000       5.598458       152.3418 
 116   0.0000       5.866499       159.6356 
 117   0.0000       6.148789       167.3171 
 118   0.0000       6.202473       168.7779 
 119   0.0000       6.221210       169.2877 
 120   0.0000       6.273243       170.7036 
 121   0.0000       6.280008       170.8877 
 122   0.0000       6.342093       172.5771 
 123   0.0000       6.543045       178.0453 
 124   0.0000       6.773390       184.3133 
 125   0.0000       6.780082       184.4954 
 126   0.0000       6.839173       186.1034 
 127   0.0000       6.993750       190.3096 
 128   0.0000       7.165649       194.9872 
 129   0.0000       7.231995       196.7926 
 130   0.0000       7.292794       198.4470 
 131   0.0000       7.301708       198.6896 
 132   0.0000      22.025920       599.3557 
 133   0.0000      31.966571       869.8546 
 134   0.0000      43.659277      1188.0293 
 135   0.0000      43.662894      1188.1278 

                    ********************************
                    * MULLIKEN POPULATION ANALYSIS *
                    ********************************

-----------------------
MULLIKEN ATOMIC CHARGES
-----------------------
   0 N :    0.337193
   1 C :   -0.572842
   2 H :    0.125243
   3 O :   -0.507147
   4 H :    0.124613
   5 O :   -0.507060
Sum of atomic charges:   -1.0000000

--------------------------------
MULLIKEN REDUCED ORBITAL CHARGES
--------------------------------
  0 N s       :     3.304539  s :     3.304539
      pz      :     0.926766  p :     3.115291
      px      :     0.995137
      py      :     1.193388
      dz2     :     0.049281  d :     0.229020
      dxz     :     0.070858
      dyz     :     0.047271
      dx2y2   :     0.021474
      dxy     :     0.040137
      f0      :     0.001970  f :     0.013956
      f+1     :     0.004762
      f-1     :     0.002016
      f+2     :     0.001309
      f-2     :     0.001503
      f+3     :     0.001097
      f-3     :     0.001298
  1 C s       :     3.305097  s :     3.305097
      pz      :     0.945193  p :     3.214517
      px      :     0.864842
      py      :     1.404482
      dz2     :     0.013261  d :     0.046582
      dxz     :     0.012862
      dyz     :     0.005066
      dx2y2   :     0.008000
      dxy     :     0.007394
      f0      :     0.001013  f :     0.006646
      f+1     :     0.001345
      f-1     :     0.000289
      f+2     :     0.001406
      f-2     :     0.000672
      f+3     :     0.001006
      f-3     :     0.000914
  2 H s       :     0.850833  s :     0.850833
      pz      :     0.011637  p :     0.023924
      px      :     0.003615
      py      :     0.008672
  3 O s       :     3.840268  s :     3.840268
      pz      :     1.689133  p :     4.625512
      px      :     1.327379
      py      :     1.609001
      dz2     :     0.004954  d :     0.038310
      dxz     :     0.012173
      dyz     :     0.002630
      dx2y2   :     0.009731
      dxy     :     0.008821
      f0      :     0.000348  f :     0.003057
      f+1     :     0.000594
      f-1     :     0.000018
      f+2     :     0.000752
      f-2     :     0.000411
      f+3     :     0.000469
      f-3     :     0.000467
  4 H s       :     0.851441  s :     0.851441
      pz      :     0.005536  p :     0.023946
      px      :     0.009712
      py      :     0.008698
  5 O s       :     3.840229  s :     3.840229
      pz      :     1.188492  p :     4.625466
      px      :     1.824508
      py      :     1.612466
      dz2     :     0.017467  d :     0.038308
      dxz     :     0.008881
      dyz     :     0.010676
      dx2y2   :     0.000621
      dxy     :     0.000665
      f0      :     0.001290  f :     0.003057
      f+1     :     0.000795
      f-1     :     0.000784
      f+2     :     0.000086
      f-2     :     0.000093
      f+3     :     0.000005
      f-3     :     0.000004


                     *******************************
                     * LOEWDIN POPULATION ANALYSIS *
                     *******************************

----------------------
LOEWDIN ATOMIC CHARGES
----------------------
   0 N :   -0.186344
   1 C :   -0.527997
   2 H :    0.088646
   3 O :   -0.231494
   4 H :    0.088601
   5 O :   -0.231411

-------------------------------
LOEWDIN REDUCED ORBITAL CHARGES
-------------------------------
  0 N s       :     2.938677  s :     2.938677
      pz      :     1.128325  p :     3.380720
      px      :     1.154618
      py      :     1.097777
      dz2     :     0.191430  d :     0.795301
      dxz     :     0.266107
      dyz     :     0.135940
      dx2y2   :     0.085238
      dxy     :     0.116586
      f0      :     0.010589  f :     0.071646
      f+1     :     0.025649
      f-1     :     0.009689
      f+2     :     0.006961
      f-2     :     0.008306
      f+3     :     0.005217
      f-3     :     0.005234
  1 C s       :     2.926618  s :     2.926618
      pz      :     1.019775  p :     3.334603
      px      :     0.974302
      py      :     1.340526
      dz2     :     0.065205  d :     0.232845
      dxz     :     0.078021
      dyz     :     0.017540
      dx2y2   :     0.043596
      dxy     :     0.028483
      f0      :     0.003885  f :     0.033930
      f+1     :     0.007755
      f-1     :     0.000845
      f+2     :     0.007931
      f-2     :     0.005431
      f+3     :     0.004458
      f-3     :     0.003626
  2 H s       :     0.838353  s :     0.838353
      pz      :     0.036633  p :     0.073001
      px      :     0.011392
      py      :     0.024976
  3 O s       :     3.503090  s :     3.503090
      pz      :     1.648692  p :     4.619496
      px      :     1.411439
      py      :     1.559365
      dz2     :     0.013337  d :     0.098165
      dxz     :     0.032004
      dyz     :     0.005649
      dx2y2   :     0.026485
      dxy     :     0.020690
      f0      :     0.001106  f :     0.010743
      f+1     :     0.002168
      f-1     :     0.000046
      f+2     :     0.002699
      f-2     :     0.001292
      f+3     :     0.001780
      f-3     :     0.001653
  4 H s       :     0.838415  s :     0.838415
      pz      :     0.017503  p :     0.072984
      px      :     0.030474
      py      :     0.025007
  5 O s       :     3.503057  s :     3.503057
      pz      :     1.327085  p :     4.619434
      px      :     1.730644
      py      :     1.561705
      dz2     :     0.046765  d :     0.098176
      dxz     :     0.024174
      dyz     :     0.024836
      dx2y2   :     0.001252
      dxy     :     0.001149
      f0      :     0.004596  f :     0.010745
      f+1     :     0.002938
      f-1     :     0.002651
      f+2     :     0.000274
      f-2     :     0.000268
      f+3     :     0.000010
      f-3     :     0.000008


                      *****************************
                      * MAYER POPULATION ANALYSIS *
                      *****************************

  NA   - Mulliken gross atomic population
  ZA   - Total nuclear charge
  QA   - Mulliken gross atomic charge
  VA   - Mayer's total valence
  BVA  - Mayer's bonded valence
  FA   - Mayer's free valence

  ATOM       NA         ZA         QA         VA         BVA        FA
  0 N      6.6628     7.0000     0.3372     4.2332     4.2332     0.0000
  1 C      6.5728     6.0000    -0.5728     3.6324     3.6324    -0.0000
  2 H      0.8748     1.0000     0.1252     0.9785     0.9785    -0.0000
  3 O      8.5071     8.0000    -0.5071     1.7490     1.7490    -0.0000
  4 H      0.8754     1.0000     0.1246     0.9787     0.9787     0.0000
  5 O      8.5071     8.0000    -0.5071     1.7488     1.7488     0.0000

  Mayer bond orders larger than 0.100000
B(  0-N ,  1-C ) :   1.3421 B(  0-N ,  3-O ) :   1.4522 B(  0-N ,  5-O ) :   1.4520 
B(  1-C ,  2-H ) :   0.9623 B(  1-C ,  3-O ) :   0.1827 B(  1-C ,  4-H ) :   0.9625 
B(  1-C ,  5-O ) :   0.1828 

-------
TIMINGS
-------

Total SCF time: 0 days 0 hours 0 min 13 sec 

Total time                  ....      13.748 sec
Sum of individual times     ....      12.475 sec  ( 90.7%)

Fock matrix formation       ....      11.420 sec  ( 83.1%)
  Split-RI-J                ....       1.210 sec  ( 10.6% of F)
  XC integration            ....       6.058 sec  ( 53.0% of F)
    Basis function eval.    ....       1.558 sec  ( 25.7% of XC)
    Density eval.           ....       0.961 sec  ( 15.9% of XC)
    XC-Functional eval.     ....       0.381 sec  (  6.3% of XC)
    XC-Potential eval.      ....       1.361 sec  ( 22.5% of XC)
Diagonalization             ....       0.016 sec  (  0.1%)
Density matrix formation    ....       0.002 sec  (  0.0%)
Population analysis         ....       0.032 sec  (  0.2%)
Initial guess               ....       0.170 sec  (  1.2%)
Orbital Transformation      ....       0.000 sec  (  0.0%)
Orbital Orthonormalization  ....       0.000 sec  (  0.0%)
DIIS solution               ....       0.160 sec  (  1.2%)
SOSCF solution              ....       0.186 sec  (  1.4%)
Grid generation             ....       0.490 sec  (  3.6%)

Maximum memory used throughout the entire SCF-calculation: 36.7 MB


-------------------------------------------------------------------------------
                          DFT DISPERSION CORRECTION                            
                                                                               
                              DFTD3 V3.1  Rev 1                                
                          USING Becke-Johnson damping                          
-------------------------------------------------------------------------------
The PBE functional is recognized
Active option DFTDOPT                   ...         4   

molecular C6(AA) [au] = 382.696167 


            DFT-D V3
 parameters
 s6 scaling factor         :     1.0000 
 a1 scaling factor         :     0.4289 
 s8 scaling factor         :     0.7875 
 a2 scaling factor         :     4.4407 
 ad hoc parameters k1-k3   :    16.0000     1.3333    -4.0000 

 Edisp/kcal,au: -1.875828175123  -0.002989322158 
 E6   /kcal   :  -1.340640616 
 E8   /kcal   :  -0.535187559 
 % E8         :  28.530734654 

-------------------------   ----------------
Dispersion correction           -0.002989322
-------------------------   ----------------


-------------------------   --------------------
FINAL SINGLE POINT ENERGY      -244.379635902438
-------------------------   --------------------

------------------------------------------------------------------------------
                         ORCA SCF GRADIENT CALCULATION
------------------------------------------------------------------------------

Gradient of the Kohn-Sham DFT energy:
Kohn-Sham wavefunction type      ... RKS
Hartree-Fock exchange scaling    ...    0.000
Number of operators              ...    1
Number of atoms                  ...    6
Basis set dimensions             ...  136
Integral neglect threshold       ... 2.5e-11
Integral primitive cutoff        ... 2.5e-12
SHARK Integral package           ... ON

Nuc. rep. gradient       (SHARK) ... done (  0.0 sec)
HCore & Overlap gradient (SHARK) ... done (  0.1 sec)
RI-J gradient            (SHARK) ... done (  0.5 sec)
Exchange-correlation gradient    ... done
Dispersion correction            ... done

------------------
CARTESIAN GRADIENT
------------------

   1   N   :   -0.099502539   -0.026912299    0.072634198
   2   C   :    0.039487299    0.009008484   -0.028882343
   3   H   :   -0.005908026   -0.001101123    0.008482966
   4   O   :    0.059896179    0.010616642    0.002940940
   5   H   :   -0.009835933   -0.001248177    0.003034336
   6   O   :    0.015863019    0.009636473   -0.058210097

Difference to translation invariance:
           :   -0.0000000000    0.0000000000    0.0000000000

Difference to rotation invariance:
           :   -0.0000821109    0.0004420016    0.0000593589

Norm of the cartesian gradient     ...    0.1613467030
RMS gradient                       ...    0.0380297826
MAX gradient                       ...    0.0995025386

-------
TIMINGS
-------

Total SCF gradient time            ...        2.548 sec

One electron gradient       ....       0.051 sec  (  2.0%)
RI-J Coulomb gradient       ....       0.486 sec  ( 19.1%)
XC gradient                 ....       1.546 sec  ( 60.7%)
CPCM gradient               ....       0.127 sec  (  5.0%)
   A-Matrix (El+Nuc)        ....       0.010 sec  (  0.4%)
   Potential                ....       0.117 sec  (  4.6%)

Maximum memory used throughout the entire SCFGRAD-calculation: 49.2 MB
------------------------------------------------------------------------------
                         ORCA GEOMETRY RELAXATION STEP
------------------------------------------------------------------------------

Reading the OPT-File                    .... done
Getting information on internals        .... done
Copying old internal coords+grads       .... done
Making the new internal coordinates     .... (new redundants).... done
Validating the new internal coordinates .... (new redundants).... done
Calculating the B-matrix                .... done
Calculating the G,G- and P matrices     .... done
Transforming gradient to internals      .... done
Projecting the internal gradient        .... done
Number of atoms                         ....   6
Number of internal coordinates          ....  15
Current Energy                          ....  -244.379635902 Eh
Current gradient norm                   ....     0.161346703 Eh/bohr
Maximum allowed component of the step   ....  0.300
Current trust radius                    ....  0.300
Evaluating the initial hessian          ....  (Almloef) done
Projecting the Hessian                  .... done
Forming the augmented Hessian           .... done
Diagonalizing the augmented Hessian     .... done
Last element of RFO vector              ....  0.986561503
Lowest eigenvalues of augmented Hessian:
 -0.014441857  0.019872875  0.020001008  0.023630270  0.312382172
Length of the computed step             ....  0.165615964
The final length of the internal step   ....  0.165615964
Converting the step to cartesian space:
 Initial RMS(Int)=    0.0427618579
Transforming coordinates:
 Iter   0:  RMS(Cart)=    0.0289955564 RMS(Int)=    0.0429984308
 Iter   1:  RMS(Cart)=    0.0011301710 RMS(Int)=    0.0011484585
 Iter   2:  RMS(Cart)=    0.0000288216 RMS(Int)=    0.0000359239
 Iter   3:  RMS(Cart)=    0.0000014194 RMS(Int)=    0.0000013959
 Iter   4:  RMS(Cart)=    0.0000000508 RMS(Int)=    0.0000000613
done
Storing new coordinates                 .... done

                                .--------------------.
          ----------------------|Geometry convergence|-------------------------
          Item                value                   Tolerance       Converged
          ---------------------------------------------------------------------
          RMS gradient        0.0254364340            0.0001000000      NO
          MAX gradient        0.0553030167            0.0003000000      NO
          RMS step            0.0427618579            0.0020000000      NO
          MAX step            0.0836104297            0.0040000000      NO
          ........................................................
          Max(Bonds)      0.0324      Max(Angles)    4.79
          Max(Dihed)        2.07      Max(Improp)    0.00
          ---------------------------------------------------------------------

The optimization has not yet converged - more geometry cycles are needed


    ---------------------------------------------------------------------------
                         Redundant Internal Coordinates
                            (Angstroem and degrees)

        Definition                    Value    dE/dq     Step     New-Value
    ----------------------------------------------------------------------------
     1. B(C   1,N   0)                1.4199  0.030158 -0.0309    1.3890   
     2. B(H   2,C   1)                1.0740 -0.007126  0.0095    1.0835   
     3. B(O   3,N   0)                1.2339 -0.055134  0.0323    1.2662   
     4. B(H   4,C   1)                1.0740 -0.007035  0.0094    1.0834   
     5. B(O   5,N   0)                1.2339 -0.055303  0.0324    1.2662   
     6. A(O   3,N   0,O   5)          126.57  0.040259   -4.79    121.78   
     7. A(C   1,N   0,O   5)          116.72 -0.020240    2.41    119.13   
     8. A(C   1,N   0,O   3)          116.72 -0.020021    2.38    119.10   
     9. A(N   0,C   1,H   4)          113.74 -0.005373    0.97    114.71   
    10. A(H   2,C   1,H   4)          131.57  0.010259   -1.77    129.80   
    11. A(N   0,C   1,H   2)          113.74 -0.005201    0.94    114.69   
    12. D(H   2,C   1,N   0,O   5)    175.15 -0.001252    1.99    177.14   
    13. D(H   4,C   1,N   0,O   3)   -175.01  0.001301   -2.07   -177.07   
    14. D(H   4,C   1,N   0,O   5)      4.95 -0.000821    1.48      6.43   
    15. D(H   2,C   1,N   0,O   3)     -4.81  0.000870   -1.56     -6.36   
    ----------------------------------------------------------------------------

         *************************************************************
         *                GEOMETRY OPTIMIZATION CYCLE   2            *
         *************************************************************
---------------------------------
CARTESIAN COORDINATES (ANGSTROEM)
---------------------------------
  N     -6.611071   -2.966142    3.309544
  C     -5.521997   -2.631181    2.515184
  H     -5.726603   -2.612629    1.451301
  O     -7.748949   -3.097135    2.769833
  H     -4.575347   -2.586148    3.040197
  O     -6.452156   -3.066391    4.561755

----------------------------
CARTESIAN COORDINATES (A.U.)
----------------------------
  NO LB      ZA    FRAG     MASS         X           Y           Z
   0 N     7.0000    0    14.007  -12.493114   -5.605195    6.254131
   1 C     6.0000    0    12.011  -10.435062   -4.972211    4.753009
   2 H     1.0000    0     1.008  -10.821711   -4.937153    2.742562
   3 O     8.0000    0    15.999  -14.643392   -5.852737    5.234225
   4 H     1.0000    0     1.008   -8.646153   -4.887112    5.745139
   5 O     8.0000    0    15.999  -12.192808   -5.794639    8.620467

--------------------------------
INTERNAL COORDINATES (ANGSTROEM)
--------------------------------
 N      0   0   0     0.000000000000     0.00000000     0.00000000
 C      1   0   0     1.388988647856     0.00000000     0.00000000
 H      2   1   0     1.083537981935   114.68278834     0.00000000
 O      1   2   3     1.266180549098   119.06509897   353.63576740
 H      2   1   3     1.083426062504   114.70724466   189.29130872
 O      1   2   3     1.266229042186   119.09473969   177.13549766

---------------------------
INTERNAL COORDINATES (A.U.)
---------------------------
 N      0   0   0     0.000000000000     0.00000000     0.00000000
 C      1   0   0     2.624808147574     0.00000000     0.00000000
 H      2   1   0     2.047590041559   114.68278834     0.00000000
 O      1   2   3     2.392734473893   119.06509897   353.63576740
 H      2   1   3     2.047378544485   114.70724466   189.29130872
 O      1   2   3     2.392826112548   119.09473969   177.13549766

------------------------------------------------------------------------------
                   ___                                                        
                  /   \      - P O W E R E D   B Y -                         
                 /     \                                                     
                 |  |  |   _    _      __       _____    __    __             
                 |  |  |  | |  | |    /  \     |  _  \  |  |  /  |          
                  \  \/   | |  | |   /    \    | | | |  |  | /  /          
                 / \  \   | |__| |  /  /\  \   | |_| |  |  |/  /          
                |  |  |   |  __  | /  /__\  \  |    /   |      \           
                |  |  |   | |  | | |   __   |  |    \   |  |\   \          
                \     /   | |  | | |  |  |  |  | |\  \  |  | \   \       
                 \___/    |_|  |_| |__|  |__|  |_| \__\ |__|  \__/        
                                                                              
                      - O R C A' S   B I G   F R I E N D -                    
                                      &                                       
                       - I N T E G R A L  F E E D E R -                       
                                                                              
 v1 FN, 2020, v2 2021                                                         
------------------------------------------------------------------------------


Reading SHARK input file inp.SHARKINP.tmp ... ok
----------------------
SHARK INTEGRAL PACKAGE
----------------------

Number of atoms                             ...      6
Number of basis functions                   ...    136
Number of shells                            ...     52
Maximum angular momentum                    ...      3
Integral batch strategy                     ... SHARK/LIBINT Hybrid
RI-J (if used) integral strategy            ... SPLIT-RIJ (Revised 2003 algorithm where possible)
Printlevel                                  ...      1
Contraction scheme used                     ... SEGMENTED contraction
Coulomb Range Separation                    ... NOT USED
Exchange Range Separation                   ... NOT USED
Finite Nucleus Model                        ... NOT USED
Auxiliary Coulomb fitting basis             ... AVAILABLE
   # of basis functions in Aux-J            ...    218
   # of shells in Aux-J                     ...     70
   Maximum angular momentum in Aux-J        ...      4
Auxiliary J/K fitting basis                 ... NOT available
Auxiliary Correlation fitting basis         ... NOT available
Auxiliary 'external' fitting basis          ... NOT available
Integral threshold                          ...     2.500000e-11
Primitive cut-off                           ...     2.500000e-12
Primitive pair pre-selection threshold      ...     2.500000e-12

Calculating pre-screening integrals         ... done (  0.0 sec) Dimension = 52
Organizing shell pair data                  ... done (  0.1 sec)
Shell pair information
Total number of shell pairs                 ...      1378
Shell pairs after pre-screening             ...      1353
Total number of primitive shell pairs       ...      4372
Primitive shell pairs kept                  ...      3533
          la=0 lb=0:    332 shell pairs
          la=1 lb=0:    362 shell pairs
          la=1 lb=1:    105 shell pairs
          la=2 lb=0:    204 shell pairs
          la=2 lb=1:    112 shell pairs
          la=2 lb=2:     36 shell pairs
          la=3 lb=0:    104 shell pairs
          la=3 lb=1:     56 shell pairs
          la=3 lb=2:     32 shell pairs
          la=3 lb=3:     10 shell pairs

Calculating one electron integrals          ... done (  0.0 sec)
Calculating RI/J V-Matrix + Cholesky decomp.... done (  0.0 sec)
Calculating Nuclear repulsion               ... done (  0.0 sec) ENN=    116.046966459077 Eh

SHARK setup successfully completed in   0.6 seconds

Maximum memory used throughout the entire GTOINT-calculation: 26.9 MB

Diagonalization of the overlap matrix:
Smallest eigenvalue                        ... 9.630e-04
Time for diagonalization                   ...    0.003 sec
Threshold for overlap eigenvalues          ... 1.000e-08
Number of eigenvalues below threshold      ... 0
Time for construction of square roots      ...    0.008 sec
Total time needed                          ...    0.011 sec

-------------------
DFT GRID GENERATION
-------------------

General Integration Accuracy     IntAcc      ... 4.388
Radial Grid Type                 RadialGrid  ... OptM3 with GC (2021)
Angular Grid (max. ang.)         AngularGrid ... 4 (Lebedev-302)
Angular grid pruning method      GridPruning ... 4 (adaptive)
Weight generation scheme         WeightScheme... Becke
Basis function cutoff            BFCut       ... 1.0000e-11
Integration weight cutoff        WCut        ... 1.0000e-14
Angular grids for H and He will be reduced by one unit
Partially contracted basis set               ... off
Rotationally invariant grid construction     ... off

Total number of grid points                  ...    30975
Total number of batches                      ...      487
Average number of points per batch           ...       63
Average number of grid points per atom       ...     5162
Time for grid setup =    0.304 sec


--------------------
CPCM SOLVATION MODEL
--------------------
CPCM parameters:
  Epsilon                                         ...      80.4000
  Refrac                                          ...       1.3300
  Rsolv                                           ...       1.3000
  Surface type                                    ... GAUSSIAN VDW
  Epsilon function type                           ...         CPCM
Radii:
 Radius for N  used is    3.5149 Bohr (=   1.8600 Ang.)
 Radius for C  used is    3.8550 Bohr (=   2.0400 Ang.)
 Radius for H  used is    2.4944 Bohr (=   1.3200 Ang.)
 Radius for O  used is    3.4469 Bohr (=   1.8240 Ang.)
Calculating surface                               ...        done! (  0.0s)
GEPOL surface points                              ...          404
GEPOL Volume                                      ...     492.4689
GEPOL Surface-area                                ...     330.5929
Calculating surface distance matrix               ...        done! (  0.0s)
Performing Cholesky decomposition & store         ...        done! (  0.0s)
Overall time for CPCM initialization              ...                 0.0s
--------------
SCF ITERATIONS
--------------
ITER       Energy         Delta-E        Max-DP      RMS-DP      [F,P]     Damp
               ***  Starting incremental Fock matrix formation  ***
  0   -244.3815477167   0.000000000000 0.00517406  0.00023912  0.0234731 0.7000
  1   -244.3830657861  -0.001518069382 0.00501445  0.00022884  0.0181899 0.7000
                               ***Turning on DIIS***
  2   -244.3842040552  -0.001138269143 0.01696149  0.00062059  0.0131218 0.0000
                      *** Initiating the SOSCF procedure ***
                           *** Shutting down DIIS ***
                      *** Re-Reading the Fockian *** 
                      *** Removing any level shift *** 
ITER      Energy       Delta-E        Grad      Rot      Max-DP    RMS-DP
  3   -244.38683505  -0.0026309918  0.001469  0.001469  0.003912  0.000087
               *** Restarting incremental Fock matrix formation ***
  4   -244.38685774  -0.0000226957  0.001291  0.009904  0.004806  0.000125
  5   -244.38678060   0.0000771468  0.003432  0.006356  0.002923  0.000081
  6   -244.38687049  -0.0000898895  0.000245  0.000673  0.000499  0.000016
  7   -244.38686815   0.0000023326  0.000647  0.000507  0.000387  0.000011
  8   -244.38687106  -0.0000029051  0.000017  0.000035  0.000056  0.000002
  9   -244.38687106   0.0000000028  0.000021  0.000026  0.000042  0.000001
 10   -244.38687107  -0.0000000117  0.000003  0.000005  0.000008  0.000000
                 **** Energy Check signals convergence ****
              ***Rediagonalizing the Fockian in SOSCF/NRSCF***

               *****************************************************
               *                     SUCCESS                       *
               *           SCF CONVERGED AFTER  11 CYCLES          *
               *****************************************************

Total Energy       :         -244.38687107 Eh           -6650.10485 eV
  Last Energy change         ...   -1.9472e-10  Tolerance :   1.0000e-08
  Last MAX-Density change    ...    3.8678e-06  Tolerance :   1.0000e-07
             **** THE GBW FILE WAS UPDATED (inp.gbw) ****
             **** DENSITY inp.scfp WAS UPDATED ****
             **** ENERGY FILE WAS UPDATED (inp.en.tmp) ****
             **** THE GBW FILE WAS UPDATED (inp.gbw) ****
             **** DENSITY inp.scfp WAS UPDATED ****
Total SCF time: 0 days 0 hours 0 min 11 sec 

Maximum memory used throughout the entire SCF-calculation: 36.7 MB


-------------------------------------------------------------------------------
                          DFT DISPERSION CORRECTION                            
                                                                               
                              DFTD3 V3.1  Rev 1                                
                          USING Becke-Johnson damping                          
-------------------------------------------------------------------------------
-------------------------   ----------------
Dispersion correction           -0.002976845
-------------------------   ----------------


-------------------------   --------------------
FINAL SINGLE POINT ENERGY      -244.389847911660
-------------------------   --------------------

------------------------------------------------------------------------------
                         ORCA SCF GRADIENT CALCULATION
------------------------------------------------------------------------------

Gradient of the Kohn-Sham DFT energy:
Kohn-Sham wavefunction type      ... RKS
Hartree-Fock exchange scaling    ...    0.000
Number of operators              ...    1
Number of atoms                  ...    6
Basis set dimensions             ...  136
Integral neglect threshold       ... 2.5e-11
Integral primitive cutoff        ... 2.5e-12
SHARK Integral package           ... ON

Nuc. rep. gradient       (SHARK) ... done (  0.0 sec)
HCore & Overlap gradient (SHARK) ... done (  0.1 sec)
RI-J gradient            (SHARK) ... done (  0.5 sec)
Exchange-correlation gradient    ... done
Dispersion correction            ... done

------------------
CARTESIAN GRADIENT
------------------

   1   N   :   -0.048740322   -0.022132141    0.035770135
   2   C   :    0.028862525    0.011140901   -0.021150575
   3   H   :   -0.005748218   -0.000971050    0.001578150
   4   O   :    0.022904223    0.006610451    0.001160380
   5   H   :   -0.003303263   -0.000954929    0.004948088
   6   O   :    0.006025054    0.006306769   -0.022306179

Difference to translation invariance:
           :   -0.0000000000    0.0000000000   -0.0000000000

Difference to rotation invariance:
           :   -0.0001960683    0.0004875644    0.0000653082

Norm of the cartesian gradient     ...    0.0822528892
RMS gradient                       ...    0.0193871919
MAX gradient                       ...    0.0487403220

-------
TIMINGS
-------

Total SCF gradient time            ...        2.522 sec

One electron gradient       ....       0.051 sec  (  2.0%)
RI-J Coulomb gradient       ....       0.473 sec  ( 18.8%)
XC gradient                 ....       1.522 sec  ( 60.4%)
CPCM gradient               ....       0.127 sec  (  5.0%)
   A-Matrix (El+Nuc)        ....       0.009 sec  (  0.4%)
   Potential                ....       0.118 sec  (  4.7%)

Maximum memory used throughout the entire SCFGRAD-calculation: 49.2 MB
------------------------------------------------------------------------------
                         ORCA GEOMETRY RELAXATION STEP
------------------------------------------------------------------------------

Reading the OPT-File                    .... done
Getting information on internals        .... done
Copying old internal coords+grads       .... done
Making the new internal coordinates     .... (new redundants).... done
Validating the new internal coordinates .... (new redundants).... done
Calculating the B-matrix                .... done
Calculating the G,G- and P matrices     .... done
Transforming gradient to internals      .... done
Projecting the internal gradient        .... done
Number of atoms                         ....   6
Number of internal coordinates          ....  15
Current Energy                          ....  -244.389847912 Eh
Current gradient norm                   ....     0.082252889 Eh/bohr
Maximum allowed component of the step   ....  0.300
Current trust radius                    ....  0.300
Updating the Hessian (BFGS)             .... done
Forming the augmented Hessian           .... done
Diagonalizing the augmented Hessian     .... done
Last element of RFO vector              ....  0.932254495
Lowest eigenvalues of augmented Hessian:
 -0.010649708  0.019872907  0.023627136  0.025708373  0.246993619
Length of the computed step             ....  0.388094884
Warning: the length of the step is outside the trust region - taking restricted step instead
The input lambda is                     ....    -0.010650
   iter:   1  x=   -0.018197  g=    8.031922 f(x)=     0.060618
   iter:   2  x=   -0.021833  g=    4.349939 f(x)=     0.015816
   iter:   3  x=   -0.022385  g=    3.379535 f(x)=     0.001866
   iter:   4  x=   -0.022395  g=    3.258987 f(x)=     0.000034
   iter:   5  x=   -0.022395  g=    3.256796 f(x)=     0.000000
   iter:   6  x=   -0.022395  g=    3.256795 f(x)=     0.000000
The output lambda is                    ....    -0.022395 (6 iterations)
The final length of the internal step   ....  0.300000000
Converting the step to cartesian space:
 Initial RMS(Int)=    0.0774596669
Transforming coordinates:
 Iter   0:  RMS(Cart)=    0.0459370086 RMS(Int)=    0.0796653356
 Iter   1:  RMS(Cart)=    0.0037673958 RMS(Int)=    0.0042385498
 Iter   2:  RMS(Cart)=    0.0001934609 RMS(Int)=    0.0002406673
 Iter   3:  RMS(Cart)=    0.0000245618 RMS(Int)=    0.0000309407
 Iter   4:  RMS(Cart)=    0.0000019596 RMS(Int)=    0.0000020264
 Iter   5:  RMS(Cart)=    0.0000001351 RMS(Int)=    0.0000001933
 Iter   6:  RMS(Cart)=    0.0000000170 RMS(Int)=    0.0000000181
done
Storing new coordinates                 .... done

                                .--------------------.
          ----------------------|Geometry convergence|-------------------------
          Item                value                   Tolerance       Converged
          ---------------------------------------------------------------------
          Energy change      -0.0102120092            0.0000050000      NO
          RMS gradient        0.0118834144            0.0001000000      NO
          MAX gradient        0.0261197135            0.0003000000      NO
          RMS step            0.0774596669            0.0020000000      NO
          MAX step            0.1258831917            0.0040000000      NO
          ........................................................
          Max(Bonds)      0.0552      Max(Angles)    4.63
          Max(Dihed)        7.21      Max(Improp)    0.00
          ---------------------------------------------------------------------

The optimization has not yet converged - more geometry cycles are needed


    ---------------------------------------------------------------------------
                         Redundant Internal Coordinates
                            (Angstroem and degrees)

        Definition                    Value    dE/dq     Step     New-Value
    ----------------------------------------------------------------------------
     1. B(C   1,N   0)                1.3890  0.026120 -0.0552    1.3338   
     2. B(H   2,C   1)                1.0835 -0.000498  0.0041    1.0876   
     3. B(O   3,N   0)                1.2662 -0.021748  0.0325    1.2987   
     4. B(H   4,C   1)                1.0834 -0.000512  0.0041    1.0875   
     5. B(O   5,N   0)                1.2662 -0.021816  0.0326    1.2988   
     6. A(O   3,N   0,O   5)          121.74  0.015160   -4.63    117.11   
     7. A(C   1,N   0,O   5)          119.09 -0.007780    2.27    121.36   
     8. A(C   1,N   0,O   3)          119.07 -0.007729    2.25    121.31   
     9. A(N   0,C   1,H   4)          114.71 -0.004260    1.56    116.27   
    10. A(H   2,C   1,H   4)          129.80  0.008196   -2.92    126.88   
    11. A(N   0,C   1,H   2)          114.68 -0.004149    1.52    116.20   
    12. D(H   2,C   1,N   0,O   5)    177.14  0.002766   -6.67    170.47   
    13. D(H   4,C   1,N   0,O   3)   -177.07 -0.002711    6.55   -170.53   
    14. D(H   4,C   1,N   0,O   5)      6.43  0.003102   -7.21     -0.79   
    15. D(H   2,C   1,N   0,O   3)     -6.36 -0.003047    7.09      0.73   
    ----------------------------------------------------------------------------

         *************************************************************
         *                GEOMETRY OPTIMIZATION CYCLE   3            *
         *************************************************************
---------------------------------
CARTESIAN COORDINATES (ANGSTROEM)
---------------------------------
  N     -6.593836   -2.885942    3.295783
  C     -5.535829   -2.628968    2.525272
  H     -5.713389   -2.623091    1.452259
  O     -7.759488   -3.127850    2.776847
  H     -4.571721   -2.595624    3.027315
  O     -6.461860   -3.098150    4.570336

----------------------------
CARTESIAN COORDINATES (A.U.)
----------------------------
  NO LB      ZA    FRAG     MASS         X           Y           Z
   0 N     7.0000    0    14.007  -12.460543   -5.453641    6.228128
   1 C     6.0000    0    12.011  -10.461200   -4.968030    4.772073
   2 H     1.0000    0     1.008  -10.796741   -4.956923    2.744372
   3 O     8.0000    0    15.999  -14.663307   -5.910780    5.247481
   4 H     1.0000    0     1.008   -8.639301   -4.905019    5.720797
   5 O     8.0000    0    15.999  -12.211146   -5.854655    8.636682

--------------------------------
INTERNAL COORDINATES (ANGSTROEM)
--------------------------------
 N      0   0   0     0.000000000000     0.00000000     0.00000000
 C      1   0   0     1.333829545997     0.00000000     0.00000000
 H      2   1   0     1.087621235289   116.19671477     0.00000000
 O      1   2   3     1.298675931834   121.13248548     0.73226812
 H      2   1   3     1.087503080801   116.25935511   188.74580226
 O      1   2   3     1.298819795612   121.18164424   170.46275916

---------------------------
INTERNAL COORDINATES (A.U.)
---------------------------
 N      0   0   0     0.000000000000     0.00000000     0.00000000
 C      1   0   0     2.520572551266     0.00000000     0.00000000
 H      2   1   0     2.055306272134   116.19671477     0.00000000
 O      1   2   3     2.454141847881   121.13248548     0.73226812
 H      2   1   3     2.055082992509   116.25935511   188.74580226
 O      1   2   3     2.454413711021   121.18164424   170.46275916

------------------------------------------------------------------------------
                   ___                                                        
                  /   \      - P O W E R E D   B Y -                         
                 /     \                                                     
                 |  |  |   _    _      __       _____    __    __             
                 |  |  |  | |  | |    /  \     |  _  \  |  |  /  |          
                  \  \/   | |  | |   /    \    | | | |  |  | /  /          
                 / \  \   | |__| |  /  /\  \   | |_| |  |  |/  /          
                |  |  |   |  __  | /  /__\  \  |    /   |      \           
                |  |  |   | |  | | |   __   |  |    \   |  |\   \          
                \     /   | |  | | |  |  |  |  | |\  \  |  | \   \       
                 \___/    |_|  |_| |__|  |__|  |_| \__\ |__|  \__/        
                                                                              
                      - O R C A' S   B I G   F R I E N D -                    
                                      &                                       
                       - I N T E G R A L  F E E D E R -                       
                                                                              
 v1 FN, 2020, v2 2021                                                         
------------------------------------------------------------------------------


Reading SHARK input file inp.SHARKINP.tmp ... ok
----------------------
SHARK INTEGRAL PACKAGE
----------------------

Number of atoms                             ...      6
Number of basis functions                   ...    136
Number of shells                            ...     52
Maximum angular momentum                    ...      3
Integral batch strategy                     ... SHARK/LIBINT Hybrid
RI-J (if used) integral strategy            ... SPLIT-RIJ (Revised 2003 algorithm where possible)
Printlevel                                  ...      1
Contraction scheme used                     ... SEGMENTED contraction
Coulomb Range Separation                    ... NOT USED
Exchange Range Separation                   ... NOT USED
Finite Nucleus Model                        ... NOT USED
Auxiliary Coulomb fitting basis             ... AVAILABLE
   # of basis functions in Aux-J            ...    218
   # of shells in Aux-J                     ...     70
   Maximum angular momentum in Aux-J        ...      4
Auxiliary J/K fitting basis                 ... NOT available
Auxiliary Correlation fitting basis         ... NOT available
Auxiliary 'external' fitting basis          ... NOT available
Integral threshold                          ...     2.500000e-11
Primitive cut-off                           ...     2.500000e-12
Primitive pair pre-selection threshold      ...     2.500000e-12

Calculating pre-screening integrals         ... done (  0.0 sec) Dimension = 52
Organizing shell pair data                  ... done (  0.1 sec)
Shell pair information
Total number of shell pairs                 ...      1378
Shell pairs after pre-screening             ...      1353
Total number of primitive shell pairs       ...      4372
Primitive shell pairs kept                  ...      3528
          la=0 lb=0:    332 shell pairs
          la=1 lb=0:    362 shell pairs
[...]
Electronic Energy  :         -359.83715021 Eh           -9791.66666 eV
One Electron Energy:         -570.89360285 Eh          -15534.80471 eV
Two Electron Energy:          211.05645265 Eh            5743.13805 eV
CPCM Dielectric    :           -0.10817280 Eh              -2.94353 eV

Virial components:
Potential Energy   :         -487.86068048 Eh          -13275.36402 eV
Kinetic Energy     :          243.46960612 Eh            6625.14480 eV
Virial Ratio       :            2.00378474


DFT components:
N(Alpha)           :       16.000002512148 electrons
N(Beta)            :       16.000002512148 electrons
N(Total)           :       32.000005024295 electrons
E(X)               :      -29.097750062069 Eh       
E(C)               :       -1.072630439721 Eh       
E(XC)              :      -30.170380501790 Eh       
DFET-embed. en.    :        0.000000000000 Eh       
CPCM Solvation Model Properties:
Surface-charge          :            0.97917511
Charge-correction       :           -0.00351924 Eh              -0.09576 eV
Free-energy (cav+disp)  :  This term is not implemented in the current solvation scheme

---------------
SCF CONVERGENCE
---------------

  Last Energy change         ...   -2.7574e-09  Tolerance :   1.0000e-08
  Last MAX-Density change    ...    2.2203e-06  Tolerance :   1.0000e-07
  Last RMS-Density change    ...    7.1287e-08  Tolerance :   5.0000e-09
  Last Orbital Gradient      ...    6.2719e-07  Tolerance :   1.0000e-05
  Last Orbital Rotation      ...    1.2617e-06  Tolerance :   1.0000e-05

             **** THE GBW FILE WAS UPDATED (inp.gbw) ****
             **** DENSITY inp.scfp WAS UPDATED ****
             **** ENERGY FILE WAS UPDATED (inp.en.tmp) ****
             **** THE GBW FILE WAS UPDATED (inp.gbw) ****
             **** DENSITY inp.scfp WAS UPDATED ****
----------------
ORBITAL ENERGIES
----------------

  NO   OCC          E(Eh)            E(eV) 
   0   2.0000     -18.694805      -508.7115 
   1   2.0000     -18.694800      -508.7114 
   2   2.0000     -14.126097      -384.3906 
   3   2.0000      -9.864360      -268.4229 
   4   2.0000      -1.022782       -27.8313 
   5   2.0000      -0.855756       -23.2863 
   6   2.0000      -0.695308       -18.9203 
   7   2.0000      -0.487846       -13.2750 
   8   2.0000      -0.413264       -11.2455 
   9   2.0000      -0.411023       -11.1845 
  10   2.0000      -0.399317       -10.8660 
  11   2.0000      -0.337508        -9.1841 
  12   2.0000      -0.211718        -5.7611 
  13   2.0000      -0.205030        -5.5792 
  14   2.0000      -0.173676        -4.7260 
  15   2.0000      -0.155726        -4.2375 
  16   0.0000      -0.017676        -0.4810 
  17   0.0000       0.074163         2.0181 
  18   0.0000       0.105554         2.8723 
  19   0.0000       0.119150         3.2422 
  20   0.0000       0.152522         4.1503 
  21   0.0000       0.210465         5.7270 
  22   0.0000       0.215846         5.8735 
  23   0.0000       0.222872         6.0647 
  24   0.0000       0.302797         8.2395 
  25   0.0000       0.333318         9.0700 
  26   0.0000       0.381176        10.3723 
  27   0.0000       0.383394        10.4327 
  28   0.0000       0.390072        10.6144 
  29   0.0000       0.446927        12.1615 
  30   0.0000       0.451086        12.2747 
  31   0.0000       0.458841        12.4857 
  32   0.0000       0.488042        13.2803 
  33   0.0000       0.498578        13.5670 
  34   0.0000       0.530642        14.4395 
  35   0.0000       0.539493        14.6804 
  36   0.0000       0.563025        15.3207 
  37   0.0000       0.610046        16.6002 
  38   0.0000       0.679796        18.4982 
  39   0.0000       0.690010        18.7761 
  40   0.0000       0.759290        20.6613 
  41   0.0000       0.892859        24.2959 
  42   0.0000       0.931622        25.3507 
  43   0.0000       1.010778        27.5047 
  44   0.0000       1.020108        27.7586 
  45   0.0000       1.067822        29.0569 
  46   0.0000       1.230269        33.4773 
  47   0.0000       1.292709        35.1764 
  48   0.0000       1.366090        37.1732 
  49   0.0000       1.373056        37.3627 
  50   0.0000       1.414851        38.5000 
  51   0.0000       1.498379        40.7730 
  52   0.0000       1.504167        40.9305 
  53   0.0000       1.567655        42.6581 
  54   0.0000       1.579002        42.9668 
  55   0.0000       1.582912        43.0732 
  56   0.0000       1.643373        44.7185 
  57   0.0000       1.741940        47.4006 
  58   0.0000       1.766925        48.0805 
  59   0.0000       1.805714        49.1360 
  60   0.0000       1.826938        49.7135 
  61   0.0000       1.888548        51.3900 
  62   0.0000       1.982011        53.9333 
  63   0.0000       1.985437        54.0265 
  64   0.0000       2.008121        54.6437 
  65   0.0000       2.108644        57.3791 
  66   0.0000       2.111553        57.4583 
  67   0.0000       2.128408        57.9169 
  68   0.0000       2.213926        60.2440 
  69   0.0000       2.273263        61.8586 
  70   0.0000       2.462889        67.0186 
  71   0.0000       2.500366        68.0384 
  72   0.0000       2.542904        69.1959 
  73   0.0000       2.573767        70.0358 
  74   0.0000       2.596603        70.6572 
  75   0.0000       2.645392        71.9848 
  76   0.0000       2.662863        72.4602 
  77   0.0000       2.723026        74.0973 
  78   0.0000       2.798617        76.1542 
  79   0.0000       2.881027        78.3967 
  80   0.0000       2.894072        78.7517 
  81   0.0000       2.900873        78.9368 
  82   0.0000       2.930089        79.7318 
  83   0.0000       3.039313        82.7039 
  84   0.0000       3.101556        84.3976 
  85   0.0000       3.189400        86.7880 
  86   0.0000       3.227344        87.8205 
  87   0.0000       3.257778        88.6486 
  88   0.0000       3.300249        89.8043 
  89   0.0000       3.416815        92.9763 
  90   0.0000       3.601051        97.9896 
  91   0.0000       3.686062       100.3029 
  92   0.0000       3.714191       101.0683 
  93   0.0000       3.935149       107.0809 
  94   0.0000       4.001622       108.8897 
  95   0.0000       4.008765       109.0840 
  96   0.0000       4.077606       110.9573 
  97   0.0000       4.447273       121.0164 
  98   0.0000       4.567309       124.2828 
  99   0.0000       4.600455       125.1847 
 100   0.0000       4.605639       125.3258 
 101   0.0000       4.615315       125.5891 
 102   0.0000       4.644617       126.3865 
 103   0.0000       4.860577       132.2630 
 104   0.0000       4.861389       132.2851 
 105   0.0000       5.079795       138.2282 
 106   0.0000       5.082309       138.2966 
 107   0.0000       5.086827       138.4196 
 108   0.0000       5.093238       138.5940 
 109   0.0000       5.173104       140.7673 
 110   0.0000       5.178919       140.9256 
 111   0.0000       5.301127       144.2510 
 112   0.0000       5.320580       144.7803 
 113   0.0000       5.505928       149.8239 
 114   0.0000       5.508723       149.9000 
 115   0.0000       5.550039       151.0242 
 116   0.0000       5.772794       157.0857 
 117   0.0000       6.045814       164.5150 
 118   0.0000       6.080847       165.4683 
 119   0.0000       6.192537       168.5075 
 120   0.0000       6.232411       169.5925 
 121   0.0000       6.266968       170.5329 
 122   0.0000       6.276967       170.8049 
 123   0.0000       6.503615       176.9724 
 124   0.0000       6.709638       182.5785 
 125   0.0000       6.711057       182.6171 
 126   0.0000       6.712091       182.6453 
 127   0.0000       6.949169       189.0965 
 128   0.0000       6.991391       190.2454 
 129   0.0000       7.046474       191.7443 
 130   0.0000       7.347063       199.9237 
 131   0.0000       7.466676       203.1786 
 132   0.0000      22.148801       602.6995 
 133   0.0000      31.749252       863.9411 
 134   0.0000      43.540697      1184.8026 
 135   0.0000      43.581798      1185.9210 

                    ********************************
                    * MULLIKEN POPULATION ANALYSIS *
                    ********************************

-----------------------
MULLIKEN ATOMIC CHARGES
-----------------------
   0 N :    0.354041
   1 C :   -0.464757
   2 H :    0.135172
   3 O :   -0.579614
   4 H :    0.135002
   5 O :   -0.579844
Sum of atomic charges:   -1.0000000

--------------------------------
MULLIKEN REDUCED ORBITAL CHARGES
--------------------------------
  0 N s       :     3.321615  s :     3.321615
      pz      :     0.910676  p :     3.097213
      px      :     0.966382
      py      :     1.220155
      dz2     :     0.047231  d :     0.214858
      dxz     :     0.065849
      dyz     :     0.041969
      dx2y2   :     0.020504
      dxy     :     0.039305
      f0      :     0.001835  f :     0.012274
      f+1     :     0.003985
      f-1     :     0.001742
      f+2     :     0.001094
      f-2     :     0.001227
      f+3     :     0.001122
      f-3     :     0.001269
  1 C s       :     3.274514  s :     3.274514
      pz      :     0.970819  p :     3.128659
      px      :     0.891397
      py      :     1.266443
      dz2     :     0.016146  d :     0.054107
      dxz     :     0.013287
      dyz     :     0.006246
      dx2y2   :     0.009075
      dxy     :     0.009353
      f0      :     0.001081  f :     0.007477
      f+1     :     0.001498
      f-1     :     0.000322
      f+2     :     0.001438
      f-2     :     0.000870
      f+3     :     0.001141
      f-3     :     0.001126
  2 H s       :     0.841912  s :     0.841912
      pz      :     0.012232  p :     0.022916
      px      :     0.003310
      py      :     0.007375
  3 O s       :     3.872326  s :     3.872326
      pz      :     1.753779  p :     4.671572
      px      :     1.248139
      py      :     1.669654
      dz2     :     0.003920  d :     0.033089
      dxz     :     0.010005
      dyz     :     0.001634
      dx2y2   :     0.009758
      dxy     :     0.007773
      f0      :     0.000321  f :     0.002626
      f+1     :     0.000430
      f-1     :     0.000016
      f+2     :     0.000637
      f-2     :     0.000258
      f+3     :     0.000520
      f-3     :     0.000445
  4 H s       :     0.842072  s :     0.842072
      pz      :     0.004978  p :     0.022926
      px      :     0.010522
      py      :     0.007427
  5 O s       :     3.872398  s :     3.872398
      pz      :     1.130317  p :     4.671745
      px      :     1.868365
      py      :     1.673064
      dz2     :     0.016712  d :     0.033076
      dxz     :     0.006671
      dyz     :     0.008898
      dx2y2   :     0.000397
      dxy     :     0.000398
      f0      :     0.001308  f :     0.002625
      f+1     :     0.000570
      f-1     :     0.000662
      f+2     :     0.000041
      f-2     :     0.000038
      f+3     :     0.000004
      f-3     :     0.000003


                     *******************************
                     * LOEWDIN POPULATION ANALYSIS *
                     *******************************

----------------------
LOEWDIN ATOMIC CHARGES
----------------------
   0 N :   -0.115997
   1 C :   -0.444176
   2 H :    0.103086
   3 O :   -0.322868
   4 H :    0.103055
   5 O :   -0.323099

-------------------------------
LOEWDIN REDUCED ORBITAL CHARGES
-------------------------------
  0 N s       :     2.951237  s :     2.951237
      pz      :     1.112776  p :     3.384632
      px      :     1.152640
      py      :     1.119217
      dz2     :     0.179093  d :     0.719013
      dxz     :     0.223728
      dyz     :     0.118225
      dx2y2   :     0.084060
      dxy     :     0.113906
      f0      :     0.009937  f :     0.061115
      f+1     :     0.020925
      f-1     :     0.007824
      f+2     :     0.005709
      f-2     :     0.006912
      f+3     :     0.005227
      f-3     :     0.004581
  1 C s       :     2.897416  s :     2.897416
      pz      :     1.030585  p :     3.241324
      px      :     0.997952
      py      :     1.212787
      dz2     :     0.077934  d :     0.264228
      dxz     :     0.080265
      dyz     :     0.021469
      dx2y2   :     0.050005
      dxy     :     0.034554
      f0      :     0.004592  f :     0.041209
      f+1     :     0.009708
      f-1     :     0.001041
      f+2     :     0.008851
      f-2     :     0.006722
      f+3     :     0.005499
      f-3     :     0.004797
  2 H s       :     0.828187  s :     0.828187
      pz      :     0.036871  p :     0.068727
      px      :     0.010510
      py      :     0.021347
  3 O s       :     3.555761  s :     3.555761
      pz      :     1.709129  p :     4.675516
      px      :     1.339690
      py      :     1.626697
      dz2     :     0.010093  d :     0.083158
      dxz     :     0.026281
      dyz     :     0.003480
      dx2y2   :     0.025624
      dxy     :     0.017679
      f0      :     0.000957  f :     0.008433
      f+1     :     0.001392
      f-1     :     0.000033
      f+2     :     0.002134
      f-2     :     0.000764
      f+3     :     0.001734
      f-3     :     0.001419
  4 H s       :     0.828213  s :     0.828213
      pz      :     0.015945  p :     0.068732
      px      :     0.031307
      py      :     0.021481
  5 O s       :     3.555885  s :     3.555885
      pz      :     1.264603  p :     4.675658
      px      :     1.781927
      py      :     1.629128
      dz2     :     0.044126  d :     0.083128
      dxz     :     0.017415
      dyz     :     0.020197
      dx2y2   :     0.000773
      dxy     :     0.000617
      f0      :     0.004219  f :     0.008428
      f+1     :     0.001942
      f-1     :     0.002055
      f+2     :     0.000107
      f-2     :     0.000097
      f+3     :     0.000006
      f-3     :     0.000004


                      *****************************
                      * MAYER POPULATION ANALYSIS *
                      *****************************

  NA   - Mulliken gross atomic population
  ZA   - Total nuclear charge
  QA   - Mulliken gross atomic charge
  VA   - Mayer's total valence
  BVA  - Mayer's bonded valence
  FA   - Mayer's free valence

  ATOM       NA         ZA         QA         VA         BVA        FA
  0 N      6.6460     7.0000     0.3540     4.0989     4.0989    -0.0000
  1 C      6.4648     6.0000    -0.4648     3.8115     3.8115     0.0000
  2 H      0.8648     1.0000     0.1352     0.9681     0.9681    -0.0000
  3 O      8.5796     8.0000    -0.5796     1.6409     1.6409    -0.0000
  4 H      0.8650     1.0000     0.1350     0.9681     0.9681     0.0000
  5 O      8.5798     8.0000    -0.5798     1.6404     1.6404    -0.0000

  Mayer bond orders larger than 0.100000
B(  0-N ,  1-C ) :   1.4669 B(  0-N ,  3-O ) :   1.3197 B(  0-N ,  5-O ) :   1.3191 
B(  1-C ,  2-H ) :   0.9528 B(  1-C ,  3-O ) :   0.2194 B(  1-C ,  4-H ) :   0.9529 
B(  1-C ,  5-O ) :   0.2194 

-------
TIMINGS
-------

Total SCF time: 0 days 0 hours 0 min 6 sec 

Total time                  ....       6.551 sec
Sum of individual times     ....       5.482 sec  ( 83.7%)

Fock matrix formation       ....       4.954 sec  ( 75.6%)
  Split-RI-J                ....       0.573 sec  ( 11.6% of F)
  XC integration            ....       2.583 sec  ( 52.1% of F)
    Basis function eval.    ....       0.780 sec  ( 30.2% of XC)
    Density eval.           ....       0.474 sec  ( 18.4% of XC)
    XC-Functional eval.     ....       0.200 sec  (  7.7% of XC)
    XC-Potential eval.      ....       0.550 sec  ( 21.3% of XC)
Diagonalization             ....       0.003 sec  (  0.0%)
Density matrix formation    ....       0.001 sec  (  0.0%)
Population analysis         ....       0.158 sec  (  2.4%)
Initial guess               ....       0.004 sec  (  0.1%)
Orbital Transformation      ....       0.000 sec  (  0.0%)
Orbital Orthonormalization  ....       0.002 sec  (  0.0%)
DIIS solution               ....       0.000 sec  (  0.0%)
SOSCF solution              ....       0.085 sec  (  1.3%)
Grid generation             ....       0.276 sec  (  4.2%)

Maximum memory used throughout the entire SCF-calculation: 36.6 MB


-------------------------------------------------------------------------------
                          DFT DISPERSION CORRECTION                            
                                                                               
                              DFTD3 V3.1  Rev 1                                
                          USING Becke-Johnson damping                          
-------------------------------------------------------------------------------
The PBE functional is recognized
Active option DFTDOPT                   ...         4   

molecular C6(AA) [au] = 382.943756 


            DFT-D V3
 parameters
 s6 scaling factor         :     1.0000 
 a1 scaling factor         :     0.4289 
 s8 scaling factor         :     0.7875 
 a2 scaling factor         :     4.4407 
 ad hoc parameters k1-k3   :    16.0000     1.3333    -4.0000 

 Edisp/kcal,au: -1.862348456974  -0.002967840862 
 E6   /kcal   :  -1.330674785 
 E8   /kcal   :  -0.531673672 
 % E8         :  28.548560266 

-------------------------   ----------------
Dispersion correction           -0.002967841
-------------------------   ----------------


-------------------------   --------------------
FINAL SINGLE POINT ENERGY      -244.394042199314
-------------------------   --------------------

                                *** OPTIMIZATION RUN DONE ***

                            ***************************************
                            *     ORCA property calculations      *
                            ***************************************

                                    ---------------------
                                    Active property flags
                                    ---------------------
   (+) Dipole Moment


------------------------------------------------------------------------------
                       ORCA ELECTRIC PROPERTIES CALCULATION
------------------------------------------------------------------------------

Dipole Moment Calculation                       ... on
Quadrupole Moment Calculation                   ... off
Polarizability Calculation                      ... off
GBWName                                         ... inp.gbw
Electron density                                ... inp.scfp
The origin for moment calculation is the CENTER OF MASS  = (-12.498483, -5.587709  6.257470)

-------------
DIPOLE MOMENT
-------------
                                X             Y             Z
Electronic contribution:     -1.75051      -0.44824       1.27525
Nuclear contribution   :      2.76520       0.70958      -2.01455
                        -----------------------------------------
Total Dipole Moment    :      1.01469       0.26134      -0.73930
                        -----------------------------------------
Magnitude (a.u.)       :      1.28237
Magnitude (Debye)      :      3.25952



--------------------
Rotational spectrum 
--------------------
 
Rotational constants in cm-1:     0.406333     0.397890     0.201034 
Rotational constants in MHz : 12181.566110 11928.446856  6026.840262 

 Dipole components along the rotational axes: 
x,y,z [a.u.] :    -1.282347     0.006924     0.001667 
x,y,z [Debye]:    -3.259467     0.017599     0.004238 

 

Timings for individual modules:

Sum of individual times         ...      135.687 sec (=   2.261 min)
GTO integral calculation        ...        6.279 sec (=   0.105 min)   4.6 %
SCF iterations                  ...      104.487 sec (=   1.741 min)  77.0 %
SCF Gradient evaluation         ...       23.804 sec (=   0.397 min)  17.5 %
Geometry relaxation             ...        1.118 sec (=   0.019 min)   0.8 %
                             ****ORCA TERMINATED NORMALLY****
TOTAL RUN TIME: 0 days 0 hours 2 minutes 20 seconds 732 msec
