
                                 *****************
                                 * O   R   C   A *
                                 *****************

                                            #,                                       
                                            ###                                      
                                            ####                                     
                                            #####                                    
                                            ######                                   
                                           ########,                                 
                                     ,,################,,,,,                         
                               ,,#################################,,                 
                          ,,##########################################,,             
                       ,#########################################, ''#####,          
                    ,#############################################,,   '####,        
                  ,##################################################,,,,####,       
                ,###########''''           ''''###############################       
              ,#####''   ,,,,##########,,,,          '''####'''          '####       
            ,##' ,,,,###########################,,,                        '##       
           ' ,,###''''                  '''############,,,                           
         ,,##''                                '''############,,,,        ,,,,,,###''
      ,#''                                            '''#######################'''  
     '                                                          ''''####''''         
             ,#######,   #######,   ,#######,      ##                                
            ,#'     '#,  ##    ##  ,#'     '#,    #''#        ######   ,####,        
            ##       ##  ##   ,#'  ##            #'  '#       #        #'  '#        
            ##       ##  #######   ##           ,######,      #####,   #    #        
            '#,     ,#'  ##    ##  '#,     ,#' ,#      #,         ##   #,  ,#        
             '#######'   ##     ##  '#######'  #'      '#     #####' # '####'        



                  #######################################################
                  #                        -***-                        #
                  #          Department of theory and spectroscopy      #
                  #    Directorship and core code : Frank Neese         #
                  #        Max Planck Institute fuer Kohlenforschung    #
                  #                Kaiser Wilhelm Platz 1               #
                  #                 D-45470 Muelheim/Ruhr               #
                  #                      Germany                        #
                  #                                                     #
                  #                  All rights reserved                #
                  #                        -***-                        #
                  #######################################################


                         Program Version 5.0.4 -  RELEASE  -


 With contributions from (in alphabetic order):
   Daniel Aravena         : Magnetic Suceptibility
   Michael Atanasov       : Ab Initio Ligand Field Theory (pilot matlab implementation)
   Alexander A. Auer      : GIAO ZORA, VPT2 properties, NMR spectrum
   Ute Becker             : Parallelization
   Giovanni Bistoni       : ED, misc. LED, open-shell LED, HFLD
   Martin Brehm           : Molecular dynamics
   Dmytro Bykov           : SCF Hessian
   Vijay G. Chilkuri      : MRCI spin determinant printing, contributions to CSF-ICE
   Dipayan Datta          : RHF DLPNO-CCSD density
   Achintya Kumar Dutta   : EOM-CC, STEOM-CC
   Dmitry Ganyushin       : Spin-Orbit,Spin-Spin,Magnetic field MRCI
   Miquel Garcia          : C-PCM and meta-GGA Hessian, CC/C-PCM, Gaussian charge scheme
   Yang Guo               : DLPNO-NEVPT2, F12-NEVPT2, CIM, IAO-localization
   Andreas Hansen         : Spin unrestricted coupled pair/coupled cluster methods
   Benjamin Helmich-Paris : MC-RPA, TRAH-SCF, COSX integrals
   Lee Huntington         : MR-EOM, pCC
   Robert Izsak           : Overlap fitted RIJCOSX, COSX-SCS-MP3, EOM
   Marcus Kettner         : VPT2
   Christian Kollmar      : KDIIS, OOCD, Brueckner-CCSD(T), CCSD density, CASPT2, CASPT2-K
   Simone Kossmann        : Meta GGA functionals, TD-DFT gradient, OOMP2, MP2 Hessian
   Martin Krupicka        : Initial AUTO-CI
   Lucas Lang             : DCDCAS
   Marvin Lechner         : AUTO-CI (C++ implementation), FIC-MRCC
   Dagmar Lenk            : GEPOL surface, SMD
   Dimitrios Liakos       : Extrapolation schemes; Compound Job, initial MDCI parallelization
   Dimitrios Manganas     : Further ROCIS development; embedding schemes
   Dimitrios Pantazis     : SARC Basis sets
   Anastasios Papadopoulos: AUTO-CI, single reference methods and gradients
   Taras Petrenko         : DFT Hessian,TD-DFT gradient, ASA, ECA, R-Raman, ABS, FL, XAS/XES, NRVS
   Peter Pinski           : DLPNO-MP2, DLPNO-MP2 Gradient
   Christoph Reimann      : Effective Core Potentials
   Marius Retegan         : Local ZFS, SOC
   Christoph Riplinger    : Optimizer, TS searches, QM/MM, DLPNO-CCSD(T), (RO)-DLPNO pert. Triples
   Tobias Risthaus        : Range-separated hybrids, TD-DFT gradient, RPA, STAB
   Michael Roemelt        : Original ROCIS implementation
   Masaaki Saitow         : Open-shell DLPNO-CCSD energy and density
   Barbara Sandhoefer     : DKH picture change effects
   Avijit Sen             : IP-ROCIS
   Kantharuban Sivalingam : CASSCF convergence, NEVPT2, FIC-MRCI
   Bernardo de Souza      : ESD, SOC TD-DFT
   Georgi Stoychev        : AutoAux, RI-MP2 NMR, DLPNO-MP2 response
   Willem Van den Heuvel  : Paramagnetic NMR
   Boris Wezisla          : Elementary symmetry handling
   Frank Wennmohs         : Technical directorship


 We gratefully acknowledge several colleagues who have allowed us to
 interface, adapt or use parts of their codes:
   Stefan Grimme, W. Hujo, H. Kruse, P. Pracht,  : VdW corrections, initial TS optimization,
                  C. Bannwarth, S. Ehlert          DFT functionals, gCP, sTDA/sTD-DF
   Ed Valeev, F. Pavosevic, A. Kumar             : LibInt (2-el integral package), F12 methods
   Garnet Chan, S. Sharma, J. Yang, R. Olivares  : DMRG
   Ulf Ekstrom                                   : XCFun DFT Library
   Mihaly Kallay                                 : mrcc  (arbitrary order and MRCC methods)
   Jiri Pittner, Ondrej Demel                    : Mk-CCSD
   Frank Weinhold                                : gennbo (NPA and NBO analysis)
   Christopher J. Cramer and Donald G. Truhlar   : smd solvation model
   Lars Goerigk                                  : TD-DFT with DH, B97 family of functionals
   V. Asgeirsson, H. Jonsson                     : NEB implementation
   FAccTs GmbH                                   : IRC, NEB, NEB-TS, DLPNO-Multilevel, CI-OPT
                                                   MM, QMMM, 2- and 3-layer-ONIOM, Crystal-QMMM,
                                                   LR-CPCM, SF, NACMEs, symmetry and pop. for TD-DFT,
                                                   nearIR, NL-DFT gradient (VV10), updates on ESD,
                                                   ML-optimized integration grids
   S Lehtola, MJT Oliveira, MAL Marques          : LibXC Library
   Liviu Ungur et al                             : ANISO software


 Your calculation uses the libint2 library for the computation of 2-el integrals
 For citations please refer to: http://libint.valeyev.net

 Your ORCA version has been built with support for libXC version: 5.1.0
 For citations please refer to: https://tddft.org/programs/libxc/

 This ORCA versions uses:
   CBLAS   interface :  Fast vector & matrix operations
   LAPACKE interface :  Fast linear algebra routines
   SCALAPACK package :  Parallel linear algebra routines
   Shared memory     :  Shared parallel matrices
   BLAS/LAPACK       :  OpenBLAS 0.3.15  USE64BITINT DYNAMIC_ARCH NO_AFFINITY Haswell SINGLE_THREADED
        Core in use  :  Haswell
   Copyright (c) 2011-2014, The OpenBLAS Project


================================================================================

----- Orbital basis set information -----
Your calculation utilizes the basis: def2-TZVP
   F. Weigend and R. Ahlrichs, Phys. Chem. Chem. Phys. 7, 3297 (2005).

----- AuxJ basis set information -----
Your calculation utilizes the auxiliary basis: def2/J
   F. Weigend, Phys. Chem. Chem. Phys. 8, 1057 (2006).

================================================================================
                                        WARNINGS
                       Please study these warnings very carefully!
================================================================================


WARNING: Geometry Optimization
  ===> : Switching off AutoStart
         For restart on a previous wavefunction, please use MOREAD

INFO   : the flag for use of the SHARK integral package has been found!

================================================================================
                                       INPUT FILE
================================================================================
NAME = inp.inp
|  1> !OPT PBE def2-TZVP CPCM(water)
|  2> 
|  3> *xyz -1 1
|  4> C     -5.335240   -3.653732    0.536902
|  5> C     -6.359137   -4.233313    1.177839
|  6> O     -8.301524   -5.548166    1.267391
|  7> H     -5.207352   -3.799964   -0.532331
|  8> O     -7.244312   -5.315284   -0.749880
|  9> C     -7.403413   -5.121176    0.486659
| 10> H     -4.622187   -3.034403    1.064586
| 11> H     -6.489152   -4.087492    2.245415
| 12> *
| 13> 
| 14>                          ****END OF INPUT****
================================================================================

                       *****************************
                       * Geometry Optimization Run *
                       *****************************

Geometry optimization settings:
Update method            Update   .... BFGS
Choice of coordinates    CoordSys .... Z-matrix Internals
Initial Hessian          InHess   .... Almoef's Model

Convergence Tolerances:
Energy Change            TolE     ....  5.0000e-06 Eh
Max. Gradient            TolMAXG  ....  3.0000e-04 Eh/bohr
RMS Gradient             TolRMSG  ....  1.0000e-04 Eh/bohr
Max. Displacement        TolMAXD  ....  4.0000e-03 bohr
RMS Displacement         TolRMSD  ....  2.0000e-03 bohr
Strict Convergence                ....  False
------------------------------------------------------------------------------
                        ORCA OPTIMIZATION COORDINATE SETUP
------------------------------------------------------------------------------

The optimization will be done in new redundant internal coordinates
Making redundant internal coordinates   ...  (new redundants) done
Evaluating the initial hessian          ...  (Almloef) done
Evaluating the coordinates              ...  done
Calculating the B-matrix                .... done
Calculating the G-matrix                .... done
Diagonalizing the G-matrix              .... done
The first mode is                       ....    6
The number of degrees of freedom        ....   18

    -----------------------------------------------------------------
                    Redundant Internal Coordinates


    -----------------------------------------------------------------
         Definition                    Initial Value    Approx d2E/dq
    -----------------------------------------------------------------
      1. B(C   1,C   0)                  1.3398         0.751312   
      2. B(H   3,C   0)                  1.0867         0.364442   
      3. B(C   5,C   1)                  1.5351         0.366636   
      4. B(C   5,O   4)                  1.2618         0.896367   
      5. B(C   5,O   2)                  1.2643         0.888003   
      6. B(H   6,C   0)                  1.0819         0.371004   
      7. B(H   7,C   1)                  1.0853         0.366365   
      8. A(C   1,C   0,H   6)          121.1976         0.366504   
      9. A(C   1,C   0,H   3)          120.1589         0.365385   
     10. A(H   3,C   0,H   6)          118.6436         0.292759   
     11. A(C   0,C   1,H   7)          120.2646         0.365715   
     12. A(C   0,C   1,C   5)          123.6881         0.408996   
     13. A(C   5,C   1,H   7)          116.0472         0.324239   
     14. A(C   1,C   5,O   2)          113.6111         0.418600   
     15. A(O   2,C   5,O   4)          130.0006         0.489198   
     16. A(C   1,C   5,O   4)          116.3882         0.419300   
     17. D(H   7,C   1,C   0,H   6)      0.0503         0.040269   
     18. D(H   7,C   1,C   0,H   3)   -179.9285         0.040269   
     19. D(C   5,C   1,C   0,H   6)    179.9611         0.040269   
     20. D(C   5,C   1,C   0,H   3)     -0.0177         0.040269   
     21. D(O   2,C   5,C   1,H   7)      1.2344         0.009358   
     22. D(O   4,C   5,C   1,C   0)      1.3584         0.009358   
     23. D(O   2,C   5,C   1,C   0)   -178.6799         0.009358   
     24. D(O   4,C   5,C   1,H   7)   -178.7274         0.009358   
    -----------------------------------------------------------------

Number of atoms                         .... 8
Number of degrees of freedom            .... 24

         *************************************************************
         *                GEOMETRY OPTIMIZATION CYCLE   1            *
         *************************************************************
---------------------------------
CARTESIAN COORDINATES (ANGSTROEM)
---------------------------------
  C     -5.335240   -3.653732    0.536902
  C     -6.359137   -4.233313    1.177839
  O     -8.301524   -5.548166    1.267391
  H     -5.207352   -3.799964   -0.532331
  O     -7.244312   -5.315284   -0.749880
  C     -7.403413   -5.121176    0.486659
  H     -4.622187   -3.034403    1.064586
  H     -6.489152   -4.087492    2.245415

----------------------------
CARTESIAN COORDINATES (A.U.)
----------------------------
  NO LB      ZA    FRAG     MASS         X           Y           Z
   0 C     6.0000    0    12.011  -10.082142   -6.904553    1.014598
   1 C     6.0000    0    12.011  -12.017027   -7.999802    2.225793
   2 O     8.0000    0    15.999  -15.687607  -10.484514    2.395022
   3 H     1.0000    0     1.008   -9.840469   -7.180891   -1.005960
   4 O     8.0000    0    15.999  -13.689766  -10.044431   -1.417068
   5 C     6.0000    0    12.011  -13.990423   -9.677620    0.919652
   6 H     1.0000    0     1.008   -8.734668   -5.734191    2.011776
   7 H     1.0000    0     1.008  -12.262720   -7.724240    4.243219

--------------------------------
INTERNAL COORDINATES (ANGSTROEM)
--------------------------------
 C      0   0   0     0.000000000000     0.00000000     0.00000000
 C      1   0   0     1.339805747166     0.00000000     0.00000000
 O      2   1   0     2.347280390171   153.24740825     0.00000000
 H      1   2   3     1.086737478261   120.15885743   358.53483411
 O      3   2   1     2.289391518790    61.78842056     2.46220337
 C      5   3   2     1.261752647069    25.02667752   359.96956827
 H      1   2   3     1.081879565805   121.19757005   178.51367488
 H      2   1   3     1.085304648494   120.26457079   181.53663986

---------------------------
INTERNAL COORDINATES (A.U.)
---------------------------
 C      0   0   0     0.000000000000     0.00000000     0.00000000
 C      1   0   0     2.531865934797     0.00000000     0.00000000
 O      2   1   0     4.435717096947   153.24740825     0.00000000
 H      1   2   3     2.053636213381   120.15885743   358.53483411
 O      3   2   1     4.326322983836    61.78842056     2.46220337
 C      5   3   2     2.384366951711    25.02667752   359.96956827
 H      1   2   3     2.044456089257   121.19757005   178.51367488
 H      2   1   3     2.050928557525   120.26457079   181.53663986

---------------------
BASIS SET INFORMATION
---------------------
There are 3 groups of distinct atoms

 Group   1 Type C   : 11s6p2d1f contracted to 5s3p2d1f pattern {62111/411/11/1}
 Group   2 Type O   : 11s6p2d1f contracted to 5s3p2d1f pattern {62111/411/11/1}
 Group   3 Type H   : 5s1p contracted to 3s1p pattern {311/1}

Atom   0C    basis set group =>   1
Atom   1C    basis set group =>   1
Atom   2O    basis set group =>   2
Atom   3H    basis set group =>   3
Atom   4O    basis set group =>   2
Atom   5C    basis set group =>   1
Atom   6H    basis set group =>   3
Atom   7H    basis set group =>   3
---------------------------------
AUXILIARY/J BASIS SET INFORMATION
---------------------------------
There are 3 groups of distinct atoms

 Group   1 Type C   : 12s5p4d2f1g contracted to 6s4p3d1f1g pattern {711111/2111/211/2/1}
 Group   2 Type O   : 12s5p4d2f1g contracted to 6s4p3d1f1g pattern {711111/2111/211/2/1}
 Group   3 Type H   : 5s2p1d contracted to 3s1p1d pattern {311/2/1}

Atom   0C    basis set group =>   1
Atom   1C    basis set group =>   1
Atom   2O    basis set group =>   2
Atom   3H    basis set group =>   3
Atom   4O    basis set group =>   2
Atom   5C    basis set group =>   1
Atom   6H    basis set group =>   3
Atom   7H    basis set group =>   3
------------------------------------------------------------------------------
                           ORCA GTO INTEGRAL CALCULATION
                           -- RI-GTO INTEGRALS CHOSEN --
------------------------------------------------------------------------------
------------------------------------------------------------------------------
                   ___                                                        
                  /   \      - P O W E R E D   B Y -                         
                 /     \                                                     
                 |  |  |   _    _      __       _____    __    __             
                 |  |  |  | |  | |    /  \     |  _  \  |  |  /  |          
                  \  \/   | |  | |   /    \    | | | |  |  | /  /          
                 / \  \   | |__| |  /  /\  \   | |_| |  |  |/  /          
                |  |  |   |  __  | /  /__\  \  |    /   |      \           
                |  |  |   | |  | | |   __   |  |    \   |  |\   \          
                \     /   | |  | | |  |  |  |  | |\  \  |  | \   \       
                 \___/    |_|  |_| |__|  |__|  |_| \__\ |__|  \__/        
                                                                              
                      - O R C A' S   B I G   F R I E N D -                    
                                      &                                       
                       - I N T E G R A L  F E E D E R -                       
                                                                              
 v1 FN, 2020, v2 2021                                                         
------------------------------------------------------------------------------


Reading SHARK input file inp.SHARKINP.tmp ... ok
----------------------
SHARK INTEGRAL PACKAGE
----------------------

Number of atoms                             ...      8
Number of basis functions                   ...    173
Number of shells                            ...     67
Maximum angular momentum                    ...      3
Integral batch strategy                     ... SHARK/LIBINT Hybrid
RI-J (if used) integral strategy            ... SPLIT-RIJ (Revised 2003 algorithm where possible)
Printlevel                                  ...      1
Contraction scheme used                     ... SEGMENTED contraction
Coulomb Range Separation                    ... NOT USED
Exchange Range Separation                   ... NOT USED
Finite Nucleus Model                        ... NOT USED
Auxiliary Coulomb fitting basis             ... AVAILABLE
   # of basis functions in Aux-J            ...    278
   # of shells in Aux-J                     ...     90
   Maximum angular momentum in Aux-J        ...      4
Auxiliary J/K fitting basis                 ... NOT available
Auxiliary Correlation fitting basis         ... NOT available
Auxiliary 'external' fitting basis          ... NOT available
Integral threshold                          ...     2.500000e-11
Primitive cut-off                           ...     2.500000e-12
Primitive pair pre-selection threshold      ...     2.500000e-12

Calculating pre-screening integrals         ... done (  0.0 sec) Dimension = 67
Organizing shell pair data                  ... done (  0.1 sec)
Shell pair information
Total number of shell pairs                 ...      2278
Shell pairs after pre-screening             ...      2182
Total number of primitive shell pairs       ...      7140
Primitive shell pairs kept                  ...      5448
          la=0 lb=0:    548 shell pairs
          la=1 lb=0:    593 shell pairs
          la=1 lb=1:    170 shell pairs
          la=2 lb=0:    323 shell pairs
          la=2 lb=1:    177 shell pairs
          la=2 lb=2:     54 shell pairs
          la=3 lb=0:    163 shell pairs
          la=3 lb=1:     89 shell pairs
          la=3 lb=2:     50 shell pairs
          la=3 lb=3:     15 shell pairs

Calculating one electron integrals          ... done (  0.0 sec)
Calculating RI/J V-Matrix + Cholesky decomp.... done (  0.3 sec)
Calculating Nuclear repulsion               ... done (  0.1 sec) ENN=    151.800845822452 Eh

SHARK setup successfully completed in   1.2 seconds

Maximum memory used throughout the entire GTOINT-calculation: 39.5 MB
-------------------------------------------------------------------------------
                                 ORCA SCF
-------------------------------------------------------------------------------

------------
SCF SETTINGS
------------
Hamiltonian:
 Density Functional     Method          .... DFT(GTOs)
 Exchange Functional    Exchange        .... PBE
   PBE kappa parameter   XKappa         ....  0.804000
   PBE mue parameter    XMuePBE         ....  0.219520
 Correlation Functional Correlation     .... PBE
   PBE beta parameter  CBetaPBE         ....  0.066725
 LDA part of GGA corr.  LDAOpt          .... PW91-LDA
 Gradients option       PostSCFGGA      .... off
   Density functional embedding theory  .... OFF
   NL short-range parameter             ....  6.400000
 RI-approximation to the Coulomb term is turned on
   Number of AuxJ basis functions       .... 278


General Settings:
 Integral files         IntName         .... inp
 Hartree-Fock type      HFTyp           .... RHF
 Total Charge           Charge          ....   -1
 Multiplicity           Mult            ....    1
 Number of Electrons    NEL             ....   38
 Basis Dimension        Dim             ....  173
 Nuclear Repulsion      ENuc            ....    151.8008458225 Eh

Convergence Acceleration:
 DIIS                   CNVDIIS         .... on
   Start iteration      DIISMaxIt       ....    12
   Startup error        DIISStart       ....  0.200000
   # of expansion vecs  DIISMaxEq       ....     5
   Bias factor          DIISBfac        ....   1.050
   Max. coefficient     DIISMaxC        ....  10.000
 Trust-Rad. Augm. Hess. CNVTRAH         .... auto
   Auto Start mean grad. ratio tolernc. ....  1.125000
   Auto Start start iteration           ....    20
   Auto Start num. interpolation iter.  ....    10
   Max. Number of Micro iterations      ....    16
   Max. Number of Macro iterations      .... Maxiter - #DIIS iter
   Number of Davidson start vectors     ....     2
   Converg. threshold I  (grad. norm)   ....   1.000e-05
   Converg. threshold II (energy diff.) ....   1.000e-08
   Grad. Scal. Fac. for Micro threshold ....   0.100
   Minimum threshold for Micro iter.    ....   0.010
   NR start threshold (gradient norm)   ....   0.001
   Initial trust radius                 ....   0.400
   Minimum AH scaling param. (alpha)    ....   1.000
   Maximum AH scaling param. (alpha)    .... 1000.000
   Orbital update algorithm             .... Taylor
   White noise on init. David. guess    .... on
   Maximum white noise                  ....   0.010
   Quad. conv. algorithm                .... NR
 SOSCF                  CNVSOSCF        .... on
   Start iteration      SOSCFMaxIt      ....   150
   Startup grad/error   SOSCFStart      ....  0.003300
 Level Shifting         CNVShift        .... on
   Level shift para.    LevelShift      ....    0.2500
   Turn off err/grad.   ShiftErr        ....    0.0010
 Zerner damping         CNVZerner       .... off
 Static damping         CNVDamp         .... on
   Fraction old density DampFac         ....    0.7000
   Max. Damping (<1)    DampMax         ....    0.9800
   Min. Damping (>=0)   DampMin         ....    0.0000
   Turn off err/grad.   DampErr         ....    0.1000
 Fernandez-Rico         CNVRico         .... off

SCF Procedure:
 Maximum # iterations   MaxIter         ....   125
 SCF integral mode      SCFMode         .... Direct
   Integral package                     .... SHARK and LIBINT hybrid scheme
 Reset frequency        DirectResetFreq ....    20
 Integral Threshold     Thresh          ....  2.500e-11 Eh
 Primitive CutOff       TCut            ....  2.500e-12 Eh

Convergence Tolerance:
 Convergence Check Mode ConvCheckMode   .... Total+1el-Energy
 Convergence forced     ConvForced      .... 0
 Energy Change          TolE            ....  1.000e-08 Eh
 1-El. energy change                    ....  1.000e-05 Eh
 Orbital Gradient       TolG            ....  1.000e-05
 Orbital Rotation angle TolX            ....  1.000e-05
 DIIS Error             TolErr          ....  5.000e-07


Diagonalization of the overlap matrix:
Smallest eigenvalue                        ... 1.789e-04
Time for diagonalization                   ...    0.005 sec
Threshold for overlap eigenvalues          ... 1.000e-08
Number of eigenvalues below threshold      ... 0
Time for construction of square roots      ...    0.106 sec
Total time needed                          ...    0.111 sec

Time for model grid setup =    0.235 sec

------------------------------
INITIAL GUESS: MODEL POTENTIAL
------------------------------
Loading Hartree-Fock densities                     ... done
Calculating cut-offs                               ... done
Initializing the effective Hamiltonian             ... done
Setting up the integral package (SHARK)            ... done
Starting the Coulomb interaction                   ... done (   0.1 sec)
Reading the grid                                   ... done
Mapping shells                                     ... done
Starting the XC term evaluation                    ... done (   0.2 sec)
  promolecular density results
     # of electrons  =     36.998351902
     EX              =    -32.424352680
     EC              =     -1.212688280
     EX+EC           =    -33.637040960
Transforming the Hamiltonian                       ... done (   0.0 sec)
Diagonalizing the Hamiltonian                      ... done (   0.0 sec)
Back transforming the eigenvectors                 ... done (   0.0 sec)
Now organizing SCF variables                       ... done
                      ------------------
                      INITIAL GUESS DONE (   0.5 sec)
                      ------------------
-------------------
DFT GRID GENERATION
-------------------

General Integration Accuracy     IntAcc      ... 4.388
Radial Grid Type                 RadialGrid  ... OptM3 with GC (2021)
Angular Grid (max. ang.)         AngularGrid ... 4 (Lebedev-302)
Angular grid pruning method      GridPruning ... 4 (adaptive)
Weight generation scheme         WeightScheme... Becke
Basis function cutoff            BFCut       ... 1.0000e-11
Integration weight cutoff        WCut        ... 1.0000e-14
Angular grids for H and He will be reduced by one unit
Partially contracted basis set               ... off
Rotationally invariant grid construction     ... off

Total number of grid points                  ...    40244
Total number of batches                      ...      633
Average number of points per batch           ...       63
Average number of grid points per atom       ...     5030
Time for grid setup =    0.521 sec


--------------------
CPCM SOLVATION MODEL
--------------------
CPCM parameters:
  Epsilon                                         ...      80.4000
  Refrac                                          ...       1.3300
  Rsolv                                           ...       1.3000
  Surface type                                    ... GAUSSIAN VDW
  Epsilon function type                           ...         CPCM
Radii:
 Radius for C  used is    3.8550 Bohr (=   2.0400 Ang.)
 Radius for O  used is    3.4469 Bohr (=   1.8240 Ang.)
 Radius for H  used is    2.4944 Bohr (=   1.3200 Ang.)
Calculating surface                               ...        done! (  0.0s)
GEPOL surface points                              ...          523
GEPOL Volume                                      ...     626.5516
GEPOL Surface-area                                ...     397.5418
Calculating surface distance matrix               ...        done! (  0.0s)
Performing Cholesky decomposition & store         ...        done! (  0.1s)
Overall time for CPCM initialization              ...                 0.1s
--------------
SCF ITERATIONS
--------------
ITER       Energy         Delta-E        Max-DP      RMS-DP      [F,P]     Damp
               ***  Starting incremental Fock matrix formation  ***
  0   -266.2672219482   0.000000000000 0.32299134  0.00379608  0.3091212 0.7000
  1   -266.3942616852  -0.127039737007 0.30570119  0.00325460  0.1071223 0.7000
                               ***Turning on DIIS***
  2   -266.4315650259  -0.037303340725 0.32211684  0.00403176  0.0270928 0.0000
  3   -266.5024914400  -0.070926414125 0.28209515  0.00276196  0.0596116 0.0000
  4   -266.5149481271  -0.012456687101 0.08507562  0.00087441  0.0231204 0.0000
                      *** Initiating the SOSCF procedure ***
                           *** Shutting down DIIS ***
                      *** Re-Reading the Fockian *** 
                      *** Removing any level shift *** 
ITER      Energy       Delta-E        Grad      Rot      Max-DP    RMS-DP
  5   -266.51672783  -0.0017796990  0.001103  0.001103  0.027549  0.000292
               *** Restarting incremental Fock matrix formation ***
  6   -266.51678316  -0.0000553361  0.000473  0.002567  0.014245  0.000170
  7   -266.51678016   0.0000030062  0.001024  0.001707  0.002498  0.000039
  8   -266.51678873  -0.0000085742  0.000164  0.000443  0.004901  0.000062
  9   -266.51678863   0.0000000982  0.000238  0.000512  0.000348  0.000011
 10   -266.51678926  -0.0000006316  0.000146  0.000467  0.002656  0.000033
 11   -266.51678923   0.0000000293  0.000140  0.000159  0.000878  0.000011
 12   -266.51678960  -0.0000003668  0.000025  0.000074  0.000712  0.000009
 13   -266.51678961  -0.0000000125  0.000013  0.000031  0.000364  0.000004
 14   -266.51678962  -0.0000000056  0.000005  0.000010  0.000027  0.000001
 15   -266.51678962   0.0000000001  0.000003  0.000006  0.000033  0.000001
                 **** Energy Check signals convergence ****
              ***Rediagonalizing the Fockian in SOSCF/NRSCF***

               *****************************************************
               *                     SUCCESS                       *
               *           SCF CONVERGED AFTER  16 CYCLES          *
               *****************************************************


----------------
TOTAL SCF ENERGY
----------------

Total Energy       :         -266.51678962 Eh           -7252.29054 eV

Components:
Nuclear Repulsion  :          151.80084582 Eh            4130.71102 eV
Electronic Energy  :         -418.31763544 Eh          -11383.00156 eV
One Electron Energy:         -672.89618718 Eh          -18310.43614 eV
Two Electron Energy:          254.57855174 Eh            6927.43458 eV
CPCM Dielectric    :           -0.10888451 Eh              -2.96290 eV

Virial components:
Potential Energy   :         -531.97671828 Eh          -14475.82244 eV
Kinetic Energy     :          265.45992866 Eh            7223.53190 eV
Virial Ratio       :            2.00398124


DFT components:
N(Alpha)           :       18.999996858438 electrons
N(Beta)            :       18.999996858438 electrons
N(Total)           :       37.999993716876 electrons
E(X)               :      -33.228958966958 Eh       
E(C)               :       -1.255515219433 Eh       
E(XC)              :      -34.484474186392 Eh       
DFET-embed. en.    :        0.000000000000 Eh       
CPCM Solvation Model Properties:
Surface-charge          :            0.97555520
Charge-correction       :           -0.00389897 Eh              -0.10610 eV
Free-energy (cav+disp)  :  This term is not implemented in the current solvation scheme

---------------
SCF CONVERGENCE
---------------

  Last Energy change         ...    5.7247e-10  Tolerance :   1.0000e-08
  Last MAX-Density change    ...    7.2022e-06  Tolerance :   1.0000e-07
  Last RMS-Density change    ...    1.1652e-07  Tolerance :   5.0000e-09
  Last Orbital Gradient      ...    6.5626e-07  Tolerance :   1.0000e-05
  Last Orbital Rotation      ...    1.5394e-06  Tolerance :   1.0000e-05

             **** THE GBW FILE WAS UPDATED (inp.gbw) ****
             **** DENSITY inp.scfp WAS UPDATED ****
             **** ENERGY FILE WAS UPDATED (inp.en.tmp) ****
             **** THE GBW FILE WAS UPDATED (inp.gbw) ****
             **** DENSITY inp.scfp WAS UPDATED ****
----------------
ORBITAL ENERGIES
----------------

  NO   OCC          E(Eh)            E(eV) 
   0   2.0000     -18.679291      -508.2894 
   1   2.0000     -18.677936      -508.2525 
   2   2.0000      -9.945480      -270.6303 
   3   2.0000      -9.869514      -268.5631 
   4   2.0000      -9.868814      -268.5441 
   5   2.0000      -0.917997       -24.9800 
   6   2.0000      -0.839083       -22.8326 
   7   2.0000      -0.679546       -18.4914 
   8   2.0000      -0.528001       -14.3676 
   9   2.0000      -0.435583       -11.8528 
  10   2.0000      -0.391075       -10.6417 
  11   2.0000      -0.370083       -10.0705 
  12   2.0000      -0.342807        -9.3283 
  13   2.0000      -0.336009        -9.1433 
  14   2.0000      -0.308917        -8.4061 
  15   2.0000      -0.231247        -6.2925 
  16   2.0000      -0.206966        -5.6318 
  17   2.0000      -0.185634        -5.0513 
  18   2.0000      -0.180704        -4.9172 
  19   0.0000      -0.047094        -1.2815 
  20   0.0000       0.065017         1.7692 
  21   0.0000       0.075054         2.0423 
  22   0.0000       0.082302         2.2395 
  23   0.0000       0.095038         2.5861 
  24   0.0000       0.136853         3.7240 
  25   0.0000       0.169232         4.6050 
  26   0.0000       0.188521         5.1299 
  27   0.0000       0.191035         5.1983 
  28   0.0000       0.204248         5.5579 
  29   0.0000       0.223028         6.0689 
  30   0.0000       0.249420         6.7871 
  31   0.0000       0.267232         7.2718 
  32   0.0000       0.291784         7.9398 
  33   0.0000       0.316110         8.6018 
  34   0.0000       0.348891         9.4938 
  35   0.0000       0.357528         9.7288 
  36   0.0000       0.398711        10.8495 
  37   0.0000       0.410336        11.1658 
  38   0.0000       0.423827        11.5329 
  39   0.0000       0.438407        11.9297 
  40   0.0000       0.454834        12.3767 
  41   0.0000       0.459054        12.4915 
  42   0.0000       0.477392        12.9905 
  43   0.0000       0.511804        13.9269 
  44   0.0000       0.541117        14.7245 
  45   0.0000       0.565167        15.3790 
  46   0.0000       0.586854        15.9691 
  47   0.0000       0.607181        16.5222 
  48   0.0000       0.619203        16.8494 
  49   0.0000       0.660674        17.9778 
  50   0.0000       0.686570        18.6825 
  51   0.0000       0.733091        19.9484 
  52   0.0000       0.737799        20.0765 
  53   0.0000       0.816593        22.2206 
  54   0.0000       0.855960        23.2919 
  55   0.0000       0.892696        24.2915 
  56   0.0000       0.896521        24.3956 
  57   0.0000       0.948058        25.7980 
  58   0.0000       1.003588        27.3090 
  59   0.0000       1.030003        28.0278 
  60   0.0000       1.101430        29.9714 
  61   0.0000       1.117636        30.4124 
  62   0.0000       1.161882        31.6164 
  63   0.0000       1.184962        32.2445 
  64   0.0000       1.208876        32.8952 
  65   0.0000       1.317006        35.8376 
  66   0.0000       1.347395        36.6645 
  67   0.0000       1.402769        38.1713 
  68   0.0000       1.438329        39.1389 
  69   0.0000       1.442110        39.2418 
  70   0.0000       1.472506        40.0689 
  71   0.0000       1.488788        40.5120 
  72   0.0000       1.533435        41.7269 
  73   0.0000       1.543101        41.9899 
  74   0.0000       1.592249        43.3273 
  75   0.0000       1.632834        44.4317 
  76   0.0000       1.672898        45.5219 
  77   0.0000       1.717086        46.7243 
  78   0.0000       1.744930        47.4820 
  79   0.0000       1.765678        48.0466 
  80   0.0000       1.772440        48.2305 
  81   0.0000       1.806133        49.1474 
  82   0.0000       1.873629        50.9840 
  83   0.0000       1.948107        53.0107 
  84   0.0000       1.980511        53.8924 
  85   0.0000       2.008007        54.6407 
  86   0.0000       2.059253        56.0351 
  87   0.0000       2.115465        57.5647 
  88   0.0000       2.138150        58.1820 
  89   0.0000       2.182195        59.3806 
  90   0.0000       2.217162        60.3320 
  91   0.0000       2.263467        61.5921 
  92   0.0000       2.353324        64.0372 
  93   0.0000       2.370460        64.5035 
  94   0.0000       2.421146        65.8827 
  95   0.0000       2.455968        66.8303 
  96   0.0000       2.488129        67.7054 
  97   0.0000       2.533877        68.9503 
  98   0.0000       2.548292        69.3425 
  99   0.0000       2.584530        70.3286 
 100   0.0000       2.621891        71.3453 
 101   0.0000       2.656138        72.2772 
 102   0.0000       2.721783        74.0635 
 103   0.0000       2.749525        74.8184 
 104   0.0000       2.758022        75.0496 
 105   0.0000       2.819681        76.7274 
 106   0.0000       2.875252        78.2396 
 107   0.0000       2.876310        78.2684 
 108   0.0000       2.908243        79.1373 
 109   0.0000       2.974016        80.9271 
 110   0.0000       2.976770        81.0020 
 111   0.0000       2.984894        81.2231 
 112   0.0000       3.034530        82.5738 
 113   0.0000       3.065633        83.4201 
 114   0.0000       3.076879        83.7261 
 115   0.0000       3.086230        83.9806 
 116   0.0000       3.139742        85.4367 
 117   0.0000       3.190225        86.8104 
 118   0.0000       3.229656        87.8834 
 119   0.0000       3.232730        87.9671 
 120   0.0000       3.274477        89.1031 
 121   0.0000       3.276731        89.1644 
 122   0.0000       3.287665        89.4619 
 123   0.0000       3.351906        91.2100 
 124   0.0000       3.406826        92.7044 
 125   0.0000       3.436760        93.5190 
 126   0.0000       3.449231        93.8583 
 127   0.0000       3.516459        95.6877 
 128   0.0000       3.613425        98.3263 
 129   0.0000       3.629759        98.7708 
 130   0.0000       3.647093        99.2425 
 131   0.0000       3.829577       104.2081 
 132   0.0000       3.911338       106.4329 
 133   0.0000       3.985257       108.4443 
 134   0.0000       4.061929       110.5307 
 135   0.0000       4.179982       113.7431 
 136   0.0000       4.256012       115.8120 
 137   0.0000       4.280974       116.4912 
 138   0.0000       4.399417       119.7142 
 139   0.0000       4.451823       121.1403 
 140   0.0000       4.592490       124.9680 
 141   0.0000       4.673067       127.1606 
 142   0.0000       4.696511       127.7986 
 143   0.0000       4.878814       132.7593 
 144   0.0000       5.079287       138.2144 
 145   0.0000       5.106921       138.9664 
 146   0.0000       5.108308       139.0041 
 147   0.0000       5.137941       139.8105 
 148   0.0000       5.283230       143.7640 
 149   0.0000       5.394851       146.8014 
 150   0.0000       5.471930       148.8988 
 151   0.0000       5.504809       149.7935 
 152   0.0000       5.773848       157.1144 
 153   0.0000       5.968087       162.3999 
 154   0.0000       5.992565       163.0660 
 155   0.0000       5.998646       163.2315 
 156   0.0000       6.216827       169.1685 
 157   0.0000       6.293718       171.2608 
 158   0.0000       6.300924       171.4569 
 159   0.0000       6.336931       172.4366 
 160   0.0000       6.371837       173.3865 
 161   0.0000       6.615334       180.0124 
 162   0.0000       6.662539       181.2969 
 163   0.0000       6.763362       184.0404 
 164   0.0000       6.841121       186.1564 
 165   0.0000       6.998630       190.4424 
 166   0.0000       7.018597       190.9857 
 167   0.0000       7.204809       196.0528 
 168   0.0000      21.858382       594.7968 
 169   0.0000      22.384772       609.1206 
 170   0.0000      23.138010       629.6173 
 171   0.0000      43.456140      1182.5017 
 172   0.0000      43.480650      1183.1686 

                    ********************************
                    * MULLIKEN POPULATION ANALYSIS *
                    ********************************

-----------------------
MULLIKEN ATOMIC CHARGES
-----------------------
   0 C :   -0.299536
   1 C :   -0.213277
   2 O :   -0.526704
   3 H :    0.124412
   4 O :   -0.518188
   5 C :    0.188706
   6 H :    0.137077
   7 H :    0.107510
Sum of atomic charges:   -1.0000000

--------------------------------
MULLIKEN REDUCED ORBITAL CHARGES
--------------------------------
  0 C s       :     3.253571  s :     3.253571
      pz      :     1.010614  p :     2.993094
      px      :     0.987938
      py      :     0.994542
      dz2     :     0.017947  d :     0.048579
      dxz     :     0.011137
      dyz     :     0.004566
      dx2y2   :     0.005719
      dxy     :     0.009210
      f0      :     0.000630  f :     0.004293
      f+1     :     0.000756
      f-1     :     0.000404
      f+2     :     0.000278
      f-2     :     0.000675
      f+3     :     0.001119
      f-3     :     0.000432
  1 C s       :     3.255741  s :     3.255741
      pz      :     0.969821  p :     2.886480
      px      :     0.957864
      py      :     0.958795
      dz2     :     0.022794  d :     0.064524
      dxz     :     0.010621
      dyz     :     0.005151
      dx2y2   :     0.014460
      dxy     :     0.011498
      f0      :     0.000671  f :     0.006533
      f+1     :     0.001407
      f-1     :     0.000737
      f+2     :     0.000609
      f-2     :     0.000904
      f+3     :     0.001424
      f-3     :     0.000781
  2 O s       :     3.766463  s :     3.766463
      pz      :     1.631761  p :     4.733330
      px      :     1.515386
      py      :     1.586183
      dz2     :     0.004858  d :     0.025381
      dxz     :     0.007038
      dyz     :     0.004166
      dx2y2   :     0.004976
      dxy     :     0.004343
      f0      :     0.000180  f :     0.001531
      f+1     :     0.000346
      f-1     :     0.000113
      f+2     :     0.000323
      f-2     :     0.000307
      f+3     :     0.000156
      f-3     :     0.000107
  3 H s       :     0.853402  s :     0.853402
      pz      :     0.013002  p :     0.022186
      px      :     0.004341
      py      :     0.004843
  4 O s       :     3.761912  s :     3.761912
      pz      :     1.389941  p :     4.729222
      px      :     1.711169
      py      :     1.628113
      dz2     :     0.010220  d :     0.025508
      dxz     :     0.006877
      dyz     :     0.007406
      dx2y2   :     0.000457
      dxy     :     0.000549
      f0      :     0.000552  f :     0.001545
      f+1     :     0.000436
      f-1     :     0.000435
      f+2     :     0.000051
      f-2     :     0.000059
      f+3     :     0.000007
      f-3     :     0.000006
  5 C s       :     3.013488  s :     3.013488
      pz      :     0.810971  p :     2.573041
      px      :     0.888949
      py      :     0.873122
      dz2     :     0.051075  d :     0.201527
      dxz     :     0.051395
      dyz     :     0.052126
      dx2y2   :     0.026024
      dxy     :     0.020909
      f0      :     0.003845  f :     0.023238
      f+1     :     0.007947
      f-1     :     0.004210
      f+2     :     0.002330
      f-2     :     0.002067
      f+3     :     0.001591
      f-3     :     0.001248
  6 H s       :     0.841189  s :     0.841189
      pz      :     0.006053  p :     0.021734
      px      :     0.008127
      py      :     0.007554
  7 H s       :     0.870633  s :     0.870633
      pz      :     0.012684  p :     0.021856
      px      :     0.004452
      py      :     0.004721


                     *******************************
                     * LOEWDIN POPULATION ANALYSIS *
                     *******************************

----------------------
LOEWDIN ATOMIC CHARGES
----------------------
   0 C :   -0.221410
   1 C :   -0.215623
   2 O :   -0.117827
   3 H :    0.120329
   4 O :   -0.114342
   5 C :   -0.705538
   6 H :    0.121126
   7 H :    0.133284

-------------------------------
LOEWDIN REDUCED ORBITAL CHARGES
-------------------------------
  0 C s       :     2.870000  s :     2.870000
      pz      :     1.056422  p :     3.088730
      px      :     1.049181
      py      :     0.983127
      dz2     :     0.080681  d :     0.235842
      dxz     :     0.060618
      dyz     :     0.024634
      dx2y2   :     0.022750
      dxy     :     0.047159
      f0      :     0.003310  f :     0.026837
      f+1     :     0.005717
      f-1     :     0.002624
      f+2     :     0.003203
      f-2     :     0.004718
      f+3     :     0.003179
      f-3     :     0.004085
  1 C s       :     2.829732  s :     2.829732
      pz      :     1.017833  p :     2.990443
      px      :     1.026140
      py      :     0.946470
      dz2     :     0.107323  d :     0.358415
      dxz     :     0.078127
      dyz     :     0.039655
      dx2y2   :     0.060017
      dxy     :     0.073295
      f0      :     0.003770  f :     0.037032
      f+1     :     0.008314
      f-1     :     0.003861
      f+2     :     0.005095
      f-2     :     0.005953
      f+3     :     0.004475
      f-3     :     0.005564
  2 O s       :     3.440119  s :     3.440119
      pz      :     1.598002  p :     4.613327
      px      :     1.512394
      py      :     1.502931
      dz2     :     0.012369  d :     0.059311
      dxz     :     0.018527
      dyz     :     0.008222
      dx2y2   :     0.009027
      dxy     :     0.011166
      f0      :     0.000627  f :     0.005071
      f+1     :     0.001302
      f-1     :     0.000347
      f+2     :     0.000909
      f-2     :     0.001044
      f+3     :     0.000337
      f-3     :     0.000505
  3 H s       :     0.815684  s :     0.815684
      pz      :     0.037534  p :     0.063987
      px      :     0.012449
      py      :     0.014004
  4 O s       :     3.435791  s :     3.435791
      pz      :     1.488838  p :     4.614077
      px      :     1.599265
      py      :     1.525974
      dz2     :     0.027217  d :     0.059388
      dxz     :     0.015695
      dyz     :     0.014889
      dx2y2   :     0.000833
      dxy     :     0.000753
      f0      :     0.002062  f :     0.005087
      f+1     :     0.001421
      f-1     :     0.001269
      f+2     :     0.000168
      f-2     :     0.000151
      f+3     :     0.000006
      f-3     :     0.000009
  5 C s       :     2.785289  s :     2.785289
      pz      :     0.988596  p :     2.775201
      px      :     0.926561
      py      :     0.860044
      dz2     :     0.277202  d :     0.997300
      dxz     :     0.296650
      dyz     :     0.221745
      dx2y2   :     0.094095
      dxy     :     0.107609
      f0      :     0.023938  f :     0.147748
      f+1     :     0.048211
      f-1     :     0.026315
      f+2     :     0.016708
      f-2     :     0.014156
      f+3     :     0.009029
      f-3     :     0.009390
  6 H s       :     0.815155  s :     0.815155
      pz      :     0.019702  p :     0.063719
      px      :     0.022684
      py      :     0.021333
  7 H s       :     0.805990  s :     0.805990
      pz      :     0.034997  p :     0.060726
      px      :     0.012404
      py      :     0.013325


                      *****************************
                      * MAYER POPULATION ANALYSIS *
                      *****************************

  NA   - Mulliken gross atomic population
  ZA   - Total nuclear charge
  QA   - Mulliken gross atomic charge
  VA   - Mayer's total valence
  BVA  - Mayer's bonded valence
  FA   - Mayer's free valence

  ATOM       NA         ZA         QA         VA         BVA        FA
  0 C      6.2995     6.0000    -0.2995     3.8921     3.8921     0.0000
  1 C      6.2133     6.0000    -0.2133     3.6358     3.6358     0.0000
  2 O      8.5267     8.0000    -0.5267     1.8959     1.8959     0.0000
  3 H      0.8756     1.0000     0.1244     0.9953     0.9953    -0.0000
  4 O      8.5182     8.0000    -0.5182     1.9149     1.9149    -0.0000
  5 C      5.8113     6.0000     0.1887     4.6527     4.6527     0.0000
  6 H      0.8629     1.0000     0.1371     0.9661     0.9661    -0.0000
  7 H      0.8925     1.0000     0.1075     0.9853     0.9853     0.0000

  Mayer bond orders larger than 0.100000
B(  0-C ,  1-C ) :   1.8922 B(  0-C ,  3-H ) :   0.9443 B(  0-C ,  6-H ) :   0.9437 
B(  1-C ,  4-O ) :  -0.1151 B(  1-C ,  5-C ) :   0.9437 B(  1-C ,  7-H ) :   0.9351 
B(  2-O ,  5-C ) :   1.8163 B(  4-O ,  5-C ) :   1.8686 

-------
TIMINGS
-------

Total SCF time: 0 days 0 hours 0 min 22 sec 

Total time                  ....      22.585 sec
Sum of individual times     ....      20.649 sec  ( 91.4%)

Fock matrix formation       ....      19.169 sec  ( 84.9%)
  Split-RI-J                ....       2.560 sec  ( 13.4% of F)
  XC integration            ....      10.183 sec  ( 53.1% of F)
    Basis function eval.    ....       2.957 sec  ( 29.0% of XC)
    Density eval.           ....       1.984 sec  ( 19.5% of XC)
    XC-Functional eval.     ....       0.626 sec  (  6.2% of XC)
    XC-Potential eval.      ....       2.582 sec  ( 25.4% of XC)
Diagonalization             ....       0.029 sec  (  0.1%)
Density matrix formation    ....       0.004 sec  (  0.0%)
Population analysis         ....       0.033 sec  (  0.1%)
Initial guess               ....       0.272 sec  (  1.2%)
Orbital Transformation      ....       0.000 sec  (  0.0%)
Orbital Orthonormalization  ....       0.000 sec  (  0.0%)
DIIS solution               ....       0.069 sec  (  0.3%)
SOSCF solution              ....       0.317 sec  (  1.4%)
Grid generation             ....       0.756 sec  (  3.3%)

Maximum memory used throughout the entire SCF-calculation: 52.2 MB

-------------------------   --------------------
FINAL SINGLE POINT ENERGY      -266.516789618646
-------------------------   --------------------

------------------------------------------------------------------------------
                         ORCA SCF GRADIENT CALCULATION
------------------------------------------------------------------------------

Gradient of the Kohn-Sham DFT energy:
Kohn-Sham wavefunction type      ... RKS
Hartree-Fock exchange scaling    ...    0.000
Number of operators              ...    1
Number of atoms                  ...    8
Basis set dimensions             ...  173
Integral neglect threshold       ... 2.5e-11
Integral primitive cutoff        ... 2.5e-12
SHARK Integral package           ... ON

Nuc. rep. gradient       (SHARK) ... done (  0.0 sec)
HCore & Overlap gradient (SHARK) ... done (  0.1 sec)
RI-J gradient            (SHARK) ... done (  0.8 sec)
Exchange-correlation gradient    ... done

------------------
CARTESIAN GRADIENT
------------------

   1   C   :    0.006209726    0.003380031   -0.003863373
   2   C   :   -0.000954557    0.001793978    0.010296607
   3   O   :    0.008791304    0.007072139    0.004166565
   4   H   :   -0.000975917    0.000163756    0.003768202
   5   O   :    0.008283478    0.006621736    0.003976672
   6   C   :   -0.016685418   -0.013667407   -0.009694595
   7   H   :   -0.005574267   -0.004509209   -0.002239356
   8   H   :    0.000905652   -0.000855024   -0.006410720

Difference to translation invariance:
           :   -0.0000000000    0.0000000000   -0.0000000000

Difference to rotation invariance:
           :    0.0002533272   -0.0003783597   -0.0005954999

Norm of the cartesian gradient     ...    0.0334878194
RMS gradient                       ...    0.0068356725
MAX gradient                       ...    0.0166854183

-------
TIMINGS
-------

Total SCF gradient time            ...        4.741 sec

One electron gradient       ....       0.098 sec  (  2.1%)
RI-J Coulomb gradient       ....       0.798 sec  ( 16.8%)
XC gradient                 ....       3.235 sec  ( 68.2%)
CPCM gradient               ....       0.209 sec  (  4.4%)
   A-Matrix (El+Nuc)        ....       0.016 sec  (  0.3%)
   Potential                ....       0.193 sec  (  4.1%)

Maximum memory used throughout the entire SCFGRAD-calculation: 50.0 MB
------------------------------------------------------------------------------
                         ORCA GEOMETRY RELAXATION STEP
------------------------------------------------------------------------------

Reading the OPT-File                    .... done
Getting information on internals        .... done
Copying old internal coords+grads       .... done
Making the new internal coordinates     .... (new redundants).... done
Validating the new internal coordinates .... (new redundants).... done
Calculating the B-matrix                .... done
Calculating the G,G- and P matrices     .... done
Transforming gradient to internals      .... done
Projecting the internal gradient        .... done
Number of atoms                         ....   8
Number of internal coordinates          ....  24
Current Energy                          ....  -266.516789619 Eh
Current gradient norm                   ....     0.033487819 Eh/bohr
Maximum allowed component of the step   ....  0.300
Current trust radius                    ....  0.300
Evaluating the initial hessian          ....  (Almloef) done
Projecting the Hessian                  .... done
Forming the augmented Hessian           .... done
Diagonalizing the augmented Hessian     .... done
Last element of RFO vector              ....  0.998434060
Lowest eigenvalues of augmented Hessian:
 -0.001315884  0.009357829  0.009359717  0.025422768  0.040269051
Length of the computed step             ....  0.056029026
The final length of the internal step   ....  0.056029026
Converting the step to cartesian space:
 Initial RMS(Int)=    0.0114368771
Transforming coordinates:
 Iter   0:  RMS(Cart)=    0.0149705163 RMS(Int)=    0.0114499438
 Iter   1:  RMS(Cart)=    0.0001377893 RMS(Int)=    0.0001427144
 Iter   2:  RMS(Cart)=    0.0000024865 RMS(Int)=    0.0000018252
 Iter   3:  RMS(Cart)=    0.0000000563 RMS(Int)=    0.0000000609
done
Storing new coordinates                 .... done

                                .--------------------.
          ----------------------|Geometry convergence|-------------------------
          Item                value                   Tolerance       Converged
          ---------------------------------------------------------------------
          RMS gradient        0.0050158847            0.0001000000      NO
          MAX gradient        0.0167376065            0.0003000000      NO
          RMS step            0.0114368771            0.0020000000      NO
          MAX step            0.0358302150            0.0040000000      NO
          ........................................................
          Max(Bonds)      0.0105      Max(Angles)    2.05
          Max(Dihed)        0.50      Max(Improp)    0.00
          ---------------------------------------------------------------------

The optimization has not yet converged - more geometry cycles are needed


    ---------------------------------------------------------------------------
                         Redundant Internal Coordinates
                            (Angstroem and degrees)

        Definition                    Value    dE/dq     Step     New-Value
    ----------------------------------------------------------------------------
     1. B(C   1,C   0)                1.3398  0.000450 -0.0003    1.3395   
     2. B(H   3,C   0)                1.0867 -0.003835  0.0055    1.0923   
     3. B(C   5,C   1)                1.5351  0.000409 -0.0006    1.5345   
     4. B(C   5,O   4)                1.2618 -0.003881  0.0023    1.2640   
     5. B(C   5,O   2)                1.2643 -0.006054  0.0036    1.2679   
     6. B(H   6,C   0)                1.0819 -0.007353  0.0105    1.0923   
     7. B(H   7,C   1)                1.0853 -0.006530  0.0094    1.0947   
     8. A(C   1,C   0,H   6)          121.20 -0.001663    0.28    121.47   
     9. A(C   1,C   0,H   3)          120.16  0.000173   -0.01    120.15   
    10. A(H   3,C   0,H   6)          118.64  0.001490   -0.27    118.38   
    11. A(C   0,C   1,H   7)          120.26  0.001446   -0.20    120.07   
    12. A(C   0,C   1,C   5)          123.69 -0.003151    0.47    124.15   
    13. A(C   5,C   1,H   7)          116.05  0.001705   -0.27    115.78   
    14. A(C   1,C   5,O   2)          113.61 -0.008122    0.99    114.61   
    15. A(O   2,C   5,O   4)          130.00  0.016738   -2.05    127.95   
    16. A(C   1,C   5,O   4)          116.39 -0.008616    1.06    117.45   
    17. D(H   7,C   1,C   0,H   6)      0.05 -0.000015    0.05      0.10   
    18. D(H   7,C   1,C   0,H   3)   -179.93  0.000004    0.02   -179.91   
    19. D(C   5,C   1,C   0,H   6)    179.96  0.000053   -0.10    179.86   
    20. D(C   5,C   1,C   0,H   3)     -0.02  0.000073   -0.13     -0.14   
    21. D(O   2,C   5,C   1,H   7)      1.23 -0.000026    0.25      1.48   
    22. D(O   4,C   5,C   1,C   0)      1.36  0.000046   -0.35      1.00   
    23. D(O   2,C   5,C   1,C   0)   -178.68 -0.000091    0.39   -178.29   
    24. D(O   4,C   5,C   1,H   7)   -178.73  0.000112   -0.50   -179.22   
    ----------------------------------------------------------------------------

         *************************************************************
         *                GEOMETRY OPTIMIZATION CYCLE   2            *
         *************************************************************
---------------------------------
CARTESIAN COORDINATES (ANGSTROEM)
---------------------------------
  C     -5.330497   -3.650138    0.538645
  C     -6.354777   -4.233464    1.174895
  O     -8.311588   -5.554952    1.258238
  H     -5.197287   -3.796005   -0.535629
  O     -7.268093   -5.328125   -0.750767
  C     -7.400284   -5.123391    0.489559
  H     -4.611930   -3.022321    1.070335
  H     -6.487861   -4.085134    2.251306

----------------------------
CARTESIAN COORDINATES (A.U.)
----------------------------
  NO LB      ZA    FRAG     MASS         X           Y           Z
   0 C     6.0000    0    12.011  -10.073180   -6.897761    1.017892
   1 C     6.0000    0    12.011  -12.008788   -8.000088    2.220229
   2 O     8.0000    0    15.999  -15.706625  -10.497338    2.377724
   3 H     1.0000    0     1.008   -9.821448   -7.173411   -1.012192
   4 O     8.0000    0    15.999  -13.734705  -10.068697   -1.418744
   5 C     6.0000    0    12.011  -13.984510   -9.681805    0.925132
   6 H     1.0000    0     1.008   -8.715285   -5.711358    2.022640
   7 H     1.0000    0     1.008  -12.260281   -7.719785    4.254352

--------------------------------
INTERNAL COORDINATES (ANGSTROEM)
--------------------------------
 C      0   0   0     0.000000000000     0.00000000     0.00000000
 C      1   0   0     1.339489394595     0.00000000     0.00000000
 O      2   1   0     2.362707315267   153.33411437     0.00000000
 H      1   2   3     1.092285502944   120.14981860   358.00021628
 O      3   2   1     2.275176981562    62.17578073     2.75682458
 C      5   3   2     1.264040391611    26.06969019     0.52789889
 H      1   2   3     1.092330828480   121.47457026   178.00614891
 H      2   1   3     1.094702874944   120.06706160   182.09180287

---------------------------
INTERNAL COORDINATES (A.U.)
---------------------------
 C      0   0   0     0.000000000000     0.00000000     0.00000000
 C      1   0   0     2.531268115076     0.00000000     0.00000000
 O      2   1   0     4.464869760468   153.33411437     0.00000000
 H      1   2   3     2.064120460617   120.14981860   358.00021628
 O      3   2   1     4.299461401353    62.17578073     2.75682458
 C      5   3   2     2.388690162359    26.06969019     0.52789889
 H      1   2   3     2.064206113467   121.47457026   178.00614891
 H      2   1   3     2.068688631661   120.06706160   182.09180287

------------------------------------------------------------------------------
                   ___                                                        
                  /   \      - P O W E R E D   B Y -                         
                 /     \                                                     
                 |  |  |   _    _      __       _____    __    __             
                 |  |  |  | |  | |    /  \     |  _  \  |  |  /  |          
                  \  \/   | |  | |   /    \    | | | |  |  | /  /          
                 / \  \   | |__| |  /  /\  \   | |_| |  |  |/  /          
                |  |  |   |  __  | /  /__\  \  |    /   |      \           
                |  |  |   | |  | | |   __   |  |    \   |  |\   \          
                \     /   | |  | | |  |  |  |  | |\  \  |  | \   \       
                 \___/    |_|  |_| |__|  |__|  |_| \__\ |__|  \__/        
                                                                              
                      - O R C A' S   B I G   F R I E N D -                    
                                      &                                       
                       - I N T E G R A L  F E E D E R -                       
                                                                              
 v1 FN, 2020, v2 2021                                                         
------------------------------------------------------------------------------


Reading SHARK input file inp.SHARKINP.tmp ... ok
----------------------
SHARK INTEGRAL PACKAGE
----------------------

Number of atoms                             ...      8
Number of basis functions                   ...    173
Number of shells                            ...     67
Maximum angular momentum                    ...      3
Integral batch strategy                     ... SHARK/LIBINT Hybrid
RI-J (if used) integral strategy            ... SPLIT-RIJ (Revised 2003 algorithm where possible)
Printlevel                                  ...      1
Contraction scheme used                     ... SEGMENTED contraction
Coulomb Range Separation                    ... NOT USED
Exchange Range Separation                   ... NOT USED
Finite Nucleus Model                        ... NOT USED
Auxiliary Coulomb fitting basis             ... AVAILABLE
   # of basis functions in Aux-J            ...    278
   # of shells in Aux-J                     ...     90
   Maximum angular momentum in Aux-J        ...      4
Auxiliary J/K fitting basis                 ... NOT available
Auxiliary Correlation fitting basis         ... NOT available
Auxiliary 'external' fitting basis          ... NOT available
Integral threshold                          ...     2.500000e-11
Primitive cut-off                           ...     2.500000e-12
Primitive pair pre-selection threshold      ...     2.500000e-12

Calculating pre-screening integrals         ... done (  0.0 sec) Dimension = 67
Organizing shell pair data                  ... done (  0.2 sec)
Shell pair information
Total number of shell pairs                 ...      2278
Shell pairs after pre-screening             ...      2182
Total number of primitive shell pairs       ...      7140
Primitive shell pairs kept                  ...      5438
          la=0 lb=0:    547 shell pairs
          la=1 lb=0:    593 shell pairs
          la=1 lb=1:    169 shell pairs
          la=2 lb=0:    325 shell pairs
          la=2 lb=1:    177 shell pairs
          la=2 lb=2:     54 shell pairs
          la=3 lb=0:    163 shell pairs
          la=3 lb=1:     89 shell pairs
          la=3 lb=2:     50 shell pairs
          la=3 lb=3:     15 shell pairs

Calculating one electron integrals          ... done (  0.0 sec)
Calculating RI/J V-Matrix + Cholesky decomp.... done (  0.0 sec)
Calculating Nuclear repulsion               ... done (  0.0 sec) ENN=    151.372618698361 Eh

SHARK setup successfully completed in   0.8 seconds

Maximum memory used throughout the entire GTOINT-calculation: 39.4 MB

Diagonalization of the overlap matrix:
Smallest eigenvalue                        ... 1.778e-04
Time for diagonalization                   ...    0.006 sec
Threshold for overlap eigenvalues          ... 1.000e-08
Number of eigenvalues below threshold      ... 0
Time for construction of square roots      ...    0.086 sec
Total time needed                          ...    0.092 sec

-------------------
DFT GRID GENERATION
-------------------

General Integration Accuracy     IntAcc      ... 4.388
Radial Grid Type                 RadialGrid  ... OptM3 with GC (2021)
Angular Grid (max. ang.)         AngularGrid ... 4 (Lebedev-302)
Angular grid pruning method      GridPruning ... 4 (adaptive)
Weight generation scheme         WeightScheme... Becke
Basis function cutoff            BFCut       ... 1.0000e-11
Integration weight cutoff        WCut        ... 1.0000e-14
Angular grids for H and He will be reduced by one unit
Partially contracted basis set               ... off
Rotationally invariant grid construction     ... off

Total number of grid points                  ...    40252
Total number of batches                      ...      633
Average number of points per batch           ...       63
Average number of grid points per atom       ...     5032
Time for grid setup =    0.414 sec


--------------------
CPCM SOLVATION MODEL
--------------------
CPCM parameters:
  Epsilon                                         ...      80.4000
  Refrac                                          ...       1.3300
  Rsolv                                           ...       1.3000
  Surface type                                    ... GAUSSIAN VDW
  Epsilon function type                           ...         CPCM
Radii:
 Radius for C  used is    3.8550 Bohr (=   2.0400 Ang.)
 Radius for O  used is    3.4469 Bohr (=   1.8240 Ang.)
 Radius for H  used is    2.4944 Bohr (=   1.3200 Ang.)
Calculating surface                               ...        done! (  0.0s)
GEPOL surface points                              ...          524
GEPOL Volume                                      ...     627.8818
GEPOL Surface-area                                ...     398.9344
Calculating surface distance matrix               ...        done! (  0.0s)
Performing Cholesky decomposition & store         ...        done! (  0.1s)
Overall time for CPCM initialization              ...                 0.1s
--------------
SCF ITERATIONS
--------------
ITER       Energy         Delta-E        Max-DP      RMS-DP      [F,P]     Damp
               ***  Starting incremental Fock matrix formation  ***
                      *** Initiating the SOSCF procedure ***
                      *** Re-Reading the Fockian *** 
                      *** Removing any level shift *** 
ITER      Energy       Delta-E        Grad      Rot      Max-DP    RMS-DP
  0   -266.51723808 -266.5172380773  0.002771  0.002771  0.008447  0.000233
               *** Restarting incremental Fock matrix formation ***
  1   -266.51762189  -0.0003838118  0.000869  0.002093  0.007802  0.000152
  2   -266.51760196   0.0000199273  0.001827  0.002050  0.008787  0.000108
  3   -266.51765121  -0.0000492519  0.000264  0.000875  0.002004  0.000054
  4   -266.51765025   0.0000009591  0.000440  0.000830  0.002343  0.000030
  5   -266.51765286  -0.0000026067  0.000245  0.000470  0.001017  0.000027
  6   -266.51765253   0.0000003303  0.000163  0.000361  0.001666  0.000019
  7   -266.51765383  -0.0000012944  0.000102  0.000387  0.000609  0.000011
  8   -266.51765365   0.0000001795  0.000153  0.000246  0.000162  0.000004
  9   -266.51765393  -0.0000002878  0.000009  0.000047  0.000167  0.000003
 10   -266.51765394  -0.0000000018  0.000009  0.000020  0.000053  0.000001
                  ***Gradient check signals convergence***
              ***Rediagonalizing the Fockian in SOSCF/NRSCF***

               *****************************************************
               *                     SUCCESS                       *
               *           SCF CONVERGED AFTER  11 CYCLES          *
               *****************************************************

Total Energy       :         -266.51765394 Eh           -7252.31406 eV
  Last Energy change         ...   -3.8193e-09  Tolerance :   1.0000e-08
  Last MAX-Density change    ...    3.4453e-05  Tolerance :   1.0000e-07
             **** THE GBW FILE WAS UPDATED (inp.gbw) ****
             **** DENSITY inp.scfp WAS UPDATED ****
             **** ENERGY FILE WAS UPDATED (inp.en.tmp) ****
             **** THE GBW FILE WAS UPDATED (inp.gbw) ****
             **** DENSITY inp.scfp WAS UPDATED ****
Total SCF time: 0 days 0 hours 0 min 15 sec 

Maximum memory used throughout the entire SCF-calculation: 52.1 MB

-------------------------   --------------------
FINAL SINGLE POINT ENERGY      -266.517653939410
-------------------------   --------------------

------------------------------------------------------------------------------
                         ORCA SCF GRADIENT CALCULATION
------------------------------------------------------------------------------

Gradient of the Kohn-Sham DFT energy:
Kohn-Sham wavefunction type      ... RKS
Hartree-Fock exchange scaling    ...    0.000
Number of operators              ...    1
Number of atoms                  ...    8
Basis set dimensions             ...  173
Integral neglect threshold       ... 2.5e-11
Integral primitive cutoff        ... 2.5e-12
SHARK Integral package           ... ON

Nuc. rep. gradient       (SHARK) ... done (  0.0 sec)
HCore & Overlap gradient (SHARK) ... done (  0.1 sec)
RI-J gradient            (SHARK) ... done (  0.8 sec)
Exchange-correlation gradient    ... done

------------------
CARTESIAN GRADIENT
------------------

   1   C   :    0.001670432    0.000607221   -0.002354235
   2   C   :    0.001066338    0.002270554    0.003650794
   3   O   :    0.003261081    0.003326895    0.001446915
   4   H   :   -0.000616536   -0.000364908    0.000338140
   5   O   :    0.002922517    0.003274205    0.001943877
   6   C   :   -0.007944050   -0.008836442   -0.005469216
   7   H   :   -0.000633365   -0.000390995    0.000839972
   8   H   :    0.000273584    0.000113470   -0.000396246

Difference to translation invariance:
           :   -0.0000000000    0.0000000000   -0.0000000000

Difference to rotation invariance:
           :    0.0002482398   -0.0003159826   -0.0005632194

Norm of the cartesian gradient     ...    0.0157605138
RMS gradient                       ...    0.0032171014
MAX gradient                       ...    0.0088364423

-------
TIMINGS
-------

Total SCF gradient time            ...        4.710 sec

One electron gradient       ....       0.103 sec  (  2.2%)
RI-J Coulomb gradient       ....       0.793 sec  ( 16.8%)
XC gradient                 ....       3.204 sec  ( 68.0%)
CPCM gradient               ....       0.213 sec  (  4.5%)
   A-Matrix (El+Nuc)        ....       0.016 sec  (  0.3%)
   Potential                ....       0.197 sec  (  4.2%)

Maximum memory used throughout the entire SCFGRAD-calculation: 50.1 MB
------------------------------------------------------------------------------
                         ORCA GEOMETRY RELAXATION STEP
------------------------------------------------------------------------------

Reading the OPT-File                    .... done
Getting information on internals        .... done
Copying old internal coords+grads       .... done
Making the new internal coordinates     .... (new redundants).... done
Validating the new internal coordinates .... (new redundants).... done
Calculating the B-matrix                .... done
Calculating the G,G- and P matrices     .... done
Transforming gradient to internals      .... done
Projecting the internal gradient        .... done
Number of atoms                         ....   8
Number of internal coordinates          ....  24
Current Energy                          ....  -266.517653939 Eh
Current gradient norm                   ....     0.015760514 Eh/bohr
Maximum allowed component of the step   ....  0.300
Current trust radius                    ....  0.300
Updating the Hessian (BFGS)             .... done
Forming the augmented Hessian           .... done
Diagonalizing the augmented Hessian     .... done
Last element of RFO vector              ....  0.981958112
Lowest eigenvalues of augmented Hessian:
 -0.000714497  0.009357337  0.010035536  0.025412571  0.040260606
Length of the computed step             ....  0.192572939
The final length of the internal step   ....  0.192572939
Converting the step to cartesian space:
 Initial RMS(Int)=    0.0393087866
Transforming coordinates:
 Iter   0:  RMS(Cart)=    0.0336212922 RMS(Int)=    1.2650224772
 Iter   1:  RMS(Cart)=    0.0023826648 RMS(Int)=    0.0022171561
 Iter   2:  RMS(Cart)=    0.0000654039 RMS(Int)=    0.0000642745
 Iter   3:  RMS(Cart)=    0.0000057409 RMS(Int)=    0.0000061300
 Iter   4:  RMS(Cart)=    0.0000004509 RMS(Int)=    0.0000004352
 Iter   5:  RMS(Cart)=    0.0000000203 RMS(Int)=    0.0000000194
done
Storing new coordinates                 .... done

                                .--------------------.
          ----------------------|Geometry convergence|-------------------------
          Item                value                   Tolerance       Converged
          ---------------------------------------------------------------------
          Energy change      -0.0008643208            0.0000050000      NO
          RMS gradient        0.0020174077            0.0001000000      NO
          MAX gradient        0.0066491835            0.0003000000      NO
          RMS step            0.0393087866            0.0020000000      NO
          MAX step            0.0977887948            0.0040000000      NO
          ........................................................
          Max(Bonds)      0.0074      Max(Angles)    2.02
          Max(Dihed)        5.60      Max(Improp)    0.00
          ---------------------------------------------------------------------

The optimization has not yet converged - more geometry cycles are needed


    ---------------------------------------------------------------------------
                         Redundant Internal Coordinates
                            (Angstroem and degrees)

        Definition                    Value    dE/dq     Step     New-Value
    ----------------------------------------------------------------------------
     1. B(C   1,C   0)                1.3395  0.000825 -0.0010    1.3385   
     2. B(H   3,C   0)                1.0923 -0.000351  0.0029    1.0952   
     3. B(C   5,C   1)                1.5345  0.003416 -0.0074    1.5271   
     4. B(C   5,O   4)                1.2640 -0.002140  0.0028    1.2668   
     5. B(C   5,O   2)                1.2679 -0.002593  0.0037    1.2716   
     6. B(H   6,C   0)                1.0923 -0.000237  0.0046    1.0970   
     7. B(H   7,C   1)                1.0947 -0.000408  0.0046    1.0993   
     8. A(C   1,C   0,H   6)          121.47 -0.000993    0.36    121.83   
     9. A(C   1,C   0,H   3)          120.15 -0.000241    0.07    120.22   
    10. A(H   3,C   0,H   6)          118.38  0.001234   -0.43    117.94   
    11. A(C   0,C   1,H   7)          120.07  0.000373   -0.14    119.92   
    12. A(C   0,C   1,C   5)          124.15 -0.001347    0.48    124.63   
    13. A(C   5,C   1,H   7)          115.78  0.000975   -0.34    115.44   
    14. A(C   1,C   5,O   2)          114.60 -0.003174    0.96    115.56   
    15. A(O   2,C   5,O   4)          127.95  0.006649   -2.02    125.93   
    16. A(C   1,C   5,O   4)          117.45 -0.003492    1.05    118.49   
    17. D(H   7,C   1,C   0,H   6)      0.10  0.000028   -0.01      0.09   
    18. D(H   7,C   1,C   0,H   3)   -179.91 -0.000007    0.05   -179.86   
    19. D(C   5,C   1,C   0,H   6)    179.86  0.000078   -0.22    179.64   
    20. D(C   5,C   1,C   0,H   3)     -0.14  0.000043   -0.16     -0.31   
    21. D(O   2,C   5,C   1,H   7)      1.48  0.000654   -5.24     -3.76   
    22. D(O   4,C   5,C   1,C   0)      1.00 -0.000701    5.60      6.61   
    23. D(O   2,C   5,C   1,C   0)   -178.29  0.000607   -5.04   -183.33   
    24. D(O   4,C   5,C   1,H   7)   -179.22 -0.000654    5.40   -173.82   
    ----------------------------------------------------------------------------

         *************************************************************
         *                GEOMETRY OPTIMIZATION CYCLE   3            *
         *************************************************************
---------------------------------
CARTESIAN COORDINATES (ANGSTROEM)
---------------------------------
  C     -5.327867   -3.648241    0.540444
  C     -6.362828   -4.220703    1.167154
  O     -8.296127   -5.585182    1.257991
  H     -5.196057   -3.779144   -0.538920
  O     -7.268223   -5.363936   -0.740531
  C     -7.428558   -5.073216    0.481987
  H     -4.590982   -3.038949    1.078154
  H     -6.491674   -4.084160    2.250303

----------------------------
CARTESIAN COORDINATES (A.U.)
----------------------------
  NO LB      ZA    FRAG     MASS         X           Y           Z
   0 C     6.0000    0    12.011  -10.068209   -6.894176    1.021292
   1 C     6.0000    0    12.011  -12.024002   -7.975972    2.205601
   2 O     8.0000    0    15.999  -15.677409  -10.554464    2.377258
   3 H     1.0000    0     1.008   -9.819125   -7.141547   -1.018412
   4 O     8.0000    0    15.999  -13.734952  -10.136370   -1.399402
   5 C     6.0000    0    12.011  -14.037940   -9.586989    0.910824
   6 H     1.0000    0     1.008   -8.675699   -5.742782    2.037415
   7 H     1.0000    0     1.008  -12.267487   -7.717943    4.252457

--------------------------------
INTERNAL COORDINATES (ANGSTROEM)
--------------------------------
 C      0   0   0     0.000000000000     0.00000000     0.00000000
 C      1   0   0     1.338515089684     0.00000000     0.00000000
 O      2   1   0     2.368058567847   153.59225686     0.00000000
 H      1   2   3     1.095233915638   120.22297410     3.33132540
 O      3   2   1     2.258235356760    62.48298134   359.34741741
 C      5   3   2     1.266797874117    27.22889534   352.92910852
 H      1   2   3     1.096980226869   121.83273956   183.27712595
 H      2   1   3     1.099299007833   119.92320971   176.80932080

---------------------------
[...]
   6   2.0000      -0.832021       -22.6405 
   7   2.0000      -0.682741       -18.5783 
   8   2.0000      -0.532193       -14.4817 
   9   2.0000      -0.436578       -11.8799 
  10   2.0000      -0.391019       -10.6402 
  11   2.0000      -0.370903       -10.0928 
  12   2.0000      -0.341379        -9.2894 
  13   2.0000      -0.333872        -9.0851 
  14   2.0000      -0.307974        -8.3804 
  15   2.0000      -0.233487        -6.3535 
  16   2.0000      -0.204026        -5.5518 
  17   2.0000      -0.189809        -5.1650 
  18   2.0000      -0.175842        -4.7849 
  19   0.0000      -0.050638        -1.3779 
  20   0.0000       0.062639         1.7045 
  21   0.0000       0.074539         2.0283 
  22   0.0000       0.080114         2.1800 
  23   0.0000       0.094261         2.5650 
  24   0.0000       0.135754         3.6940 
  25   0.0000       0.168186         4.5766 
  26   0.0000       0.189033         5.1439 
  27   0.0000       0.190417         5.1815 
  28   0.0000       0.203587         5.5399 
  29   0.0000       0.223019         6.0686 
  30   0.0000       0.250409         6.8140 
  31   0.0000       0.268418         7.3040 
  32   0.0000       0.291169         7.9231 
  33   0.0000       0.315306         8.5799 
  34   0.0000       0.345218         9.3939 
  35   0.0000       0.357864         9.7380 
  36   0.0000       0.395553        10.7635 
  37   0.0000       0.407874        11.0988 
  38   0.0000       0.430216        11.7068 
  39   0.0000       0.434873        11.8335 
  40   0.0000       0.453591        12.3428 
  41   0.0000       0.457483        12.4488 
  42   0.0000       0.479437        13.0461 
  43   0.0000       0.513890        13.9837 
  44   0.0000       0.538425        14.6513 
  45   0.0000       0.561749        15.2860 
  46   0.0000       0.589132        16.0311 
  47   0.0000       0.602912        16.4061 
  48   0.0000       0.615283        16.7427 
  49   0.0000       0.657247        17.8846 
  50   0.0000       0.683375        18.5956 
  51   0.0000       0.731668        19.9097 
  52   0.0000       0.740257        20.1434 
  53   0.0000       0.816963        22.2307 
  54   0.0000       0.856996        23.3200 
  55   0.0000       0.886568        24.1247 
  56   0.0000       0.893619        24.3166 
  57   0.0000       0.943056        25.6619 
  58   0.0000       1.003473        27.3059 
  59   0.0000       1.032291        28.0901 
  60   0.0000       1.095873        29.8202 
  61   0.0000       1.115040        30.3418 
  62   0.0000       1.162984        31.6464 
  63   0.0000       1.189120        32.3576 
  64   0.0000       1.207194        32.8494 
  65   0.0000       1.316746        35.8305 
  66   0.0000       1.345856        36.6226 
  67   0.0000       1.398654        38.0593 
  68   0.0000       1.435959        39.0744 
  69   0.0000       1.449752        39.4497 
  70   0.0000       1.481366        40.3100 
  71   0.0000       1.482501        40.3409 
  72   0.0000       1.533207        41.7207 
  73   0.0000       1.542181        41.9649 
  74   0.0000       1.590306        43.2744 
  75   0.0000       1.628294        44.3081 
  76   0.0000       1.664118        45.2829 
  77   0.0000       1.736866        47.2625 
  78   0.0000       1.740824        47.3702 
  79   0.0000       1.768463        48.1223 
  80   0.0000       1.771513        48.2053 
  81   0.0000       1.798239        48.9326 
  82   0.0000       1.877314        51.0843 
  83   0.0000       1.945772        52.9471 
  84   0.0000       1.973011        53.6884 
  85   0.0000       2.007927        54.6385 
  86   0.0000       2.070000        56.3276 
  87   0.0000       2.114253        57.5318 
  88   0.0000       2.130635        57.9775 
  89   0.0000       2.172016        59.1036 
  90   0.0000       2.214210        60.2517 
  91   0.0000       2.254754        61.3550 
  92   0.0000       2.346986        63.8647 
  93   0.0000       2.370662        64.5090 
  94   0.0000       2.418874        65.8209 
  95   0.0000       2.439043        66.3697 
  96   0.0000       2.491335        67.7927 
  97   0.0000       2.538667        69.0806 
  98   0.0000       2.547535        69.3219 
  99   0.0000       2.585762        70.3622 
 100   0.0000       2.613425        71.1149 
 101   0.0000       2.654026        72.2197 
 102   0.0000       2.715634        73.8962 
 103   0.0000       2.748236        74.7833 
 104   0.0000       2.753917        74.9379 
 105   0.0000       2.816660        76.6452 
 106   0.0000       2.874057        78.2071 
 107   0.0000       2.875650        78.2504 
 108   0.0000       2.904976        79.0484 
 109   0.0000       2.962132        80.6037 
 110   0.0000       2.967888        80.7603 
 111   0.0000       2.988814        81.3298 
 112   0.0000       3.033494        82.5456 
 113   0.0000       3.060090        83.2693 
 114   0.0000       3.063973        83.3749 
 115   0.0000       3.084385        83.9304 
 116   0.0000       3.138795        85.4110 
 117   0.0000       3.190121        86.8076 
 118   0.0000       3.226015        87.7843 
 119   0.0000       3.240239        88.1714 
 120   0.0000       3.268863        88.9503 
 121   0.0000       3.279197        89.2315 
 122   0.0000       3.290584        89.5414 
 123   0.0000       3.345768        91.0430 
 124   0.0000       3.409906        92.7882 
 125   0.0000       3.427287        93.2612 
 126   0.0000       3.442065        93.6633 
 127   0.0000       3.517823        95.7248 
 128   0.0000       3.584503        97.5393 
 129   0.0000       3.633881        98.8829 
 130   0.0000       3.643522        99.1453 
 131   0.0000       3.821756       103.9953 
 132   0.0000       3.898619       106.0868 
 133   0.0000       4.004130       108.9579 
 134   0.0000       4.046189       110.1024 
 135   0.0000       4.184591       113.8685 
 136   0.0000       4.265205       116.0621 
 137   0.0000       4.285916       116.6257 
 138   0.0000       4.373117       118.9986 
 139   0.0000       4.455767       121.2476 
 140   0.0000       4.592210       124.9604 
 141   0.0000       4.670556       127.0923 
 142   0.0000       4.686058       127.5141 
 143   0.0000       4.871288       132.5545 
 144   0.0000       5.081795       138.2827 
 145   0.0000       5.107449       138.9808 
 146   0.0000       5.109076       139.0250 
 147   0.0000       5.137823       139.8073 
 148   0.0000       5.252625       142.9312 
 149   0.0000       5.426358       147.6587 
 150   0.0000       5.475062       148.9840 
 151   0.0000       5.508996       149.9074 
 152   0.0000       5.726616       155.8292 
 153   0.0000       5.941397       161.6736 
 154   0.0000       5.991482       163.0365 
 155   0.0000       5.997988       163.2136 
 156   0.0000       6.215354       169.1284 
 157   0.0000       6.249974       170.0704 
 158   0.0000       6.315639       171.8573 
 159   0.0000       6.330219       172.2540 
 160   0.0000       6.376095       173.5024 
 161   0.0000       6.635466       180.5602 
 162   0.0000       6.672196       181.5597 
 163   0.0000       6.749686       183.6683 
 164   0.0000       6.834479       185.9756 
 165   0.0000       6.991524       190.2491 
 166   0.0000       7.021145       191.0551 
 167   0.0000       7.149836       194.5569 
 168   0.0000      21.848790       594.5358 
 169   0.0000      22.370479       608.7317 
 170   0.0000      23.106099       628.7489 
 171   0.0000      43.441256      1182.0967 
 172   0.0000      43.476479      1183.0551 

                    ********************************
                    * MULLIKEN POPULATION ANALYSIS *
                    ********************************

-----------------------
MULLIKEN ATOMIC CHARGES
-----------------------
   0 C :   -0.296312
   1 C :   -0.197299
   2 O :   -0.536849
   3 H :    0.124707
   4 O :   -0.526329
   5 C :    0.182985
   6 H :    0.140459
   7 H :    0.108638
Sum of atomic charges:   -1.0000000

--------------------------------
MULLIKEN REDUCED ORBITAL CHARGES
--------------------------------
  0 C s       :     3.255638  s :     3.255638
      pz      :     1.010499  p :     2.987848
      px      :     0.985919
      py      :     0.991430
      dz2     :     0.017552  d :     0.048538
      dxz     :     0.011391
      dyz     :     0.004543
      dx2y2   :     0.005897
      dxy     :     0.009155
      f0      :     0.000618  f :     0.004288
      f+1     :     0.000744
      f-1     :     0.000384
      f+2     :     0.000281
      f-2     :     0.000670
      f+3     :     0.001149
      f-3     :     0.000441
  1 C s       :     3.245632  s :     3.245632
      pz      :     0.966225  p :     2.879712
      px      :     0.954439
      py      :     0.959048
      dz2     :     0.022878  d :     0.065410
      dxz     :     0.010938
      dyz     :     0.005253
      dx2y2   :     0.014678
      dxy     :     0.011663
      f0      :     0.000653  f :     0.006546
      f+1     :     0.001387
      f-1     :     0.000722
      f+2     :     0.000604
      f-2     :     0.000905
      f+3     :     0.001484
      f-3     :     0.000792
  2 O s       :     3.769136  s :     3.769136
      pz      :     1.651580  p :     4.740774
      px      :     1.506005
      py      :     1.583188
      dz2     :     0.004709  d :     0.025404
      dxz     :     0.007024
      dyz     :     0.003991
      dx2y2   :     0.005142
      dxy     :     0.004539
      f0      :     0.000179  f :     0.001534
      f+1     :     0.000342
      f-1     :     0.000104
      f+2     :     0.000315
      f-2     :     0.000308
      f+3     :     0.000168
      f-3     :     0.000118
  3 H s       :     0.853392  s :     0.853392
      pz      :     0.012967  p :     0.021902
      px      :     0.004261
      py      :     0.004674
  4 O s       :     3.762767  s :     3.762767
      pz      :     1.391956  p :     4.736398
      px      :     1.720922
      py      :     1.623521
      dz2     :     0.010310  d :     0.025609
      dxz     :     0.006795
      dyz     :     0.007485
      dx2y2   :     0.000491
      dxy     :     0.000529
      f0      :     0.000558  f :     0.001554
      f+1     :     0.000430
      f-1     :     0.000440
      f+2     :     0.000056
      f-2     :     0.000057
      f+3     :     0.000007
      f-3     :     0.000006
  5 C s       :     3.010306  s :     3.010306
      pz      :     0.813745  p :     2.583966
      px      :     0.894263
      py      :     0.875958
      dz2     :     0.050526  d :     0.199618
      dxz     :     0.050755
      dyz     :     0.051316
      dx2y2   :     0.026208
      dxy     :     0.020813
      f0      :     0.003668  f :     0.023125
      f+1     :     0.007916
      f-1     :     0.004125
      f+2     :     0.002284
      f-2     :     0.002112
      f+3     :     0.001693
      f-3     :     0.001326
  6 H s       :     0.838159  s :     0.838159
      pz      :     0.005905  p :     0.021382
      px      :     0.008042
      py      :     0.007435
  7 H s       :     0.869838  s :     0.869838
      pz      :     0.012661  p :     0.021523
      px      :     0.004299
      py      :     0.004563


                     *******************************
                     * LOEWDIN POPULATION ANALYSIS *
                     *******************************

----------------------
LOEWDIN ATOMIC CHARGES
----------------------
   0 C :   -0.216091
   1 C :   -0.215541
   2 O :   -0.130386
   3 H :    0.122051
   4 O :   -0.125898
   5 C :   -0.697297
   6 H :    0.124917
   7 H :    0.138246

-------------------------------
LOEWDIN REDUCED ORBITAL CHARGES
-------------------------------
  0 C s       :     2.872877  s :     2.872877
      pz      :     1.055048  p :     3.081180
      px      :     1.045970
      py      :     0.980162
      dz2     :     0.079846  d :     0.235310
      dxz     :     0.060883
      dyz     :     0.024472
      dx2y2   :     0.023067
      dxy     :     0.047042
      f0      :     0.003276  f :     0.026724
      f+1     :     0.005580
      f-1     :     0.002566
      f+2     :     0.003151
      f-2     :     0.004680
      f+3     :     0.003318
      f-3     :     0.004153
  1 C s       :     2.826550  s :     2.826550
      pz      :     1.015463  p :     2.990773
      px      :     1.026529
      py      :     0.948782
      dz2     :     0.107573  d :     0.360786
      dxz     :     0.078635
      dyz     :     0.039592
      dx2y2   :     0.061126
      dxy     :     0.073860
      f0      :     0.003785  f :     0.037432
      f+1     :     0.008258
      f-1     :     0.003875
      f+2     :     0.005083
      f-2     :     0.006034
      f+3     :     0.004652
      f-3     :     0.005745
  2 O s       :     3.445446  s :     3.445446
      pz      :     1.611198  p :     4.621606
      px      :     1.507534
      py      :     1.502873
      dz2     :     0.011783  d :     0.058375
      dxz     :     0.018207
      dyz     :     0.007841
      dx2y2   :     0.009298
      dxy     :     0.011246
      f0      :     0.000597  f :     0.004959
      f+1     :     0.001246
      f-1     :     0.000316
      f+2     :     0.000894
      f-2     :     0.001019
      f+3     :     0.000360
      f-3     :     0.000527
  3 H s       :     0.815102  s :     0.815102
      pz      :     0.037268  p :     0.062847
      px      :     0.012109
      py      :     0.013470
  4 O s       :     3.440399  s :     3.440399
      pz      :     1.486953  p :     4.621813
      px      :     1.608707
      py      :     1.526153
      dz2     :     0.026824  d :     0.058680
      dxz     :     0.015262
      dyz     :     0.015034
      dx2y2   :     0.000813
      dxy     :     0.000747
      f0      :     0.002025  f :     0.005006
      f+1     :     0.001355
      f-1     :     0.001297
      f+2     :     0.000162
      f-2     :     0.000152
      f+3     :     0.000006
      f-3     :     0.000008
  5 C s       :     2.786029  s :     2.786029
      pz      :     0.984647  p :     2.776353
      px      :     0.929681
      py      :     0.862025
      dz2     :     0.273301  d :     0.986163
      dxz     :     0.290351
      dyz     :     0.217589
      dx2y2   :     0.095700
      dxy     :     0.109222
      f0      :     0.023517  f :     0.148751
      f+1     :     0.048321
      f-1     :     0.026268
      f+2     :     0.016827
      f-2     :     0.014355
      f+3     :     0.009477
      f-3     :     0.009986
  6 H s       :     0.813039  s :     0.813039
      pz      :     0.019074  p :     0.062044
      px      :     0.022180
      py      :     0.020791
  7 H s       :     0.802770  s :     0.802770
      pz      :     0.034402  p :     0.058984
      px      :     0.011847
      py      :     0.012736


                      *****************************
                      * MAYER POPULATION ANALYSIS *
                      *****************************

  NA   - Mulliken gross atomic population
  ZA   - Total nuclear charge
  QA   - Mulliken gross atomic charge
  VA   - Mayer's total valence
  BVA  - Mayer's bonded valence
  FA   - Mayer's free valence

  ATOM       NA         ZA         QA         VA         BVA        FA
  0 C      6.2963     6.0000    -0.2963     3.8997     3.8997     0.0000
  1 C      6.1973     6.0000    -0.1973     3.6245     3.6245    -0.0000
  2 O      8.5368     8.0000    -0.5368     1.8863     1.8863    -0.0000
  3 H      0.8753     1.0000     0.1247     0.9944     0.9944    -0.0000
  4 O      8.5263     8.0000    -0.5263     1.9086     1.9086    -0.0000
  5 C      5.8170     6.0000     0.1830     4.6657     4.6657     0.0000
  6 H      0.8595     1.0000     0.1405     0.9653     0.9653     0.0000
  7 H      0.8914     1.0000     0.1086     0.9868     0.9868    -0.0000

  Mayer bond orders larger than 0.100000
B(  0-C ,  1-C ) :   1.8903 B(  0-C ,  3-H ) :   0.9438 B(  0-C ,  6-H ) :   0.9421 
B(  1-C ,  4-O ) :  -0.1240 B(  1-C ,  5-C ) :   0.9463 B(  1-C ,  7-H ) :   0.9335 
B(  2-O ,  5-C ) :   1.8154 B(  4-O ,  5-C ) :   1.8771 

-------
TIMINGS
-------

Total SCF time: 0 days 0 hours 0 min 11 sec 

Total time                  ....      11.414 sec
Sum of individual times     ....      10.409 sec  ( 91.2%)

Fock matrix formation       ....       9.713 sec  ( 85.1%)
  Split-RI-J                ....       1.318 sec  ( 13.6% of F)
  XC integration            ....       5.028 sec  ( 51.8% of F)
    Basis function eval.    ....       1.537 sec  ( 30.6% of XC)
    Density eval.           ....       0.998 sec  ( 19.8% of XC)
    XC-Functional eval.     ....       0.317 sec  (  6.3% of XC)
    XC-Potential eval.      ....       1.125 sec  ( 22.4% of XC)
Diagonalization             ....       0.005 sec  (  0.0%)
Density matrix formation    ....       0.002 sec  (  0.0%)
Population analysis         ....       0.047 sec  (  0.4%)
Initial guess               ....       0.006 sec  (  0.0%)
Orbital Transformation      ....       0.000 sec  (  0.0%)
Orbital Orthonormalization  ....       0.004 sec  (  0.0%)
DIIS solution               ....       0.001 sec  (  0.0%)
SOSCF solution              ....       0.162 sec  (  1.4%)
Grid generation             ....       0.474 sec  (  4.2%)

Maximum memory used throughout the entire SCF-calculation: 52.1 MB

-------------------------   --------------------
FINAL SINGLE POINT ENERGY      -266.517888028577
-------------------------   --------------------

                                *** OPTIMIZATION RUN DONE ***

                            ***************************************
                            *     ORCA property calculations      *
                            ***************************************

                                    ---------------------
                                    Active property flags
                                    ---------------------
   (+) Dipole Moment


------------------------------------------------------------------------------
                       ORCA ELECTRIC PROPERTIES CALCULATION
------------------------------------------------------------------------------

Dipole Moment Calculation                       ... on
Quadrupole Moment Calculation                   ... off
Polarizability Calculation                      ... off
GBWName                                         ... inp.gbw
Electron density                                ... inp.scfp
The origin for moment calculation is the CENTER OF MASS  = (-13.166296, -9.080737  0.995590)

-------------
DIPOLE MOMENT
-------------
                                X             Y             Z
Electronic contribution:     -2.43579      -1.81389      -0.40985
Nuclear contribution   :      4.30302       3.28125       1.11968
                        -----------------------------------------
Total Dipole Moment    :      1.86723       1.46737       0.70983
                        -----------------------------------------
Magnitude (a.u.)       :      2.47862
Magnitude (Debye)      :      6.30016



--------------------
Rotational spectrum 
--------------------
 
Rotational constants in cm-1:     0.369009     0.145108     0.104164 
Rotational constants in MHz : 11062.608003  4350.233672  3122.762158 

 Dipole components along the rotational axes: 
x,y,z [a.u.] :     2.384111    -0.677876    -0.008353 
x,y,z [Debye]:     6.059929    -1.723025    -0.021232 

 

Timings for individual modules:

Sum of individual times         ...      171.172 sec (=   2.853 min)
GTO integral calculation        ...        7.433 sec (=   0.124 min)   4.3 %
SCF iterations                  ...      129.415 sec (=   2.157 min)  75.6 %
SCF Gradient evaluation         ...       33.485 sec (=   0.558 min)  19.6 %
Geometry relaxation             ...        0.839 sec (=   0.014 min)   0.5 %
                             ****ORCA TERMINATED NORMALLY****
TOTAL RUN TIME: 0 days 0 hours 2 minutes 54 seconds 473 msec
