
                                 *****************
                                 * O   R   C   A *
                                 *****************

                                            #,                                       
                                            ###                                      
                                            ####                                     
                                            #####                                    
                                            ######                                   
                                           ########,                                 
                                     ,,################,,,,,                         
                               ,,#################################,,                 
                          ,,##########################################,,             
                       ,#########################################, ''#####,          
                    ,#############################################,,   '####,        
                  ,##################################################,,,,####,       
                ,###########''''           ''''###############################       
              ,#####''   ,,,,##########,,,,          '''####'''          '####       
            ,##' ,,,,###########################,,,                        '##       
           ' ,,###''''                  '''############,,,                           
         ,,##''                                '''############,,,,        ,,,,,,###''
      ,#''                                            '''#######################'''  
     '                                                          ''''####''''         
             ,#######,   #######,   ,#######,      ##                                
            ,#'     '#,  ##    ##  ,#'     '#,    #''#        ######   ,####,        
            ##       ##  ##   ,#'  ##            #'  '#       #        #'  '#        
            ##       ##  #######   ##           ,######,      #####,   #    #        
            '#,     ,#'  ##    ##  '#,     ,#' ,#      #,         ##   #,  ,#        
             '#######'   ##     ##  '#######'  #'      '#     #####' # '####'        



                  #######################################################
                  #                        -***-                        #
                  #          Department of theory and spectroscopy      #
                  #    Directorship and core code : Frank Neese         #
                  #        Max Planck Institute fuer Kohlenforschung    #
                  #                Kaiser Wilhelm Platz 1               #
                  #                 D-45470 Muelheim/Ruhr               #
                  #                      Germany                        #
                  #                                                     #
                  #                  All rights reserved                #
                  #                        -***-                        #
                  #######################################################


                         Program Version 5.0.4 -  RELEASE  -


 With contributions from (in alphabetic order):
   Daniel Aravena         : Magnetic Suceptibility
   Michael Atanasov       : Ab Initio Ligand Field Theory (pilot matlab implementation)
   Alexander A. Auer      : GIAO ZORA, VPT2 properties, NMR spectrum
   Ute Becker             : Parallelization
   Giovanni Bistoni       : ED, misc. LED, open-shell LED, HFLD
   Martin Brehm           : Molecular dynamics
   Dmytro Bykov           : SCF Hessian
   Vijay G. Chilkuri      : MRCI spin determinant printing, contributions to CSF-ICE
   Dipayan Datta          : RHF DLPNO-CCSD density
   Achintya Kumar Dutta   : EOM-CC, STEOM-CC
   Dmitry Ganyushin       : Spin-Orbit,Spin-Spin,Magnetic field MRCI
   Miquel Garcia          : C-PCM and meta-GGA Hessian, CC/C-PCM, Gaussian charge scheme
   Yang Guo               : DLPNO-NEVPT2, F12-NEVPT2, CIM, IAO-localization
   Andreas Hansen         : Spin unrestricted coupled pair/coupled cluster methods
   Benjamin Helmich-Paris : MC-RPA, TRAH-SCF, COSX integrals
   Lee Huntington         : MR-EOM, pCC
   Robert Izsak           : Overlap fitted RIJCOSX, COSX-SCS-MP3, EOM
   Marcus Kettner         : VPT2
   Christian Kollmar      : KDIIS, OOCD, Brueckner-CCSD(T), CCSD density, CASPT2, CASPT2-K
   Simone Kossmann        : Meta GGA functionals, TD-DFT gradient, OOMP2, MP2 Hessian
   Martin Krupicka        : Initial AUTO-CI
   Lucas Lang             : DCDCAS
   Marvin Lechner         : AUTO-CI (C++ implementation), FIC-MRCC
   Dagmar Lenk            : GEPOL surface, SMD
   Dimitrios Liakos       : Extrapolation schemes; Compound Job, initial MDCI parallelization
   Dimitrios Manganas     : Further ROCIS development; embedding schemes
   Dimitrios Pantazis     : SARC Basis sets
   Anastasios Papadopoulos: AUTO-CI, single reference methods and gradients
   Taras Petrenko         : DFT Hessian,TD-DFT gradient, ASA, ECA, R-Raman, ABS, FL, XAS/XES, NRVS
   Peter Pinski           : DLPNO-MP2, DLPNO-MP2 Gradient
   Christoph Reimann      : Effective Core Potentials
   Marius Retegan         : Local ZFS, SOC
   Christoph Riplinger    : Optimizer, TS searches, QM/MM, DLPNO-CCSD(T), (RO)-DLPNO pert. Triples
   Tobias Risthaus        : Range-separated hybrids, TD-DFT gradient, RPA, STAB
   Michael Roemelt        : Original ROCIS implementation
   Masaaki Saitow         : Open-shell DLPNO-CCSD energy and density
   Barbara Sandhoefer     : DKH picture change effects
   Avijit Sen             : IP-ROCIS
   Kantharuban Sivalingam : CASSCF convergence, NEVPT2, FIC-MRCI
   Bernardo de Souza      : ESD, SOC TD-DFT
   Georgi Stoychev        : AutoAux, RI-MP2 NMR, DLPNO-MP2 response
   Willem Van den Heuvel  : Paramagnetic NMR
   Boris Wezisla          : Elementary symmetry handling
   Frank Wennmohs         : Technical directorship


 We gratefully acknowledge several colleagues who have allowed us to
 interface, adapt or use parts of their codes:
   Stefan Grimme, W. Hujo, H. Kruse, P. Pracht,  : VdW corrections, initial TS optimization,
                  C. Bannwarth, S. Ehlert          DFT functionals, gCP, sTDA/sTD-DF
   Ed Valeev, F. Pavosevic, A. Kumar             : LibInt (2-el integral package), F12 methods
   Garnet Chan, S. Sharma, J. Yang, R. Olivares  : DMRG
   Ulf Ekstrom                                   : XCFun DFT Library
   Mihaly Kallay                                 : mrcc  (arbitrary order and MRCC methods)
   Jiri Pittner, Ondrej Demel                    : Mk-CCSD
   Frank Weinhold                                : gennbo (NPA and NBO analysis)
   Christopher J. Cramer and Donald G. Truhlar   : smd solvation model
   Lars Goerigk                                  : TD-DFT with DH, B97 family of functionals
   V. Asgeirsson, H. Jonsson                     : NEB implementation
   FAccTs GmbH                                   : IRC, NEB, NEB-TS, DLPNO-Multilevel, CI-OPT
                                                   MM, QMMM, 2- and 3-layer-ONIOM, Crystal-QMMM,
                                                   LR-CPCM, SF, NACMEs, symmetry and pop. for TD-DFT,
                                                   nearIR, NL-DFT gradient (VV10), updates on ESD,
                                                   ML-optimized integration grids
   S Lehtola, MJT Oliveira, MAL Marques          : LibXC Library
   Liviu Ungur et al                             : ANISO software


 Your calculation uses the libint2 library for the computation of 2-el integrals
 For citations please refer to: http://libint.valeyev.net

 Your ORCA version has been built with support for libXC version: 5.1.0
 For citations please refer to: https://tddft.org/programs/libxc/

 This ORCA versions uses:
   CBLAS   interface :  Fast vector & matrix operations
   LAPACKE interface :  Fast linear algebra routines
   SCALAPACK package :  Parallel linear algebra routines
   Shared memory     :  Shared parallel matrices
   BLAS/LAPACK       :  OpenBLAS 0.3.15  USE64BITINT DYNAMIC_ARCH NO_AFFINITY Haswell SINGLE_THREADED
        Core in use  :  Haswell
   Copyright (c) 2011-2014, The OpenBLAS Project


================================================================================

----- Orbital basis set information -----
Your calculation utilizes the basis: def2-TZVP
   F. Weigend and R. Ahlrichs, Phys. Chem. Chem. Phys. 7, 3297 (2005).

----- AuxJ basis set information -----
Your calculation utilizes the auxiliary basis: def2/J
   F. Weigend, Phys. Chem. Chem. Phys. 8, 1057 (2006).

================================================================================
                                        WARNINGS
                       Please study these warnings very carefully!
================================================================================


WARNING: Geometry Optimization
  ===> : Switching off AutoStart
         For restart on a previous wavefunction, please use MOREAD

INFO   : the flag for use of the SHARK integral package has been found!

================================================================================
                                       INPUT FILE
================================================================================
NAME = inp.inp
|  1> !OPT PBE def2-TZVP CPCM(water)
|  2> 
|  3> *xyz -1 1
|  4> C     -5.299237   -3.617381    0.491761
|  5> C     -6.457965   -4.171219    1.267062
|  6> O     -8.391744   -5.609645    1.209250
|  7> O     -6.661619   -3.899353    2.451791
|  8> O     -7.180117   -5.297882   -0.689678
|  9> C     -7.433284   -5.106343    0.544108
| 10> H     -4.668415   -3.019565    1.155661
| 11> H     -4.698458   -4.434953    0.085562
| 12> H     -5.665762   -2.978303   -0.315279
| 13> *
| 14> 
| 15>                          ****END OF INPUT****
================================================================================

                       *****************************
                       * Geometry Optimization Run *
                       *****************************

Geometry optimization settings:
Update method            Update   .... BFGS
Choice of coordinates    CoordSys .... Z-matrix Internals
Initial Hessian          InHess   .... Almoef's Model

Convergence Tolerances:
Energy Change            TolE     ....  5.0000e-06 Eh
Max. Gradient            TolMAXG  ....  3.0000e-04 Eh/bohr
RMS Gradient             TolRMSG  ....  1.0000e-04 Eh/bohr
Max. Displacement        TolMAXD  ....  4.0000e-03 bohr
RMS Displacement         TolRMSD  ....  2.0000e-03 bohr
Strict Convergence                ....  False
------------------------------------------------------------------------------
                        ORCA OPTIMIZATION COORDINATE SETUP
------------------------------------------------------------------------------

The optimization will be done in new redundant internal coordinates
Making redundant internal coordinates   ...  (new redundants) done
Evaluating the initial hessian          ...  (Almloef) done
Evaluating the coordinates              ...  done
Calculating the B-matrix                .... done
Calculating the G-matrix                .... done
Diagonalizing the G-matrix              .... done
The first mode is                       ....    9
The number of degrees of freedom        ....   21

    -----------------------------------------------------------------
                    Redundant Internal Coordinates


    -----------------------------------------------------------------
         Definition                    Initial Value    Approx d2E/dq
    -----------------------------------------------------------------
      1. B(C   1,C   0)                  1.5002         0.416856   
      2. B(O   3,C   1)                  1.2325         0.998190   
      3. B(C   5,C   1)                  1.5324         0.370244   
      4. B(C   5,O   4)                  1.2740         0.857015   
      5. B(C   5,O   2)                  1.2706         0.867767   
      6. B(H   6,C   0)                  1.0937         0.355296   
      7. B(H   7,C   0)                  1.0929         0.356328   
      8. B(H   8,C   0)                  1.0927         0.356497   
      9. A(H   6,C   0,H   7)          108.5101         0.289748   
     10. A(C   1,C   0,H   7)          109.9082         0.329656   
     11. A(H   7,C   0,H   8)          110.3285         0.289901   
     12. A(C   1,C   0,H   8)          109.7872         0.329682   
     13. A(H   6,C   0,H   8)          108.7910         0.289769   
     14. A(C   1,C   0,H   6)          109.4874         0.329498   
     15. A(O   3,C   1,C   5)          118.8772         0.428193   
     16. A(C   0,C   1,O   3)          122.8874         0.437420   
     17. A(C   0,C   1,C   5)          118.2334         0.369674   
     18. A(O   2,C   5,O   4)          126.6790         0.483090   
     19. A(C   1,C   5,O   4)          114.9706         0.416686   
     20. A(C   1,C   5,O   2)          118.3500         0.417612   
     21. D(O   3,C   1,C   0,H   7)    122.8467         0.012855   
     22. D(C   5,C   1,C   0,H   6)   -176.7650         0.012855   
     23. D(O   3,C   1,C   0,H   6)      3.7474         0.012855   
     24. D(C   5,C   1,C   0,H   7)    -57.6658         0.012855   
     25. D(C   5,C   1,C   0,H   8)     63.8653         0.012855   
     26. D(O   3,C   1,C   0,H   8)   -115.6223         0.012855   
     27. D(O   2,C   5,C   1,C   0)    177.8497         0.009527   
     28. D(O   4,C   5,C   1,O   3)    177.5433         0.009527   
     29. D(O   4,C   5,C   1,C   0)     -1.9653         0.009527   
     30. D(O   2,C   5,C   1,O   3)     -2.6417         0.009527   
    -----------------------------------------------------------------

Number of atoms                         .... 9
Number of degrees of freedom            .... 30

         *************************************************************
         *                GEOMETRY OPTIMIZATION CYCLE   1            *
         *************************************************************
---------------------------------
CARTESIAN COORDINATES (ANGSTROEM)
---------------------------------
  C     -5.299237   -3.617381    0.491761
  C     -6.457965   -4.171219    1.267062
  O     -8.391744   -5.609645    1.209250
  O     -6.661619   -3.899353    2.451791
  O     -7.180117   -5.297882   -0.689678
  C     -7.433284   -5.106343    0.544108
  H     -4.668415   -3.019565    1.155661
  H     -4.698458   -4.434953    0.085562
  H     -5.665762   -2.978303   -0.315279

----------------------------
CARTESIAN COORDINATES (A.U.)
----------------------------
  NO LB      ZA    FRAG     MASS         X           Y           Z
   0 C     6.0000    0    12.011  -10.014107   -6.835859    0.929294
   1 C     6.0000    0    12.011  -12.203785   -7.882462    2.394400
   2 O     8.0000    0    15.999  -15.858098  -10.600693    2.285151
   3 O     8.0000    0    15.999  -12.588636   -7.368709    4.633214
   4 O     8.0000    0    15.999  -13.568455  -10.011546   -1.303303
   5 C     6.0000    0    12.011  -14.046871   -9.649590    1.028215
   6 H     1.0000    0     1.008   -8.822026   -5.706151    2.183883
   7 H     1.0000    0     1.008   -8.878799   -8.380847    0.161689
   8 H     1.0000    0     1.008  -10.706739   -5.628177   -0.595791

--------------------------------
INTERNAL COORDINATES (ANGSTROEM)
--------------------------------
 C      0   0   0     0.000000000000     0.00000000     0.00000000
 C      1   0   0     1.500159574455     0.00000000     0.00000000
 O      2   1   0     2.410790908739   145.83839280     0.00000000
 O      2   1   3     1.232464554100   122.88744230   178.73644678
 O      3   2   1     2.274019284105    60.71436973   356.73281854
 C      3   2   1     1.270579535082    34.01561794   356.62512314
 H      1   2   3     1.093656059070   109.48736367   185.01098734
 H      1   2   3     1.092866418931   109.90817949   304.11023087
 H      1   2   3     1.092737309379   109.78719963    65.64129497

---------------------------
INTERNAL COORDINATES (A.U.)
---------------------------
 C      0   0   0     0.000000000000     0.00000000     0.00000000
 C      1   0   0     2.834890752900     0.00000000     0.00000000
 O      2   1   0     4.555734583665   145.83839280     0.00000000
 O      2   1   3     2.329020477014   122.88744230   178.73644678
 O      3   2   1     4.297273670214    60.71436973   356.73281854
 C      3   2   1     2.401047352669    34.01561794   356.62512314
 H      1   2   3     2.066710436345   109.48736367   185.01098734
 H      1   2   3     2.065218232738   109.90817949   304.11023087
 H      1   2   3     2.064974251044   109.78719963    65.64129497

---------------------
BASIS SET INFORMATION
---------------------
There are 3 groups of distinct atoms

 Group   1 Type C   : 11s6p2d1f contracted to 5s3p2d1f pattern {62111/411/11/1}
 Group   2 Type O   : 11s6p2d1f contracted to 5s3p2d1f pattern {62111/411/11/1}
 Group   3 Type H   : 5s1p contracted to 3s1p pattern {311/1}

Atom   0C    basis set group =>   1
Atom   1C    basis set group =>   1
Atom   2O    basis set group =>   2
Atom   3O    basis set group =>   2
Atom   4O    basis set group =>   2
Atom   5C    basis set group =>   1
Atom   6H    basis set group =>   3
Atom   7H    basis set group =>   3
Atom   8H    basis set group =>   3
---------------------------------
AUXILIARY/J BASIS SET INFORMATION
---------------------------------
There are 3 groups of distinct atoms

 Group   1 Type C   : 12s5p4d2f1g contracted to 6s4p3d1f1g pattern {711111/2111/211/2/1}
 Group   2 Type O   : 12s5p4d2f1g contracted to 6s4p3d1f1g pattern {711111/2111/211/2/1}
 Group   3 Type H   : 5s2p1d contracted to 3s1p1d pattern {311/2/1}

Atom   0C    basis set group =>   1
Atom   1C    basis set group =>   1
Atom   2O    basis set group =>   2
Atom   3O    basis set group =>   2
Atom   4O    basis set group =>   2
Atom   5C    basis set group =>   1
Atom   6H    basis set group =>   3
Atom   7H    basis set group =>   3
Atom   8H    basis set group =>   3
------------------------------------------------------------------------------
                           ORCA GTO INTEGRAL CALCULATION
                           -- RI-GTO INTEGRALS CHOSEN --
------------------------------------------------------------------------------
------------------------------------------------------------------------------
                   ___                                                        
                  /   \      - P O W E R E D   B Y -                         
                 /     \                                                     
                 |  |  |   _    _      __       _____    __    __             
                 |  |  |  | |  | |    /  \     |  _  \  |  |  /  |          
                  \  \/   | |  | |   /    \    | | | |  |  | /  /          
                 / \  \   | |__| |  /  /\  \   | |_| |  |  |/  /          
                |  |  |   |  __  | /  /__\  \  |    /   |      \           
                |  |  |   | |  | | |   __   |  |    \   |  |\   \          
                \     /   | |  | | |  |  |  |  | |\  \  |  | \   \       
                 \___/    |_|  |_| |__|  |__|  |_| \__\ |__|  \__/        
                                                                              
                      - O R C A' S   B I G   F R I E N D -                    
                                      &                                       
                       - I N T E G R A L  F E E D E R -                       
                                                                              
 v1 FN, 2020, v2 2021                                                         
------------------------------------------------------------------------------


Reading SHARK input file inp.SHARKINP.tmp ... ok
----------------------
SHARK INTEGRAL PACKAGE
----------------------

Number of atoms                             ...      9
Number of basis functions                   ...    204
Number of shells                            ...     78
Maximum angular momentum                    ...      3
Integral batch strategy                     ... SHARK/LIBINT Hybrid
RI-J (if used) integral strategy            ... SPLIT-RIJ (Revised 2003 algorithm where possible)
Printlevel                                  ...      1
Contraction scheme used                     ... SEGMENTED contraction
Coulomb Range Separation                    ... NOT USED
Exchange Range Separation                   ... NOT USED
Finite Nucleus Model                        ... NOT USED
Auxiliary Coulomb fitting basis             ... AVAILABLE
   # of basis functions in Aux-J            ...    327
   # of shells in Aux-J                     ...    105
   Maximum angular momentum in Aux-J        ...      4
Auxiliary J/K fitting basis                 ... NOT available
Auxiliary Correlation fitting basis         ... NOT available
Auxiliary 'external' fitting basis          ... NOT available
Integral threshold                          ...     2.500000e-11
Primitive cut-off                           ...     2.500000e-12
Primitive pair pre-selection threshold      ...     2.500000e-12

Calculating pre-screening integrals         ... done (  0.1 sec) Dimension = 78
Organizing shell pair data                  ... done (  0.1 sec)
Shell pair information
Total number of shell pairs                 ...      3081
Shell pairs after pre-screening             ...      2909
Total number of primitive shell pairs       ...      9732
Primitive shell pairs kept                  ...      7113
          la=0 lb=0:    700 shell pairs
          la=1 lb=0:    786 shell pairs
          la=1 lb=1:    227 shell pairs
          la=2 lb=0:    440 shell pairs
          la=2 lb=1:    245 shell pairs
          la=2 lb=2:     76 shell pairs
          la=3 lb=0:    219 shell pairs
          la=3 lb=1:    125 shell pairs
          la=3 lb=2:     70 shell pairs
          la=3 lb=3:     21 shell pairs

Calculating one electron integrals          ... done (  0.0 sec)
Calculating RI/J V-Matrix + Cholesky decomp.... done (  0.2 sec)
Calculating Nuclear repulsion               ... done (  0.0 sec) ENN=    217.137127452228 Eh

SHARK setup successfully completed in   1.1 seconds

Maximum memory used throughout the entire GTOINT-calculation: 52.8 MB
-------------------------------------------------------------------------------
                                 ORCA SCF
-------------------------------------------------------------------------------

------------
SCF SETTINGS
------------
Hamiltonian:
 Density Functional     Method          .... DFT(GTOs)
 Exchange Functional    Exchange        .... PBE
   PBE kappa parameter   XKappa         ....  0.804000
   PBE mue parameter    XMuePBE         ....  0.219520
 Correlation Functional Correlation     .... PBE
   PBE beta parameter  CBetaPBE         ....  0.066725
 LDA part of GGA corr.  LDAOpt          .... PW91-LDA
 Gradients option       PostSCFGGA      .... off
   Density functional embedding theory  .... OFF
   NL short-range parameter             ....  6.400000
 RI-approximation to the Coulomb term is turned on
   Number of AuxJ basis functions       .... 327


General Settings:
 Integral files         IntName         .... inp
 Hartree-Fock type      HFTyp           .... RHF
 Total Charge           Charge          ....   -1
 Multiplicity           Mult            ....    1
 Number of Electrons    NEL             ....   46
 Basis Dimension        Dim             ....  204
 Nuclear Repulsion      ENuc            ....    217.1371274522 Eh

Convergence Acceleration:
 DIIS                   CNVDIIS         .... on
   Start iteration      DIISMaxIt       ....    12
   Startup error        DIISStart       ....  0.200000
   # of expansion vecs  DIISMaxEq       ....     5
   Bias factor          DIISBfac        ....   1.050
   Max. coefficient     DIISMaxC        ....  10.000
 Trust-Rad. Augm. Hess. CNVTRAH         .... auto
   Auto Start mean grad. ratio tolernc. ....  1.125000
   Auto Start start iteration           ....    20
   Auto Start num. interpolation iter.  ....    10
   Max. Number of Micro iterations      ....    16
   Max. Number of Macro iterations      .... Maxiter - #DIIS iter
   Number of Davidson start vectors     ....     2
   Converg. threshold I  (grad. norm)   ....   1.000e-05
   Converg. threshold II (energy diff.) ....   1.000e-08
   Grad. Scal. Fac. for Micro threshold ....   0.100
   Minimum threshold for Micro iter.    ....   0.010
   NR start threshold (gradient norm)   ....   0.001
   Initial trust radius                 ....   0.400
   Minimum AH scaling param. (alpha)    ....   1.000
   Maximum AH scaling param. (alpha)    .... 1000.000
   Orbital update algorithm             .... Taylor
   White noise on init. David. guess    .... on
   Maximum white noise                  ....   0.010
   Quad. conv. algorithm                .... NR
 SOSCF                  CNVSOSCF        .... on
   Start iteration      SOSCFMaxIt      ....   150
   Startup grad/error   SOSCFStart      ....  0.003300
 Level Shifting         CNVShift        .... on
   Level shift para.    LevelShift      ....    0.2500
   Turn off err/grad.   ShiftErr        ....    0.0010
 Zerner damping         CNVZerner       .... off
 Static damping         CNVDamp         .... on
   Fraction old density DampFac         ....    0.7000
   Max. Damping (<1)    DampMax         ....    0.9800
   Min. Damping (>=0)   DampMin         ....    0.0000
   Turn off err/grad.   DampErr         ....    0.1000
 Fernandez-Rico         CNVRico         .... off

SCF Procedure:
 Maximum # iterations   MaxIter         ....   125
 SCF integral mode      SCFMode         .... Direct
   Integral package                     .... SHARK and LIBINT hybrid scheme
 Reset frequency        DirectResetFreq ....    20
 Integral Threshold     Thresh          ....  2.500e-11 Eh
 Primitive CutOff       TCut            ....  2.500e-12 Eh

Convergence Tolerance:
 Convergence Check Mode ConvCheckMode   .... Total+1el-Energy
 Convergence forced     ConvForced      .... 0
 Energy Change          TolE            ....  1.000e-08 Eh
 1-El. energy change                    ....  1.000e-05 Eh
 Orbital Gradient       TolG            ....  1.000e-05
 Orbital Rotation angle TolX            ....  1.000e-05
 DIIS Error             TolErr          ....  5.000e-07


Diagonalization of the overlap matrix:
Smallest eigenvalue                        ... 3.317e-04
Time for diagonalization                   ...    0.006 sec
Threshold for overlap eigenvalues          ... 1.000e-08
Number of eigenvalues below threshold      ... 0
Time for construction of square roots      ...    0.034 sec
Total time needed                          ...    0.041 sec

Time for model grid setup =    0.222 sec

------------------------------
INITIAL GUESS: MODEL POTENTIAL
------------------------------
Loading Hartree-Fock densities                     ... done
Calculating cut-offs                               ... done
Initializing the effective Hamiltonian             ... done
Setting up the integral package (SHARK)            ... done
Starting the Coulomb interaction                   ... done (   0.2 sec)
Reading the grid                                   ... done
Mapping shells                                     ... done
Starting the XC term evaluation                    ... done (   0.2 sec)
  promolecular density results
     # of electrons  =     44.999868410
     EX              =    -40.575631568
     EC              =     -1.494787704
     EX+EC           =    -42.070419272
Transforming the Hamiltonian                       ... done (   0.0 sec)
Diagonalizing the Hamiltonian                      ... done (   0.0 sec)
Back transforming the eigenvectors                 ... done (   0.0 sec)
Now organizing SCF variables                       ... done
                      ------------------
                      INITIAL GUESS DONE (   0.6 sec)
                      ------------------
-------------------
DFT GRID GENERATION
-------------------

General Integration Accuracy     IntAcc      ... 4.388
Radial Grid Type                 RadialGrid  ... OptM3 with GC (2021)
Angular Grid (max. ang.)         AngularGrid ... 4 (Lebedev-302)
Angular grid pruning method      GridPruning ... 4 (adaptive)
Weight generation scheme         WeightScheme... Becke
Basis function cutoff            BFCut       ... 1.0000e-11
Integration weight cutoff        WCut        ... 1.0000e-14
Angular grids for H and He will be reduced by one unit
Partially contracted basis set               ... off
Rotationally invariant grid construction     ... off

Total number of grid points                  ...    46300
Total number of batches                      ...      728
Average number of points per batch           ...       63
Average number of grid points per atom       ...     5144
Time for grid setup =    0.596 sec


--------------------
CPCM SOLVATION MODEL
--------------------
CPCM parameters:
  Epsilon                                         ...      80.4000
  Refrac                                          ...       1.3300
  Rsolv                                           ...       1.3000
  Surface type                                    ... GAUSSIAN VDW
  Epsilon function type                           ...         CPCM
Radii:
 Radius for C  used is    3.8550 Bohr (=   2.0400 Ang.)
 Radius for O  used is    3.4469 Bohr (=   1.8240 Ang.)
 Radius for H  used is    2.4944 Bohr (=   1.3200 Ang.)
Calculating surface                               ...        done! (  0.0s)
GEPOL surface points                              ...          584
GEPOL Volume                                      ...     699.0676
GEPOL Surface-area                                ...     437.2223
Calculating surface distance matrix               ...        done! (  0.0s)
Performing Cholesky decomposition & store         ...        done! (  0.1s)
Overall time for CPCM initialization              ...                 0.1s
--------------
SCF ITERATIONS
--------------
ITER       Energy         Delta-E        Max-DP      RMS-DP      [F,P]     Damp
               ***  Starting incremental Fock matrix formation  ***
  0   -341.4255676440   0.000000000000 0.19063401  0.00280345  0.3036975 0.7000
  1   -341.5822993136  -0.156731669584 0.19594561  0.00240992  0.1032341 0.7000
                               ***Turning on DIIS***
  2   -341.6227173425  -0.040418028915 0.25352385  0.00347008  0.0300967 0.0000
  3   -341.7144602167  -0.091742874240 0.17628100  0.00193207  0.0547493 0.0000
  4   -341.7239880245  -0.009527807709 0.05534155  0.00063099  0.0299617 0.0000
  5   -341.7270794134  -0.003091388921 0.01907125  0.00023200  0.0054807 0.0000
                      *** Initiating the SOSCF procedure ***
                           *** Shutting down DIIS ***
                      *** Re-Reading the Fockian *** 
                      *** Removing any level shift *** 
ITER      Energy       Delta-E        Grad      Rot      Max-DP    RMS-DP
  6   -341.72720251  -0.0001230970  0.000551  0.000551  0.005908  0.000074
               *** Restarting incremental Fock matrix formation ***
  7   -341.72721471  -0.0000122025  0.000419  0.001863  0.005908  0.000070
  8   -341.72720222   0.0000124891  0.001412  0.001620  0.001666  0.000032
  9   -341.72721710  -0.0000148783  0.000107  0.000633  0.000556  0.000012
 10   -341.72721592   0.0000011869  0.000308  0.000477  0.000302  0.000009
 11   -341.72721726  -0.0000013452  0.000040  0.000136  0.000107  0.000003
 12   -341.72721711   0.0000001454  0.000106  0.000094  0.000088  0.000002
 13   -341.72721728  -0.0000001695  0.000005  0.000009  0.000090  0.000001
 14   -341.72721728   0.0000000006  0.000006  0.000006  0.000046  0.000001
                  ***Gradient check signals convergence***
              ***Rediagonalizing the Fockian in SOSCF/NRSCF***

               *****************************************************
               *                     SUCCESS                       *
               *           SCF CONVERGED AFTER  15 CYCLES          *
               *****************************************************


----------------
TOTAL SCF ENERGY
----------------

Total Energy       :         -341.72721729 Eh           -9298.87033 eV

Components:
Nuclear Repulsion  :          217.13712745 Eh            5908.60163 eV
Electronic Energy  :         -558.86434474 Eh          -15207.47195 eV
One Electron Energy:         -907.79729384 Eh          -24702.42021 eV
Two Electron Energy:          348.93294910 Eh            9494.94826 eV
CPCM Dielectric    :           -0.10956765 Eh              -2.98149 eV

Virial components:
Potential Energy   :         -682.10215983 Eh          -18560.94339 eV
Kinetic Energy     :          340.37494255 Eh            9262.07306 eV
Virial Ratio       :            2.00397290


DFT components:
N(Alpha)           :       22.999989542483 electrons
N(Beta)            :       22.999989542483 electrons
N(Total)           :       45.999979084966 electrons
E(X)               :      -41.465022561437 Eh       
E(C)               :       -1.537260490606 Eh       
E(XC)              :      -43.002283052043 Eh       
DFET-embed. en.    :        0.000000000000 Eh       
CPCM Solvation Model Properties:
Surface-charge          :            0.97867463
Charge-correction       :           -0.00331912 Eh              -0.09032 eV
Free-energy (cav+disp)  :  This term is not implemented in the current solvation scheme

---------------
SCF CONVERGENCE
---------------

  Last Energy change         ...   -1.5447e-09  Tolerance :   1.0000e-08
  Last MAX-Density change    ...    1.1431e-05  Tolerance :   1.0000e-07
  Last RMS-Density change    ...    1.3367e-07  Tolerance :   5.0000e-09
  Last Orbital Gradient      ...    4.1609e-07  Tolerance :   1.0000e-05
  Last Orbital Rotation      ...    8.5032e-07  Tolerance :   1.0000e-05

             **** THE GBW FILE WAS UPDATED (inp.gbw) ****
             **** DENSITY inp.scfp WAS UPDATED ****
             **** ENERGY FILE WAS UPDATED (inp.en.tmp) ****
             **** THE GBW FILE WAS UPDATED (inp.gbw) ****
             **** DENSITY inp.scfp WAS UPDATED ****
----------------
ORBITAL ENERGIES
----------------

  NO   OCC          E(Eh)            E(eV) 
   0   2.0000     -18.739355      -509.9238 
   1   2.0000     -18.687834      -508.5218 
   2   2.0000     -18.686785      -508.4933 
   3   2.0000      -9.959261      -271.0053 
   4   2.0000      -9.950693      -270.7721 
   5   2.0000      -9.872092      -268.6333 
   6   2.0000      -0.950370       -25.8609 
   7   2.0000      -0.916007       -24.9258 
   8   2.0000      -0.839944       -22.8561 
   9   2.0000      -0.668174       -18.1819 
  10   2.0000      -0.546340       -14.8667 
  11   2.0000      -0.428458       -11.6589 
  12   2.0000      -0.398151       -10.8343 
  13   2.0000      -0.390757       -10.6330 
  14   2.0000      -0.384427       -10.4608 
  15   2.0000      -0.339400        -9.2355 
  16   2.0000      -0.338242        -9.2040 
  17   2.0000      -0.336047        -9.1443 
  18   2.0000      -0.308664        -8.3992 
  19   2.0000      -0.237598        -6.4654 
  20   2.0000      -0.211869        -5.7653 
  21   2.0000      -0.187387        -5.0991 
  22   2.0000      -0.176528        -4.8036 
  23   0.0000      -0.083763        -2.2793 
  24   0.0000       0.040231         1.0948 
  25   0.0000       0.057648         1.5687 
  26   0.0000       0.088403         2.4056 
  27   0.0000       0.111315         3.0290 
  28   0.0000       0.115362         3.1392 
  29   0.0000       0.137575         3.7436 
  30   0.0000       0.148716         4.0468 
  31   0.0000       0.198213         5.3937 
  32   0.0000       0.201992         5.4965 
  33   0.0000       0.215932         5.8758 
  34   0.0000       0.225180         6.1275 
  35   0.0000       0.259350         7.0573 
  36   0.0000       0.270626         7.3641 
  37   0.0000       0.293736         7.9930 
  38   0.0000       0.336719         9.1626 
  39   0.0000       0.346449         9.4273 
  40   0.0000       0.357499         9.7280 
  41   0.0000       0.370320        10.0769 
  42   0.0000       0.378989        10.3128 
  43   0.0000       0.401522        10.9260 
  44   0.0000       0.408928        11.1275 
  45   0.0000       0.423552        11.5254 
  46   0.0000       0.441516        12.0143 
  47   0.0000       0.449325        12.2268 
  48   0.0000       0.459793        12.5116 
  49   0.0000       0.490008        13.3338 
  50   0.0000       0.506817        13.7912 
  51   0.0000       0.531550        14.4642 
  52   0.0000       0.557955        15.1827 
  53   0.0000       0.579171        15.7601 
  54   0.0000       0.631352        17.1800 
  55   0.0000       0.638703        17.3800 
  56   0.0000       0.652420        17.7533 
  57   0.0000       0.676119        18.3981 
  58   0.0000       0.706696        19.2302 
  59   0.0000       0.729298        19.8452 
  60   0.0000       0.796980        21.6869 
  61   0.0000       0.822316        22.3764 
  62   0.0000       0.843903        22.9638 
  63   0.0000       0.848659        23.0932 
  64   0.0000       0.904192        24.6043 
  65   0.0000       0.922944        25.1146 
  66   0.0000       0.963519        26.2187 
  67   0.0000       0.983023        26.7494 
  68   0.0000       1.041248        28.3338 
  69   0.0000       1.062144        28.9024 
  70   0.0000       1.093822        29.7644 
  71   0.0000       1.125528        30.6272 
  72   0.0000       1.175322        31.9821 
  73   0.0000       1.292673        35.1754 
  74   0.0000       1.314550        35.7707 
  75   0.0000       1.339030        36.4369 
  76   0.0000       1.399550        38.0837 
  77   0.0000       1.424662        38.7670 
  78   0.0000       1.459061        39.7031 
  79   0.0000       1.462811        39.8051 
  80   0.0000       1.469479        39.9866 
  81   0.0000       1.488469        40.5033 
  82   0.0000       1.491619        40.5890 
  83   0.0000       1.538589        41.8671 
  84   0.0000       1.550081        42.1799 
  85   0.0000       1.560083        42.4520 
  86   0.0000       1.608684        43.7745 
  87   0.0000       1.720897        46.8280 
  88   0.0000       1.728532        47.0358 
  89   0.0000       1.742409        47.4134 
  90   0.0000       1.779306        48.4174 
  91   0.0000       1.819235        49.5039 
  92   0.0000       1.846521        50.2464 
  93   0.0000       1.893221        51.5172 
  94   0.0000       1.941017        52.8178 
  95   0.0000       1.985822        54.0370 
  96   0.0000       1.996743        54.3341 
  97   0.0000       2.025196        55.1084 
  98   0.0000       2.040510        55.5251 
  99   0.0000       2.056033        55.9475 
 100   0.0000       2.098053        57.0909 
 101   0.0000       2.142061        58.2884 
 102   0.0000       2.185112        59.4599 
 103   0.0000       2.238942        60.9247 
 104   0.0000       2.272489        61.8376 
 105   0.0000       2.288559        62.2749 
 106   0.0000       2.297244        62.5112 
 107   0.0000       2.300046        62.5874 
 108   0.0000       2.449061        66.6423 
 109   0.0000       2.460295        66.9480 
 110   0.0000       2.470144        67.2160 
 111   0.0000       2.511313        68.3363 
 112   0.0000       2.518281        68.5259 
 113   0.0000       2.560719        69.6807 
 114   0.0000       2.609708        71.0138 
 115   0.0000       2.662105        72.4396 
 116   0.0000       2.666133        72.5492 
 117   0.0000       2.762134        75.1615 
 118   0.0000       2.786129        75.8144 
 119   0.0000       2.833542        77.1046 
 120   0.0000       2.879211        78.3473 
 121   0.0000       2.890663        78.6589 
 122   0.0000       2.914747        79.3143 
 123   0.0000       2.931824        79.7790 
 124   0.0000       2.950522        80.2878 
 125   0.0000       2.970243        80.8244 
 126   0.0000       2.976045        80.9823 
 127   0.0000       3.046438        82.8978 
 128   0.0000       3.060922        83.2919 
 129   0.0000       3.066427        83.4417 
 130   0.0000       3.073594        83.6367 
 131   0.0000       3.135021        85.3083 
 132   0.0000       3.166142        86.1551 
 133   0.0000       3.179732        86.5249 
 134   0.0000       3.204996        87.2124 
 135   0.0000       3.249396        88.4205 
 136   0.0000       3.286804        89.4385 
 137   0.0000       3.297152        89.7201 
 138   0.0000       3.340809        90.9080 
 139   0.0000       3.356719        91.3410 
 140   0.0000       3.368889        91.6721 
 141   0.0000       3.413735        92.8925 
 142   0.0000       3.422427        93.1290 
 143   0.0000       3.484591        94.8205 
 144   0.0000       3.539174        96.3058 
 145   0.0000       3.627019        98.6962 
 146   0.0000       3.726211       101.3954 
 147   0.0000       3.737151       101.6930 
 148   0.0000       3.804910       103.5369 
 149   0.0000       3.822470       104.0147 
 150   0.0000       3.891965       105.9057 
 151   0.0000       3.917498       106.6005 
 152   0.0000       4.017074       109.3102 
 153   0.0000       4.157049       113.1190 
 154   0.0000       4.235546       115.2551 
 155   0.0000       4.252288       115.7106 
 156   0.0000       4.342645       118.1694 
 157   0.0000       4.396651       119.6389 
 158   0.0000       4.503511       122.5468 
 159   0.0000       4.548873       123.7811 
 160   0.0000       4.674196       127.1913 
 161   0.0000       4.727764       128.6490 
 162   0.0000       5.063880       137.7952 
 163   0.0000       5.069003       137.9346 
 164   0.0000       5.074072       138.0725 
 165   0.0000       5.101837       138.8280 
 166   0.0000       5.110128       139.0537 
 167   0.0000       5.120692       139.3411 
 168   0.0000       5.220229       142.0497 
 169   0.0000       5.383351       146.4884 
 170   0.0000       5.398290       146.8949 
 171   0.0000       5.443364       148.1215 
 172   0.0000       5.463515       148.6698 
 173   0.0000       5.556299       151.1946 
 174   0.0000       5.718737       155.6148 
 175   0.0000       5.850829       159.2092 
 176   0.0000       5.906218       160.7164 
 177   0.0000       5.963428       162.2731 
 178   0.0000       6.040696       164.3757 
 179   0.0000       6.166070       167.7873 
 180   0.0000       6.203006       168.7924 
 181   0.0000       6.237134       169.7211 
 182   0.0000       6.248879       170.0406 
 183   0.0000       6.295297       171.3037 
 184   0.0000       6.310569       171.7193 
 185   0.0000       6.328310       172.2021 
 186   0.0000       6.338112       172.4688 
 187   0.0000       6.435014       175.1056 
 188   0.0000       6.636538       180.5894 
 189   0.0000       6.686493       181.9487 
 190   0.0000       6.695702       182.1993 
 191   0.0000       6.760229       183.9552 
 192   0.0000       6.810323       185.3183 
 193   0.0000       6.872821       187.0190 
 194   0.0000       6.907838       187.9718 
 195   0.0000       6.998952       190.4512 
 196   0.0000       7.055076       191.9784 
 197   0.0000       7.225523       196.6165 
 198   0.0000      22.099281       601.3520 
 199   0.0000      22.687177       617.3495 
 200   0.0000      23.099571       628.5713 
 201   0.0000      43.319045      1178.7711 
 202   0.0000      43.474903      1183.0123 
 203   0.0000      43.624359      1187.0791 

                    ********************************
                    * MULLIKEN POPULATION ANALYSIS *
                    ********************************

-----------------------
MULLIKEN ATOMIC CHARGES
-----------------------
   0 C :   -0.331633
   1 C :    0.133684
   2 O :   -0.513364
   3 O :   -0.342793
   4 O :   -0.501653
   5 C :    0.152600
   6 H :    0.118680
   7 H :    0.141271
   8 H :    0.143208
Sum of atomic charges:   -1.0000000

--------------------------------
MULLIKEN REDUCED ORBITAL CHARGES
--------------------------------
  0 C s       :     3.196083  s :     3.196083
      pz      :     1.052438  p :     3.091262
      px      :     0.990361
      py      :     1.048463
      dz2     :     0.007449  d :     0.041265
      dxz     :     0.009767
      dyz     :     0.008385
      dx2y2   :     0.005001
      dxy     :     0.010663
      f0      :     0.000157  f :     0.003023
      f+1     :     0.000670
      f-1     :     0.000253
      f+2     :     0.000395
      f-2     :     0.001225
      f+3     :     0.000289
      f-3     :     0.000035
  1 C s       :     3.226580  s :     3.226580
      pz      :     0.783954  p :     2.451336
      px      :     0.879162
      py      :     0.788220
      dz2     :     0.038988  d :     0.171873
      dxz     :     0.054599
      dyz     :     0.044406
      dx2y2   :     0.016859
      dxy     :     0.017020
      f0      :     0.003138  f :     0.016527
      f+1     :     0.004976
      f-1     :     0.003770
      f+2     :     0.001664
      f-2     :     0.001372
      f+3     :     0.000760
      f-3     :     0.000847
  2 O s       :     3.774942  s :     3.774942
      pz      :     1.683157  p :     4.711239
      px      :     1.466011
      py      :     1.562071
      dz2     :     0.004306  d :     0.025637
      dxz     :     0.006455
      dyz     :     0.003723
      dx2y2   :     0.005920
      dxy     :     0.005233
      f0      :     0.000159  f :     0.001546
      f+1     :     0.000318
      f-1     :     0.000103
      f+2     :     0.000287
      f-2     :     0.000300
      f+3     :     0.000224
      f-3     :     0.000156
  3 O s       :     3.787653  s :     3.787653
      pz      :     1.366937  p :     4.524685
      px      :     1.659690
      py      :     1.498058
      dz2     :     0.010007  d :     0.028785
      dxz     :     0.008228
      dyz     :     0.008781
      dx2y2   :     0.000758
      dxy     :     0.001011
      f0      :     0.000540  f :     0.001670
      f+1     :     0.000457
      f-1     :     0.000440
      f+2     :     0.000091
      f-2     :     0.000102
      f+3     :     0.000021
      f-3     :     0.000019
  4 O s       :     3.771190  s :     3.771190
      pz      :     1.396667  p :     4.703254
      px      :     1.691556
      py      :     1.615031
      dz2     :     0.010259  d :     0.025671
      dxz     :     0.006969
      dyz     :     0.007116
      dx2y2   :     0.000565
      dxy     :     0.000763
      f0      :     0.000541  f :     0.001537
      f+1     :     0.000424
      f-1     :     0.000396
      f+2     :     0.000070
      f-2     :     0.000086
      f+3     :     0.000010
      f-3     :     0.000009
  5 C s       :     3.034608  s :     3.034608
      pz      :     0.819209  p :     2.585970
      px      :     0.878474
      py      :     0.888287
      dz2     :     0.049792  d :     0.204231
      dxz     :     0.054487
      dyz     :     0.050675
      dx2y2   :     0.024230
      dxy     :     0.025047
      f0      :     0.003237  f :     0.022591
      f+1     :     0.007295
      f-1     :     0.004186
      f+2     :     0.002487
      f-2     :     0.001987
      f+3     :     0.001932
      f-3     :     0.001468
  6 H s       :     0.860138  s :     0.860138
      pz      :     0.006922  p :     0.021182
      px      :     0.007342
      py      :     0.006917
  7 H s       :     0.837148  s :     0.837148
      pz      :     0.005877  p :     0.021581
      px      :     0.007133
      py      :     0.008571
  8 H s       :     0.835158  s :     0.835158
      pz      :     0.009031  p :     0.021634
      px      :     0.005336
      py      :     0.007267


                     *******************************
                     * LOEWDIN POPULATION ANALYSIS *
                     *******************************

----------------------
LOEWDIN ATOMIC CHARGES
----------------------
   0 C :   -0.282290
   1 C :   -0.337419
   2 O :   -0.106896
   3 O :    0.076532
   4 O :   -0.100409
   5 C :   -0.667600
   6 H :    0.127850
   7 H :    0.144327
   8 H :    0.145906

-------------------------------
LOEWDIN REDUCED ORBITAL CHARGES
-------------------------------
  0 C s       :     2.838703  s :     2.838703
      pz      :     1.079973  p :     3.196537
      px      :     1.052124
      py      :     1.064440
      dz2     :     0.027236  d :     0.223492
      dxz     :     0.059208
      dyz     :     0.051714
      dx2y2   :     0.023335
      dxy     :     0.061998
      f0      :     0.003554  f :     0.023558
      f+1     :     0.004984
      f-1     :     0.002229
      f+2     :     0.002641
      f-2     :     0.004091
      f+3     :     0.003443
      f-3     :     0.002616
  1 C s       :     2.805806  s :     2.805806
      pz      :     0.965172  p :     2.698905
      px      :     0.925380
      py      :     0.808353
      dz2     :     0.186275  d :     0.729843
      dxz     :     0.230924
      dyz     :     0.172283
      dx2y2   :     0.068716
      dxy     :     0.071646
      f0      :     0.020169  f :     0.102864
      f+1     :     0.031836
      f-1     :     0.023640
      f+2     :     0.009578
      f-2     :     0.006959
      f+3     :     0.004890
      f-3     :     0.005792
  2 O s       :     3.446782  s :     3.446782
      pz      :     1.622452  p :     4.596830
      px      :     1.480979
      py      :     1.493398
      dz2     :     0.010430  d :     0.058326
      dxz     :     0.016841
      dyz     :     0.007481
      dx2y2   :     0.010462
      dxy     :     0.013112
      f0      :     0.000541  f :     0.004959
      f+1     :     0.001072
      f-1     :     0.000310
      f+2     :     0.000821
      f-2     :     0.001055
      f+3     :     0.000475
      f-3     :     0.000684
  3 O s       :     3.416907  s :     3.416907
      pz      :     1.484367  p :     4.435365
      px      :     1.542463
      py      :     1.408535
      dz2     :     0.025790  d :     0.065561
      dxz     :     0.019767
      dyz     :     0.016773
      dx2y2   :     0.001932
      dxy     :     0.001297
      f0      :     0.001848  f :     0.005635
      f+1     :     0.001667
      f-1     :     0.001466
      f+2     :     0.000379
      f-2     :     0.000229
      f+3     :     0.000021
      f-3     :     0.000025
  4 O s       :     3.446459  s :     3.446459
      pz      :     1.484255  p :     4.590196
      px      :     1.590553
      py      :     1.515388
      dz2     :     0.026202  d :     0.058790
      dxz     :     0.015711
      dyz     :     0.014500
      dx2y2   :     0.001228
      dxy     :     0.001150
      f0      :     0.001852  f :     0.004964
      f+1     :     0.001427
      f-1     :     0.001192
      f+2     :     0.000260
      f-2     :     0.000207
      f+3     :     0.000012
      f-3     :     0.000014
  5 C s       :     2.793369  s :     2.793369
      pz      :     0.972889  p :     2.769167
      px      :     0.924053
      py      :     0.872225
      dz2     :     0.258472  d :     0.960786
      dxz     :     0.276719
      dyz     :     0.205626
      dx2y2   :     0.094237
      dxy     :     0.125733
      f0      :     0.021854  f :     0.144277
      f+1     :     0.044008
      f-1     :     0.026941
      f+2     :     0.016382
      f-2     :     0.012478
      f+3     :     0.011437
      f-3     :     0.011176
  6 H s       :     0.810371  s :     0.810371
      pz      :     0.021790  p :     0.061780
      px      :     0.020056
      py      :     0.019934
  7 H s       :     0.792787  s :     0.792787
      pz      :     0.016921  p :     0.062886
      px      :     0.019218
      py      :     0.026747
  8 H s       :     0.791136  s :     0.791136
      pz      :     0.026163  p :     0.062958
      px      :     0.016134
      py      :     0.020661


                      *****************************
                      * MAYER POPULATION ANALYSIS *
                      *****************************

  NA   - Mulliken gross atomic population
  ZA   - Total nuclear charge
  QA   - Mulliken gross atomic charge
  VA   - Mayer's total valence
  BVA  - Mayer's bonded valence
  FA   - Mayer's free valence

  ATOM       NA         ZA         QA         VA         BVA        FA
  0 C      6.3316     6.0000    -0.3316     3.7638     3.7638     0.0000
  1 C      5.8663     6.0000     0.1337     3.8781     3.8781    -0.0000
  2 O      8.5134     8.0000    -0.5134     1.9442     1.9442    -0.0000
  3 O      8.3428     8.0000    -0.3428     2.1138     2.1138    -0.0000
  4 O      8.5017     8.0000    -0.5017     1.9260     1.9260    -0.0000
  5 C      5.8474     6.0000     0.1526     4.5536     4.5536    -0.0000
  6 H      0.8813     1.0000     0.1187     0.9958     0.9958     0.0000
  7 H      0.8587     1.0000     0.1413     0.9848     0.9848    -0.0000
  8 H      0.8568     1.0000     0.1432     0.9834     0.9834    -0.0000

  Mayer bond orders larger than 0.100000
B(  0-C ,  1-C ) :   0.9837 B(  0-C ,  6-H ) :   0.9540 B(  0-C ,  7-H ) :   0.9303 
B(  0-C ,  8-H ) :   0.9269 B(  1-C ,  3-O ) :   2.0431 B(  1-C ,  5-C ) :   0.8902 
B(  2-O ,  5-C ) :   1.8717 B(  4-O ,  5-C ) :   1.8180 

-------
TIMINGS
-------

Total SCF time: 0 days 0 hours 0 min 27 sec 

Total time                  ....      27.773 sec
Sum of individual times     ....      25.675 sec  ( 92.4%)

Fock matrix formation       ....      23.857 sec  ( 85.9%)
  Split-RI-J                ....       3.634 sec  ( 15.2% of F)
  XC integration            ....      12.404 sec  ( 52.0% of F)
    Basis function eval.    ....       3.619 sec  ( 29.2% of XC)
    Density eval.           ....       2.551 sec  ( 20.6% of XC)
    XC-Functional eval.     ....       0.647 sec  (  5.2% of XC)
    XC-Potential eval.      ....       3.288 sec  ( 26.5% of XC)
Diagonalization             ....       0.046 sec  (  0.2%)
Density matrix formation    ....       0.006 sec  (  0.0%)
Population analysis         ....       0.032 sec  (  0.1%)
Initial guess               ....       0.406 sec  (  1.5%)
Orbital Transformation      ....       0.000 sec  (  0.0%)
Orbital Orthonormalization  ....       0.000 sec  (  0.0%)
DIIS solution               ....       0.161 sec  (  0.6%)
SOSCF solution              ....       0.349 sec  (  1.3%)
Grid generation             ....       0.818 sec  (  2.9%)

Maximum memory used throughout the entire SCF-calculation: 67.6 MB

-------------------------   --------------------
FINAL SINGLE POINT ENERGY      -341.727217285402
-------------------------   --------------------

------------------------------------------------------------------------------
                         ORCA SCF GRADIENT CALCULATION
------------------------------------------------------------------------------

Gradient of the Kohn-Sham DFT energy:
Kohn-Sham wavefunction type      ... RKS
Hartree-Fock exchange scaling    ...    0.000
Number of operators              ...    1
Number of atoms                  ...    9
Basis set dimensions             ...  204
Integral neglect threshold       ... 2.5e-11
Integral primitive cutoff        ... 2.5e-12
SHARK Integral package           ... ON

Nuc. rep. gradient       (SHARK) ... done (  0.0 sec)
HCore & Overlap gradient (SHARK) ... done (  0.1 sec)
RI-J gradient            (SHARK) ... done (  1.2 sec)
Exchange-correlation gradient    ... done

------------------
CARTESIAN GRADIENT
------------------

   1   C   :   -0.002218774   -0.002527127   -0.010308298
   2   C   :    0.003495326   -0.004392862   -0.017498564
   3   O   :   -0.010116563   -0.006824492    0.003214344
   4   O   :   -0.006566531   -0.002660184    0.005050684
   5   O   :    0.000960314   -0.001675264   -0.005890919
   6   C   :    0.015503547    0.017527268    0.015598164
   7   H   :   -0.001159566   -0.002224384   -0.002336833
   8   H   :   -0.000137906    0.001864382    0.006036959
   9   H   :    0.000240155    0.000912663    0.006134464

Difference to translation invariance:
           :    0.0000000000   -0.0000000000   -0.0000000000

Difference to rotation invariance:
           :   -0.0005366555    0.0003746188    0.0000053412

Norm of the cartesian gradient     ...    0.0401217559
RMS gradient                       ...    0.0077214355
MAX gradient                       ...    0.0175272678

-------
TIMINGS
-------

Total SCF gradient time            ...        6.784 sec

One electron gradient       ....       0.146 sec  (  2.2%)
RI-J Coulomb gradient       ....       1.201 sec  ( 17.7%)
XC gradient                 ....       4.335 sec  ( 63.9%)
CPCM gradient               ....       0.296 sec  (  4.4%)
   A-Matrix (El+Nuc)        ....       0.021 sec  (  0.3%)
   Potential                ....       0.276 sec  (  4.1%)

Maximum memory used throughout the entire SCFGRAD-calculation: 65.4 MB
------------------------------------------------------------------------------
                         ORCA GEOMETRY RELAXATION STEP
------------------------------------------------------------------------------

Reading the OPT-File                    .... done
Getting information on internals        .... done
Copying old internal coords+grads       .... done
Making the new internal coordinates     .... (new redundants).... done
Validating the new internal coordinates .... (new redundants).... done
Calculating the B-matrix                .... done
Calculating the G,G- and P matrices     .... done
Transforming gradient to internals      .... done
Projecting the internal gradient        .... done
Number of atoms                         ....   9
Number of internal coordinates          ....  30
Current Energy                          ....  -341.727217285 Eh
Current gradient norm                   ....     0.040121756 Eh/bohr
Maximum allowed component of the step   ....  0.300
Current trust radius                    ....  0.300
Evaluating the initial hessian          ....  (Almloef) done
Projecting the Hessian                  .... done
Forming the augmented Hessian           .... done
Diagonalizing the augmented Hessian     .... done
Last element of RFO vector              ....  0.994885097
Lowest eigenvalues of augmented Hessian:
 -0.001813997  0.009527120  0.009580397  0.011594335  0.012858310
Length of the computed step             ....  0.101532416
The final length of the internal step   ....  0.101532416
Converting the step to cartesian space:
 Initial RMS(Int)=    0.0185371981
Transforming coordinates:
 Iter   0:  RMS(Cart)=    0.0195178381 RMS(Int)=    0.0184974007
 Iter   1:  RMS(Cart)=    0.0003476650 RMS(Int)=    0.0003201990
 Iter   2:  RMS(Cart)=    0.0000076414 RMS(Int)=    0.0000056742
 Iter   3:  RMS(Cart)=    0.0000002006 RMS(Int)=    0.0000002221
 Iter   4:  RMS(Cart)=    0.0000000082 RMS(Int)=    0.0000000060
done
Storing new coordinates                 .... done

                                .--------------------.
          ----------------------|Geometry convergence|-------------------------
          Item                value                   Tolerance       Converged
          ---------------------------------------------------------------------
          RMS gradient        0.0049592400            0.0001000000      NO
          MAX gradient        0.0156242309            0.0003000000      NO
          RMS step            0.0185371981            0.0020000000      NO
          MAX step            0.0432138340            0.0040000000      NO
          ........................................................
          Max(Bonds)      0.0222      Max(Angles)    1.53
          Max(Dihed)        2.48      Max(Improp)    0.00
          ---------------------------------------------------------------------

The optimization has not yet converged - more geometry cycles are needed


    ---------------------------------------------------------------------------
                         Redundant Internal Coordinates
                            (Angstroem and degrees)

        Definition                    Value    dE/dq     Step     New-Value
    ----------------------------------------------------------------------------
     1. B(C   1,C   0)                1.5002 -0.003036  0.0038    1.5040   
     2. B(O   3,C   1)                1.2325  0.005352 -0.0028    1.2296   
     3. B(C   5,C   1)                1.5324 -0.015624  0.0222    1.5547   
     4. B(C   5,O   4)                1.2740  0.006165 -0.0038    1.2702   
     5. B(C   5,O   2)                1.2706  0.012006 -0.0073    1.2633   
     6. B(H   6,C   0)                1.0937 -0.003293  0.0049    1.0985   
     7. B(H   7,C   0)                1.0929 -0.003720  0.0055    1.0984   
     8. B(H   8,C   0)                1.0927 -0.004087  0.0060    1.0988   
     9. A(H   6,C   0,H   7)          108.51 -0.001596    0.72    109.23   
    10. A(C   1,C   0,H   7)          109.91 -0.001185    0.10    110.01   
    11. A(H   7,C   0,H   8)          110.33  0.004613   -1.53    108.80   
    12. A(C   1,C   0,H   8)          109.79 -0.000865   -0.02    109.77   
    13. A(H   6,C   0,H   8)          108.79 -0.000966    0.46    109.25   
    14. A(C   1,C   0,H   6)          109.49 -0.000026    0.30    109.79   
    15. A(O   3,C   1,C   5)          118.88 -0.009092    1.22    120.10   
    16. A(C   0,C   1,O   3)          122.89  0.006927   -0.89    121.99   
    17. A(C   0,C   1,C   5)          118.23  0.002164   -0.32    117.91   
    18. A(O   2,C   5,O   4)          126.68 -0.003612    0.45    127.13   
    19. A(C   1,C   5,O   4)          114.97 -0.002071    0.31    115.28   
    20. A(C   1,C   5,O   2)          118.35  0.005681   -0.75    117.60   
    21. D(O   3,C   1,C   0,H   7)    122.85 -0.002230    0.50    123.35   
    22. D(C   5,C   1,C   0,H   6)   -176.77  0.000356   -0.31   -177.08   
    23. D(O   3,C   1,C   0,H   6)      3.75  0.000459   -0.62      3.13   
    24. D(C   5,C   1,C   0,H   7)    -57.67 -0.002333    0.81    -56.86   
    25. D(C   5,C   1,C   0,H   8)     63.87  0.002081   -1.04     62.82   
    26. D(O   3,C   1,C   0,H   8)   -115.62  0.002184   -1.35   -116.97   
    27. D(O   2,C   5,C   1,C   0)    177.85 -0.000280    1.32    179.17   
    28. D(O   4,C   5,C   1,O   3)    177.54  0.000453   -2.19    175.35   
    29. D(O   4,C   5,C   1,C   0)     -1.97  0.000471   -2.48     -4.44   
    30. D(O   2,C   5,C   1,O   3)     -2.64 -0.000298    1.60     -1.04   
    ----------------------------------------------------------------------------

         *************************************************************
         *                GEOMETRY OPTIMIZATION CYCLE   2            *
         *************************************************************
---------------------------------
CARTESIAN COORDINATES (ANGSTROEM)
---------------------------------
  C     -5.295365   -3.615020    0.501838
  C     -6.456818   -4.172890    1.277605
  O     -8.396723   -5.608499    1.200574
  O     -6.647806   -3.889163    2.458714
  O     -7.202357   -5.288338   -0.700849
  C     -7.432727   -5.131023    0.538314
  H     -4.667718   -3.001127    1.162123
  H     -4.691856   -4.434108    0.087986
  H     -5.665230   -2.994476   -0.326067

----------------------------
CARTESIAN COORDINATES (A.U.)
----------------------------
  NO LB      ZA    FRAG     MASS         X           Y           Z
   0 C     6.0000    0    12.011  -10.006789   -6.831398    0.948337
   1 C     6.0000    0    12.011  -12.201618   -7.885620    2.414324
   2 O     8.0000    0    15.999  -15.867507  -10.598528    2.268756
   3 O     8.0000    0    15.999  -12.562534   -7.349453    4.646296
   4 O     8.0000    0    15.999  -13.610483   -9.993510   -1.324413
   5 C     6.0000    0    12.011  -14.045819   -9.696228    1.017266
   6 H     1.0000    0     1.008   -8.820710   -5.671308    2.196094
   7 H     1.0000    0     1.008   -8.866322   -8.379250    0.166270
   8 H     1.0000    0     1.008  -10.705734   -5.658739   -0.616177

--------------------------------
INTERNAL COORDINATES (ANGSTROEM)
--------------------------------
 C      0   0   0     0.000000000000     0.00000000     0.00000000
 C      1   0   0     1.503997057549     0.00000000     0.00000000
 O      2   1   0     2.414568071059   145.53950373     0.00000000
 O      2   1   3     1.229632424309   121.99243444   179.52197488
 O      3   2   1     2.268131866356    61.29830648   356.61126008
 C      3   2   1     1.263273126604    34.80668967   358.69313332
 H      1   2   3     1.098535424911   109.78403733   183.60572191
 H      1   2   3     1.098363362635   110.00223521   303.82652541
 H      1   2   3     1.098773349578   109.76611441    63.50806741

---------------------------
INTERNAL COORDINATES (A.U.)
---------------------------
 C      0   0   0     0.000000000000     0.00000000     0.00000000
 C      1   0   0     2.842142544991     0.00000000     0.00000000
 O      2   1   0     4.562872386011   145.53950373     0.00000000
 O      2   1   3     2.323668527333   121.99243444   179.52197488
 O      3   2   1     4.286148063032    61.29830648   356.61126008
 C      3   2   1     2.387240241624    34.80668967   358.69313332
 H      1   2   3     2.075931101492   109.78403733   183.60572191
 H      1   2   3     2.075605950913   110.00223521   303.82652541
 H      1   2   3     2.076380713953   109.76611441    63.50806741

------------------------------------------------------------------------------
                   ___                                                        
                  /   \      - P O W E R E D   B Y -                         
                 /     \                                                     
                 |  |  |   _    _      __       _____    __    __             
                 |  |  |  | |  | |    /  \     |  _  \  |  |  /  |          
                  \  \/   | |  | |   /    \    | | | |  |  | /  /          
                 / \  \   | |__| |  /  /\  \   | |_| |  |  |/  /          
                |  |  |   |  __  | /  /__\  \  |    /   |      \           
                |  |  |   | |  | | |   __   |  |    \   |  |\   \          
                \     /   | |  | | |  |  |  |  | |\  \  |  | \   \       
                 \___/    |_|  |_| |__|  |__|  |_| \__\ |__|  \__/        
                                                                              
                      - O R C A' S   B I G   F R I E N D -                    
                                      &                                       
                       - I N T E G R A L  F E E D E R -                       
                                                                              
 v1 FN, 2020, v2 2021                                                         
------------------------------------------------------------------------------


Reading SHARK input file inp.SHARKINP.tmp ... ok
----------------------
SHARK INTEGRAL PACKAGE
----------------------

Number of atoms                             ...      9
Number of basis functions                   ...    204
Number of shells                            ...     78
Maximum angular momentum                    ...      3
Integral batch strategy                     ... SHARK/LIBINT Hybrid
RI-J (if used) integral strategy            ... SPLIT-RIJ (Revised 2003 algorithm where possible)
Printlevel                                  ...      1
Contraction scheme used                     ... SEGMENTED contraction
Coulomb Range Separation                    ... NOT USED
Exchange Range Separation                   ... NOT USED
Finite Nucleus Model                        ... NOT USED
Auxiliary Coulomb fitting basis             ... AVAILABLE
   # of basis functions in Aux-J            ...    327
   # of shells in Aux-J                     ...    105
   Maximum angular momentum in Aux-J        ...      4
Auxiliary J/K fitting basis                 ... NOT available
Auxiliary Correlation fitting basis         ... NOT available
Auxiliary 'external' fitting basis          ... NOT available
Integral threshold                          ...     2.500000e-11
Primitive cut-off                           ...     2.500000e-12
Primitive pair pre-selection threshold      ...     2.500000e-12

Calculating pre-screening integrals         ... done (  0.1 sec) Dimension = 78
Organizing shell pair data                  ... done (  0.2 sec)
Shell pair information
Total number of shell pairs                 ...      3081
Shell pairs after pre-screening             ...      2907
Total number of primitive shell pairs       ...      9732
Primitive shell pairs kept                  ...      7099
          la=0 lb=0:    699 shell pairs
          la=1 lb=0:    786 shell pairs
          la=1 lb=1:    227 shell pairs
          la=2 lb=0:    439 shell pairs
          la=2 lb=1:    245 shell pairs
          la=2 lb=2:     76 shell pairs
          la=3 lb=0:    219 shell pairs
          la=3 lb=1:    125 shell pairs
          la=3 lb=2:     70 shell pairs
          la=3 lb=3:     21 shell pairs

Calculating one electron integrals          ... done (  0.0 sec)
Calculating RI/J V-Matrix + Cholesky decomp.... done (  0.0 sec)
Calculating Nuclear repulsion               ... done (  0.0 sec) ENN=    216.578362829416 Eh

SHARK setup successfully completed in   0.7 seconds

Maximum memory used throughout the entire GTOINT-calculation: 52.7 MB

Diagonalization of the overlap matrix:
Smallest eigenvalue                        ... 3.471e-04
Time for diagonalization                   ...    0.006 sec
Threshold for overlap eigenvalues          ... 1.000e-08
Number of eigenvalues below threshold      ... 0
Time for construction of square roots      ...    0.226 sec
Total time needed                          ...    0.232 sec

-------------------
DFT GRID GENERATION
-------------------

General Integration Accuracy     IntAcc      ... 4.388
Radial Grid Type                 RadialGrid  ... OptM3 with GC (2021)
Angular Grid (max. ang.)         AngularGrid ... 4 (Lebedev-302)
Angular grid pruning method      GridPruning ... 4 (adaptive)
Weight generation scheme         WeightScheme... Becke
Basis function cutoff            BFCut       ... 1.0000e-11
Integration weight cutoff        WCut        ... 1.0000e-14
Angular grids for H and He will be reduced by one unit
Partially contracted basis set               ... off
Rotationally invariant grid construction     ... off

Total number of grid points                  ...    46307
Total number of batches                      ...      728
Average number of points per batch           ...       63
Average number of grid points per atom       ...     5145
Time for grid setup =    0.538 sec


--------------------
CPCM SOLVATION MODEL
--------------------
CPCM parameters:
  Epsilon                                         ...      80.4000
  Refrac                                          ...       1.3300
  Rsolv                                           ...       1.3000
  Surface type                                    ... GAUSSIAN VDW
  Epsilon function type                           ...         CPCM
Radii:
 Radius for C  used is    3.8550 Bohr (=   2.0400 Ang.)
 Radius for O  used is    3.4469 Bohr (=   1.8240 Ang.)
 Radius for H  used is    2.4944 Bohr (=   1.3200 Ang.)
Calculating surface                               ...        done! (  0.0s)
GEPOL surface points                              ...          588
GEPOL Volume                                      ...     700.2185
GEPOL Surface-area                                ...     438.0656
Calculating surface distance matrix               ...        done! (  0.0s)
Performing Cholesky decomposition & store         ...        done! (  0.0s)
Overall time for CPCM initialization              ...                 0.0s
--------------
SCF ITERATIONS
--------------
ITER       Energy         Delta-E        Max-DP      RMS-DP      [F,P]     Damp
               ***  Starting incremental Fock matrix formation  ***
  0   -341.7270895303   0.000000000000 0.00370368  0.00009847  0.0108493 0.7000
                      *** Initiating the SOSCF procedure ***
                      *** Re-Reading the Fockian *** 
                      *** Removing any level shift *** 
ITER      Energy       Delta-E        Grad      Rot      Max-DP    RMS-DP
  1   -341.72743971  -0.0003501765  0.001140  0.001140  0.013933  0.000331
               *** Restarting incremental Fock matrix formation ***
  2   -341.72829881  -0.0008591031  0.000987  0.007249  0.006397  0.000132
  3   -341.72823739   0.0000614176  0.002759  0.002742  0.003180  0.000069
  4   -341.72833394  -0.0000965477  0.000508  0.002683  0.003490  0.000057
  5   -341.72832681   0.0000071325  0.000712  0.000948  0.002730  0.000037
  6   -341.72833772  -0.0000109164  0.000210  0.001269  0.000775  0.000022
  7   -341.72833560   0.0000021207  0.000434  0.000637  0.001013  0.000017
  8   -341.72833833  -0.0000027309  0.000102  0.000693  0.000388  0.000011
  9   -341.72833783   0.0000005079  0.000155  0.000329  0.000221  0.000006
 10   -341.72833860  -0.0000007718  0.000010  0.000138  0.000069  0.000002
 11   -341.72833860  -0.0000000018  0.000008  0.000065  0.000027  0.000001
                  ***Gradient check signals convergence***
              ***Rediagonalizing the Fockian in SOSCF/NRSCF***

               *****************************************************
               *                     SUCCESS                       *
               *           SCF CONVERGED AFTER  12 CYCLES          *
               *****************************************************

Total Energy       :         -341.72833860 Eh           -9298.90084 eV
  Last Energy change         ...   -5.0502e-09  Tolerance :   1.0000e-08
  Last MAX-Density change    ...    1.3364e-05  Tolerance :   1.0000e-07
             **** THE GBW FILE WAS UPDATED (inp.gbw) ****
             **** DENSITY inp.scfp WAS UPDATED ****
             **** ENERGY FILE WAS UPDATED (inp.en.tmp) ****
             **** THE GBW FILE WAS UPDATED (inp.gbw) ****
             **** DENSITY inp.scfp WAS UPDATED ****
Total SCF time: 0 days 0 hours 0 min 23 sec 

Maximum memory used throughout the entire SCF-calculation: 67.4 MB

-------------------------   --------------------
FINAL SINGLE POINT ENERGY      -341.728338604757
-------------------------   --------------------

------------------------------------------------------------------------------
                         ORCA SCF GRADIENT CALCULATION
------------------------------------------------------------------------------

Gradient of the Kohn-Sham DFT energy:
Kohn-Sham wavefunction type      ... RKS
Hartree-Fock exchange scaling    ...    0.000
Number of operators              ...    1
Number of atoms                  ...    9
Basis set dimensions             ...  204
Integral neglect threshold       ... 2.5e-11
Integral primitive cutoff        ... 2.5e-12
SHARK Integral package           ... ON

Nuc. rep. gradient       (SHARK) ... done (  0.0 sec)
HCore & Overlap gradient (SHARK) ... done (  0.1 sec)
RI-J gradient            (SHARK) ... done (  1.2 sec)
Exchange-correlation gradient    ... done

------------------
CARTESIAN GRADIENT
------------------

   1   C   :   -0.001882976   -0.002713250   -0.005339019
   2   C   :   -0.000864003   -0.000206805   -0.010438277
   3   O   :   -0.006140421   -0.001095066   -0.001077438
   4   O   :   -0.002157189   -0.000875769    0.003653756
   5   O   :   -0.002243404    0.000448814   -0.004400608
   6   C   :    0.012481660    0.002777534    0.011942945
   7   H   :    0.000584011   -0.000076156   -0.000038529
   8   H   :    0.000958475   -0.000129696    0.003215389
   9   H   :   -0.000736152    0.001870393    0.002481782

Difference to translation invariance:
           :    0.0000000000   -0.0000000000   -0.0000000000

Difference to rotation invariance:
           :   -0.0005042772    0.0003441680   -0.0000983436

Norm of the cartesian gradient     ...    0.0236760801
RMS gradient                       ...    0.0045564637
MAX gradient                       ...    0.0124816603

-------
TIMINGS
-------

Total SCF gradient time            ...        6.214 sec

One electron gradient       ....       0.143 sec  (  2.3%)
RI-J Coulomb gradient       ....       1.151 sec  ( 18.5%)
XC gradient                 ....       4.116 sec  ( 66.2%)
CPCM gradient               ....       0.286 sec  (  4.6%)
   A-Matrix (El+Nuc)        ....       0.020 sec  (  0.3%)
   Potential                ....       0.266 sec  (  4.3%)

Maximum memory used throughout the entire SCFGRAD-calculation: 64.9 MB
------------------------------------------------------------------------------
                         ORCA GEOMETRY RELAXATION STEP
------------------------------------------------------------------------------

Reading the OPT-File                    .... done
Getting information on internals        .... done
Copying old internal coords+grads       .... done
Making the new internal coordinates     .... (new redundants).... done
Validating the new internal coordinates .... (new redundants).... done
Calculating the B-matrix                .... done
Calculating the G,G- and P matrices     .... done
Transforming gradient to internals      .... done
Projecting the internal gradient        .... done
Number of atoms                         ....   9
Number of internal coordinates          ....  30
Current Energy                          ....  -341.728338605 Eh
Current gradient norm                   ....     0.023676080 Eh/bohr
Maximum allowed component of the step   ....  0.300
Current trust radius                    ....  0.300
Updating the Hessian (BFGS)             .... done
Forming the augmented Hessian           .... done
Diagonalizing the augmented Hessian     .... done
Last element of RFO vector              ....  0.901484023
Lowest eigenvalues of augmented Hessian:
 -0.005120387  0.009481367  0.011558446  0.012763390  0.020419946
Length of the computed step             ....  0.480110981
Warning: the length of the step is outside the trust region - taking restricted step instead
The input lambda is                     ....    -0.005120
   iter:   1  x=   -0.011352  g=   22.546638 f(x)=     0.140507
   iter:   2  x=   -0.015924  g=   10.048499 f(x)=     0.045940
   iter:   3  x=   -0.017463  g=    6.246056 f(x)=     0.009614
   iter:   4  x=   -0.017586  g=    5.408154 f(x)=     0.000666
   iter:   5  x=   -0.017587  g=    5.347833 f(x)=     0.000004
   iter:   6  x=   -0.017587  g=    5.347495 f(x)=     0.000000
   iter:   7  x=   -0.017587  g=    5.347495 f(x)=    -0.000000
The output lambda is                    ....    -0.017587 (7 iterations)
The final length of the internal step   ....  0.300000000
Converting the step to cartesian space:
 Initial RMS(Int)=    0.0547722558
Transforming coordinates:
 Iter   0:  RMS(Cart)=    0.0495371178 RMS(Int)=    1.1292192314
 Iter   1:  RMS(Cart)=    0.0041548814 RMS(Int)=    0.0033420844
 Iter   2:  RMS(Cart)=    0.0001295468 RMS(Int)=    0.0001139915
 Iter   3:  RMS(Cart)=    0.0000107351 RMS(Int)=    0.0000089089
 Iter   4:  RMS(Cart)=    0.0000013393 RMS(Int)=    0.0000011402
 Iter   5:  RMS(Cart)=    0.0000001089 RMS(Int)=    0.0000000828
 Iter   6:  RMS(Cart)=    0.0000000102 RMS(Int)=    0.0000000096
done
Storing new coordinates                 .... done

                                .--------------------.
          ----------------------|Geometry convergence|-------------------------
          Item                value                   Tolerance       Converged
          ---------------------------------------------------------------------
[...]
                  /   \      - P O W E R E D   B Y -                         
                 /     \                                                     
                 |  |  |   _    _      __       _____    __    __             
                 |  |  |  | |  | |    /  \     |  _  \  |  |  /  |          
                  \  \/   | |  | |   /    \    | | | |  |  | /  /          
                 / \  \   | |__| |  /  /\  \   | |_| |  |  |/  /          
                |  |  |   |  __  | /  /__\  \  |    /   |      \           
                |  |  |   | |  | | |   __   |  |    \   |  |\   \          
                \     /   | |  | | |  |  |  |  | |\  \  |  | \   \       
                 \___/    |_|  |_| |__|  |__|  |_| \__\ |__|  \__/        
                                                                              
                      - O R C A' S   B I G   F R I E N D -                    
                                      &                                       
                       - I N T E G R A L  F E E D E R -                       
                                                                              
 v1 FN, 2020, v2 2021                                                         
------------------------------------------------------------------------------


Reading SHARK input file inp.SHARKINP.tmp ... ok
----------------------
SHARK INTEGRAL PACKAGE
----------------------

Number of atoms                             ...      9
Number of basis functions                   ...    204
Number of shells                            ...     78
Maximum angular momentum                    ...      3
Integral batch strategy                     ... SHARK/LIBINT Hybrid
RI-J (if used) integral strategy            ... SPLIT-RIJ (Revised 2003 algorithm where possible)
Printlevel                                  ...      1
Contraction scheme used                     ... SEGMENTED contraction
Coulomb Range Separation                    ... NOT USED
Exchange Range Separation                   ... NOT USED
Finite Nucleus Model                        ... NOT USED
Auxiliary Coulomb fitting basis             ... AVAILABLE
   # of basis functions in Aux-J            ...    327
   # of shells in Aux-J                     ...    105
   Maximum angular momentum in Aux-J        ...      4
Auxiliary J/K fitting basis                 ... NOT available
Auxiliary Correlation fitting basis         ... NOT available
Auxiliary 'external' fitting basis          ... NOT available
Integral threshold                          ...     2.500000e-11
Primitive cut-off                           ...     2.500000e-12
Primitive pair pre-selection threshold      ...     2.500000e-12

Calculating pre-screening integrals         ... done (  0.1 sec) Dimension = 78
Organizing shell pair data                  ... done (  0.2 sec)
Shell pair information
Total number of shell pairs                 ...      3081
Shell pairs after pre-screening             ...      2904
Total number of primitive shell pairs       ...      9732
Primitive shell pairs kept                  ...      7085
          la=0 lb=0:    698 shell pairs
          la=1 lb=0:    783 shell pairs
          la=1 lb=1:    227 shell pairs
          la=2 lb=0:    441 shell pairs
          la=2 lb=1:    247 shell pairs
          la=2 lb=2:     75 shell pairs
          la=3 lb=0:    217 shell pairs
          la=3 lb=1:    125 shell pairs
          la=3 lb=2:     70 shell pairs
          la=3 lb=3:     21 shell pairs

Calculating one electron integrals          ... done (  0.0 sec)
Calculating RI/J V-Matrix + Cholesky decomp.... done (  0.1 sec)
Calculating Nuclear repulsion               ... done (  0.0 sec) ENN=    215.690470513545 Eh

SHARK setup successfully completed in   0.8 seconds

Maximum memory used throughout the entire GTOINT-calculation: 52.8 MB

Diagonalization of the overlap matrix:
Smallest eigenvalue                        ... 4.125e-04
Time for diagonalization                   ...    0.006 sec
Threshold for overlap eigenvalues          ... 1.000e-08
Number of eigenvalues below threshold      ... 0
Time for construction of square roots      ...    0.125 sec
Total time needed                          ...    0.132 sec

-------------------
DFT GRID GENERATION
-------------------

General Integration Accuracy     IntAcc      ... 4.388
Radial Grid Type                 RadialGrid  ... OptM3 with GC (2021)
Angular Grid (max. ang.)         AngularGrid ... 4 (Lebedev-302)
Angular grid pruning method      GridPruning ... 4 (adaptive)
Weight generation scheme         WeightScheme... Becke
Basis function cutoff            BFCut       ... 1.0000e-11
Integration weight cutoff        WCut        ... 1.0000e-14
Angular grids for H and He will be reduced by one unit
Partially contracted basis set               ... off
Rotationally invariant grid construction     ... off

Total number of grid points                  ...    46285
Total number of batches                      ...      729
Average number of points per batch           ...       63
Average number of grid points per atom       ...     5143
Time for grid setup =    0.609 sec


--------------------
CPCM SOLVATION MODEL
--------------------
CPCM parameters:
  Epsilon                                         ...      80.4000
  Refrac                                          ...       1.3300
  Rsolv                                           ...       1.3000
  Surface type                                    ... GAUSSIAN VDW
  Epsilon function type                           ...         CPCM
Radii:
 Radius for C  used is    3.8550 Bohr (=   2.0400 Ang.)
 Radius for O  used is    3.4469 Bohr (=   1.8240 Ang.)
 Radius for H  used is    2.4944 Bohr (=   1.3200 Ang.)
Calculating surface                               ...        done! (  0.0s)
GEPOL surface points                              ...          584
GEPOL Volume                                      ...     719.0809
GEPOL Surface-area                                ...     440.1066
Calculating surface distance matrix               ...        done! (  0.0s)
Performing Cholesky decomposition & store         ...        done! (  0.0s)
Overall time for CPCM initialization              ...                 0.0s
--------------
SCF ITERATIONS
--------------
ITER       Energy         Delta-E        Max-DP      RMS-DP      [F,P]     Damp
               ***  Starting incremental Fock matrix formation  ***
                      *** Initiating the SOSCF procedure ***
                      *** Re-Reading the Fockian *** 
                      *** Removing any level shift *** 
ITER      Energy       Delta-E        Grad      Rot      Max-DP    RMS-DP
  0   -341.72939683 -341.7293968342  0.000248  0.000248  0.000315  0.000011
               *** Restarting incremental Fock matrix formation ***
  1   -341.72939988  -0.0000030482  0.000067  0.000192  0.000181  0.000006
  2   -341.72940012  -0.0000002351  0.000041  0.000149  0.000102  0.000003
  3   -341.72940002   0.0000000930  0.000116  0.000110  0.000074  0.000002
  4   -341.72940013  -0.0000001067  0.000004  0.000011  0.000028  0.000000
  5   -341.72940013   0.0000000009  0.000010  0.000009  0.000024  0.000000
                  ***Gradient check signals convergence***
              ***Rediagonalizing the Fockian in SOSCF/NRSCF***

               *****************************************************
               *                     SUCCESS                       *
               *           SCF CONVERGED AFTER   6 CYCLES          *
               *****************************************************

Total Energy       :         -341.72940013 Eh           -9298.92973 eV
  Last Energy change         ...   -1.0503e-09  Tolerance :   1.0000e-08
  Last MAX-Density change    ...    6.3670e-06  Tolerance :   1.0000e-07
             **** THE GBW FILE WAS UPDATED (inp.gbw) ****
             **** DENSITY inp.scfp WAS UPDATED ****
             **** ENERGY FILE WAS UPDATED (inp.en.tmp) ****
             **** THE GBW FILE WAS UPDATED (inp.gbw) ****
             **** DENSITY inp.scfp WAS UPDATED ****
Total SCF time: 0 days 0 hours 0 min 13 sec 

Maximum memory used throughout the entire SCF-calculation: 67.5 MB

-------------------------   --------------------
FINAL SINGLE POINT ENERGY      -341.729400131330
-------------------------   --------------------

------------------------------------------------------------------------------
                         ORCA SCF GRADIENT CALCULATION
------------------------------------------------------------------------------

Gradient of the Kohn-Sham DFT energy:
Kohn-Sham wavefunction type      ... RKS
Hartree-Fock exchange scaling    ...    0.000
Number of operators              ...    1
Number of atoms                  ...    9
Basis set dimensions             ...  204
Integral neglect threshold       ... 2.5e-11
Integral primitive cutoff        ... 2.5e-12
SHARK Integral package           ... ON

Nuc. rep. gradient       (SHARK) ... done (  0.0 sec)
HCore & Overlap gradient (SHARK) ... done (  0.2 sec)
RI-J gradient            (SHARK) ... done (  1.2 sec)
Exchange-correlation gradient    ... done

------------------
CARTESIAN GRADIENT
------------------

   1   C   :   -0.003875287    0.002969381    0.005504925
   2   C   :   -0.000158425    0.005975451   -0.002891138
   3   O   :   -0.000142956    0.001287237   -0.008938764
   4   O   :    0.003471790   -0.000547059    0.001520436
   5   O   :   -0.003557411   -0.005902636   -0.005261474
   6   C   :    0.000955639   -0.000504920    0.011430315
   7   H   :    0.002712624   -0.000592379    0.000400712
   8   H   :    0.002021617   -0.002998834   -0.000569684
   9   H   :   -0.001427591    0.000313757   -0.001195329

Difference to translation invariance:
           :   -0.0000000000   -0.0000000000    0.0000000000

Difference to rotation invariance:
           :    0.0006760776   -0.0001385990   -0.0007268508

Norm of the cartesian gradient     ...    0.0206473133
RMS gradient                       ...    0.0039735773
MAX gradient                       ...    0.0114303154

-------
TIMINGS
-------

Total SCF gradient time            ...        6.770 sec

One electron gradient       ....       0.153 sec  (  2.3%)
RI-J Coulomb gradient       ....       1.227 sec  ( 18.1%)
XC gradient                 ....       4.456 sec  ( 65.8%)
CPCM gradient               ....       0.300 sec  (  4.4%)
   A-Matrix (El+Nuc)        ....       0.021 sec  (  0.3%)
   Potential                ....       0.279 sec  (  4.1%)

Maximum memory used throughout the entire SCFGRAD-calculation: 65.7 MB
------------------------------------------------------------------------------
                         ORCA GEOMETRY RELAXATION STEP
------------------------------------------------------------------------------

Reading the OPT-File                    .... done
Getting information on internals        .... done
Copying old internal coords+grads       .... done
Making the new internal coordinates     .... (new redundants).... done
Validating the new internal coordinates .... (new redundants).... done
Calculating the B-matrix                .... done
Calculating the G,G- and P matrices     .... done
Transforming gradient to internals      .... done
Projecting the internal gradient        .... done
Number of atoms                         ....   9
Number of internal coordinates          ....  30
Current Energy                          ....  -341.729400131 Eh
Current gradient norm                   ....     0.020647313 Eh/bohr
Maximum allowed component of the step   ....  0.300
Current trust radius                    ....  0.300
Resetting Hessian after 50 BFGS Update Steps....
Build internal Hessian                  .... (Almloef) done
Updating Hessian with the last 5 steps  .... done
Forming the augmented Hessian           .... done
Diagonalizing the augmented Hessian     .... done
Last element of RFO vector              ....  0.947163673
Lowest eigenvalues of augmented Hessian:
 -0.001866193  0.000627469  0.007550492  0.007997569  0.012686184
Length of the computed step             ....  0.338643316
Warning: the length of the step is outside the trust region - taking restricted step instead
The input lambda is                     ....    -0.001866
   iter:   1  x=   -0.002707  g=   29.342986 f(x)=     0.024679
   iter:   2  x=   -0.002956  g=   19.299620 f(x)=     0.004803
   iter:   3  x=   -0.002969  g=   17.500036 f(x)=     0.000231
   iter:   4  x=   -0.002969  g=   17.413395 f(x)=     0.000001
   iter:   5  x=   -0.002969  g=   17.413180 f(x)=     0.000000
   iter:   6  x=   -0.002969  g=   17.413180 f(x)=     0.000000
The output lambda is                    ....    -0.002969 (6 iterations)
The final length of the internal step   ....  0.300000000
Converting the step to cartesian space:
 Initial RMS(Int)=    0.0547722558
Transforming coordinates:
 Iter   0:  RMS(Cart)=    0.0638035859 RMS(Int)=    0.0544301098
 Iter   1:  RMS(Cart)=    0.0043645623 RMS(Int)=    0.0039297967
 Iter   2:  RMS(Cart)=    0.0002878550 RMS(Int)=    0.0002594316
 Iter   3:  RMS(Cart)=    0.0000365322 RMS(Int)=    0.0000357372
 Iter   4:  RMS(Cart)=    0.0000034880 RMS(Int)=    0.0000035852
 Iter   5:  RMS(Cart)=    0.0000004476 RMS(Int)=    0.0000003979
 Iter   6:  RMS(Cart)=    0.0000000443 RMS(Int)=    0.0000000496
done
Storing new coordinates                 .... done

                                .--------------------.
          ----------------------|Geometry convergence|-------------------------
          Item                value                   Tolerance       Converged
          ---------------------------------------------------------------------
          Energy change      -0.0000000164            0.0000050000      YES
          RMS gradient        0.0034175736            0.0001000000      NO
          MAX gradient        0.0110061939            0.0003000000      NO
          RMS step            0.0547722558            0.0020000000      NO
          MAX step            0.2124000725            0.0040000000      NO
          ........................................................
          Max(Bonds)      0.0105      Max(Angles)    1.31
          Max(Dihed)       12.17      Max(Improp)    0.00
          ---------------------------------------------------------------------

The optimization has not yet converged - more geometry cycles are needed


    ---------------------------------------------------------------------------
                         Redundant Internal Coordinates
                            (Angstroem and degrees)

        Definition                    Value    dE/dq     Step     New-Value
    ----------------------------------------------------------------------------
     1. B(C   1,C   0)                1.5022 -0.002505  0.0034    1.5057   
     2. B(O   3,C   1)                1.2288  0.000354 -0.0001    1.2288   
     3. B(C   5,C   1)                1.5728  0.006308 -0.0105    1.5623   
     4. B(C   5,O   4)                1.2700  0.004905 -0.0028    1.2672   
     5. B(C   5,O   2)                1.2541 -0.005877  0.0033    1.2573   
     6. B(H   6,C   0)                1.0994  0.001623 -0.0024    1.0970   
     7. B(H   7,C   0)                1.1074  0.003562 -0.0049    1.1025   
     8. B(H   8,C   0)                1.1033  0.001481 -0.0022    1.1010   
     9. A(H   6,C   0,H   7)          109.43 -0.001550    0.47    109.90   
    10. A(C   1,C   0,H   7)          109.86 -0.000637   -0.08    109.78   
    11. A(H   7,C   0,H   8)          106.09  0.000606   -0.13    105.95   
    12. A(C   1,C   0,H   8)          109.03 -0.001670    0.47    109.50   
    13. A(H   6,C   0,H   8)          110.50  0.000632   -0.34    110.17   
    14. A(C   1,C   0,H   6)          111.77  0.002505   -0.38    111.39   
    15. A(O   3,C   1,C   5)          121.74  0.002636   -0.25    121.49   
    16. A(C   0,C   1,O   3)          121.46 -0.003362    0.43    121.89   
    17. A(C   0,C   1,C   5)          116.77  0.000671    0.04    116.81   
    18. A(O   2,C   5,O   4)          126.52 -0.011006    1.31    127.83   
    19. A(C   1,C   5,O   4)          115.94  0.005889   -0.63    115.32   
    20. A(C   1,C   5,O   2)          117.53  0.005093   -0.54    116.99   
    21. D(O   3,C   1,C   0,H   7)    133.07 -0.000837    2.20    135.27   
    22. D(C   5,C   1,C   0,H   6)   -166.71  0.001706   -5.10   -171.81   
    23. D(O   3,C   1,C   0,H   6)     11.39 -0.000111    1.91     13.30   
    24. D(C   5,C   1,C   0,H   7)    -45.03  0.000980   -4.82    -49.85   
    25. D(C   5,C   1,C   0,H   8)     70.83  0.000403   -4.75     66.08   
    26. D(O   3,C   1,C   0,H   8)   -111.07 -0.001414    2.26   -108.81   
    27. D(O   2,C   5,C   1,C   0)    139.74 -0.001300    5.18    144.91   
    28. D(O   4,C   5,C   1,O   3)    142.48  0.002428  -12.17    130.31   
    29. D(O   4,C   5,C   1,C   0)    -39.43  0.000482   -5.12    -44.55   
    30. D(O   2,C   5,C   1,O   3)    -38.36  0.000645   -1.87    -40.23   
    ----------------------------------------------------------------------------




    ----------------------------------------------------------------------------
                                  WARNING !!!
       The optimization did not converge but reached the maximum number of
       optimization cycles.
       Please check your results very carefully.
    ----------------------------------------------------------------------------



                            ***************************************
                            *     ORCA property calculations      *
                            ***************************************

                                    ---------------------
                                    Active property flags
                                    ---------------------
   (+) Dipole Moment


------------------------------------------------------------------------------
                       ORCA ELECTRIC PROPERTIES CALCULATION
------------------------------------------------------------------------------

Dipole Moment Calculation                       ... on
Quadrupole Moment Calculation                   ... off
Polarizability Calculation                      ... off
GBWName                                         ... inp.gbw
Electron density                                ... inp.scfp
The origin for moment calculation is the CENTER OF MASS  = (-13.118347, -8.640592  1.619379)

-------------
DIPOLE MOMENT
-------------
                                X             Y             Z
Electronic contribution:     -4.09399      -1.10729       1.43320
Nuclear contribution   :      5.59047       2.81024      -1.44791
                        -----------------------------------------
Total Dipole Moment    :      1.49648       1.70296      -0.01471
                        -----------------------------------------
Magnitude (a.u.)       :      2.26710
Magnitude (Debye)      :      5.76251



--------------------
Rotational spectrum 
--------------------
 
Rotational constants in cm-1:     0.188402     0.110566     0.077909 
Rotational constants in MHz :  5648.163036  3314.678311  2335.648630 

 Dipole components along the rotational axes: 
x,y,z [a.u.] :     2.115562    -0.767440     0.274172 
x,y,z [Debye]:     5.377332    -1.950678     0.696889 

 

Timings for individual modules:

Sum of individual times         ...     1243.809 sec (=  20.730 min)
GTO integral calculation        ...       45.800 sec (=   0.763 min)   3.7 %
SCF iterations                  ...      852.139 sec (=  14.202 min)  68.5 %
SCF Gradient evaluation         ...      339.735 sec (=   5.662 min)  27.3 %
Geometry relaxation             ...        6.136 sec (=   0.102 min)   0.5 %
                             ****ORCA TERMINATED NORMALLY****
TOTAL RUN TIME: 0 days 0 hours 21 minutes 6 seconds 252 msec
