 Entering Gaussian System
 *********************************************
 Gaussian 98:
 frequency output generated by the xtb code
 *********************************************
                         Standard orientation:
 --------------------------------------------------------------------
  Center     Atomic     Atomic              Coordinates (Angstroms)
  Number     Number      Type              X           Y           Z
 --------------------------------------------------------------------
    1          6             0       -3.130274    2.379410   -0.000003
    2          8             0       -3.335193    3.592055    0.000007
    3          8             0       -2.087545    1.727323   -0.000002
    4          1             0       -4.119585    1.717484   -0.000015
 --------------------------------------------------------------------
     1 basis functions        1 primitive gaussians
     1 alpha electrons        1 beta electrons
 
 Harmonic frequencies (cm**-1), IR intensities (km*mol⁻¹),
 Raman scattering activities (A**4/amu), Raman depolarization ratios,
 reduced masses (AMU), force constants (mDyne/A) and normal coordinates:
                      1                      2                      3
                        a                      a                      a 
 Frequencies --   704.3175               948.3361              1273.7596
 Red. masses --    14.4061                 7.1605                14.2767
 Frc consts  --     0.0000                 0.0000                 0.0000
 IR Inten    --    89.3567                96.1809               460.4751
 Raman Activ --     0.0000                 0.0000                 0.0000
 Depolar     --     0.0000                 0.0000                 0.0000
 Atom AN      X      Y      Z        X      Y      Z        X      Y      Z
   1   6    -0.49  -0.33  -0.00    -0.00  -0.00   0.67     0.51   0.34   0.00
   2   8     0.50  -0.26   0.00     0.00   0.00  -0.20     0.07  -0.55  -0.00
   3   8    -0.05   0.56   0.00     0.00   0.00  -0.20    -0.48   0.27  -0.00
   4   1    -0.09  -0.06  -0.00     0.00   0.00  -0.69    -0.10  -0.07  -0.00
                      4                      5                      6
                        a                      a                      a 
 Frequencies --  1465.1367              1830.6152              1970.4395
 Red. masses --     2.2781                13.0378                 1.7352
 Frc consts  --     0.0000                 0.0000                 0.0000
 IR Inten    --    24.9434               846.6799               801.2947
 Raman Activ --     0.0000                 0.0000                 0.0000
 Depolar     --     0.0000                 0.0000                 0.0000
 Atom AN      X      Y      Z        X      Y      Z        X      Y      Z
   1   6     0.02  -0.03  -0.00    -0.47   0.70   0.00     0.06   0.04   0.00
   2   8    -0.09  -0.19  -0.00     0.08  -0.37  -0.00     0.01   0.15   0.00
   3   8     0.20   0.01   0.00     0.31  -0.21   0.00     0.14  -0.05   0.00
   4   1    -0.53   0.80   0.00     0.06  -0.09  -0.00    -0.81  -0.54  -0.00
