      -----------------------------------------------------------      
     |                   =====================                   |     
     |                           x T B                           |     
     |                   =====================                   |     
     |                         S. Grimme                         |     
     |          Mulliken Center for Theoretical Chemistry        |     
     |                    University of Bonn                     |     
      -----------------------------------------------------------      

   * xtb version 6.7.1 (edcfbbe) compiled by 'albert@albert-system' on 2024-07-22

   xtb is free software: you can redistribute it and/or modify it under
   the terms of the GNU Lesser General Public License as published by
   the Free Software Foundation, either version 3 of the License, or
   (at your option) any later version.
   
   xtb is distributed in the hope that it will be useful,
   but WITHOUT ANY WARRANTY; without even the implied warranty of
   MERCHANTABILITY or FITNESS FOR A PARTICULAR PURPOSE.  See the
   GNU Lesser General Public License for more details.
   
   Cite this work as:
   * C. Bannwarth, E. Caldeweyher, S. Ehlert, A. Hansen, P. Pracht,
     J. Seibert, S. Spicher, S. Grimme, WIREs Comput. Mol. Sci., 2020, 11,
     e01493. DOI: 10.1002/wcms.1493
   
   for GFN2-xTB:
   * C. Bannwarth, S. Ehlert and S. Grimme., J. Chem. Theory Comput., 2019,
     15, 1652-1671. DOI: 10.1021/acs.jctc.8b01176
   for GFN1-xTB:
   * S. Grimme, C. Bannwarth, P. Shushkov, J. Chem. Theory Comput., 2017,
     13, 1989-2009. DOI: 10.1021/acs.jctc.7b00118
   for GFN0-xTB:
   * P. Pracht, E. Caldeweyher, S. Ehlert, S. Grimme, ChemRxiv, 2019, preprint.
     DOI: 10.26434/chemrxiv.8326202.v1
   for GFN-FF:
   * S. Spicher and S. Grimme, Angew. Chem. Int. Ed., 2020, 59, 15665-15673.
     DOI: 10.1002/anie.202004239
   
   for ALPB and GBSA implicit solvation:
   * S. Ehlert, M. Stahn, S. Spicher, S. Grimme, J. Chem. Theory Comput.,
     2021, 17, 4250-4261. DOI: 10.1021/acs.jctc.1c00471
   
   for ddCOSMO and CPCM-X implicit solvation:
   * M. Stahn, S. Ehlert, S. Grimme, J. Phys. Chem. A,
     2023, XX, XXXX-XXXX. DOI: 10.1021/acs.jpca.3c04382
   
   for DFT-D4:
   * E. Caldeweyher, C. Bannwarth and S. Grimme, J. Chem. Phys., 2017,
     147, 034112. DOI: 10.1063/1.4993215
   * E. Caldeweyher, S. Ehlert, A. Hansen, H. Neugebauer, S. Spicher,
     C. Bannwarth and S. Grimme, J. Chem. Phys., 2019, 150, 154122.
     DOI: 10.1063/1.5090222
   * E. Caldeweyher, J.-M. Mewes, S. Ehlert and S. Grimme, Phys. Chem. Chem. Phys.
     2020, 22, 8499-8512. DOI: 10.1039/D0CP00502A
   
   for sTDA-xTB:
   * S. Grimme and C. Bannwarth, J. Chem. Phys., 2016, 145, 054103.
     DOI: 10.1063/1.4959605
   
   in the mass-spec context:
   * V. Asgeirsson, C. Bauer and S. Grimme, Chem. Sci., 2017, 8, 4879.
     DOI: 10.1039/c7sc00601b
   * J. Koopman and S. Grimme, ACS Omega 2019, 4, 12, 15120-15133.
     DOI: 10.1021/acsomega.9b02011
   
   for metadynamics refer to:
   * S. Grimme, J. Chem. Theory Comput., 2019, 155, 2847-2862
     DOI: 10.1021/acs.jctc.9b00143
   
   for SPH calculations refer to:
   * S. Spicher and S. Grimme, J. Chem. Theory Comput., 2021, 17, 1701-1714
     DOI: 10.1021/acs.jctc.0c01306
   
   for ONIOM refer to:
   * C. Plett, A. Katbashev, S. Ehlert, S. Grimme, M. Bursch,
     Phys. Chem. Chem. Phys., 2023, 25, 17860-17868. DOI: 10.1039/D3CP02178E
   
   for DIPRO refer to:
   * J. Kohn, N. Gildemeister, S. Grimme, D. Fazzi, A. Hansen,
     J. Chem. Phys., 2023, just accepted.
   
   for PTB refer to:
   * S. Grimme, M. Mueller, A. Hansen, J. Chem. Phys., 2023, 158, 124111.
     DOI: 10.1063/5.0137838
   
   with help from (in alphabetical order)
   P. Atkinson, C. Bannwarth, F. Bohle, G. Brandenburg, E. Caldeweyher
   M. Checinski, S. Dohm, S. Ehlert, S. Ehrlich, I. Gerasimov, C. Hölzer
   A. Katbashev, J. Kohn, J. Koopman, C. Lavigne, S. Lehtola, F. März, M. Müller,
   F. Musil, H. Neugebauer, J. Pisarek, C. Plett, P. Pracht, F. Pultar,
   J. Seibert, P. Shushkov, S. Spicher, M. Stahn, M. Steiner, T. Strunk,
   J. Stückrath, T. Rose, and J. Unsleber
   
 * started run on 2025/10/19 at 03:21:44.865     
   ID    Z sym.   atoms
    1    6 C      1
    2    8 O      2, 3
    3    1 H      4

           -------------------------------------------------
          |                Calculation Setup                |
           -------------------------------------------------

          program call               : xtb xyz.xyz --charge -1 --ohess
          hostname                   : m003
          coordinate file            : xyz.xyz
          omp threads                :                     2


           -------------------------------------------------
          |                 G F N 2 - x T B                 |
           -------------------------------------------------

        Reference                      10.1021/acs.jctc.8b01176
      * Hamiltonian:
        H0-scaling (s, p, d)           1.850000    2.230000    2.230000
        zeta-weighting                 0.500000
      * Dispersion:
        s8                             2.700000
        a1                             0.520000
        a2                             5.000000
        s9                             5.000000
      * Repulsion:
        kExp                           1.500000    1.000000
        rExp                           1.000000
      * Coulomb:
        alpha                          2.000000
        third order                    shell-resolved
        anisotropic                    true
        a3                             3.000000
        a5                             4.000000
        cn-shift                       1.200000
        cn-exp                         4.000000
        max-rad                        5.000000


          ...................................................
          :                      SETUP                      :
          :.................................................:
          :  # basis functions                  13          :
          :  # atomic orbitals                  13          :
          :  # shells                            7          :
          :  # electrons                        18          :
          :  max. iterations                   250          :
          :  Hamiltonian                  GFN2-xTB          :
          :  restarted?                      false          :
          :  GBSA solvation                  false          :
          :  PC potential                    false          :
          :  electronic temp.          300.0000000     K    :
          :  accuracy                    1.0000000          :
          :  -> integral cutoff          0.2500000E+02      :
          :  -> integral neglect         0.1000000E-07      :
          :  -> SCF convergence          0.1000000E-05 Eh   :
          :  -> wf. convergence          0.1000000E-03 e    :
          :  Broyden damping             0.4000000          :
          :  net charge                         -1          :
          :  unpaired electrons                  0          :
          ...................................................

 iter      E             dE          RMSdq      gap      omega  full diag
   1    -10.9826648 -0.109827E+02  0.792E+00    6.23       0.0  T
   2    -11.0496279 -0.669631E-01  0.321E+00    4.73       1.0  T
   3    -11.0544782 -0.485028E-02  0.223E+00    5.16       1.0  T
   4    -11.0561793 -0.170107E-02  0.191E-01    4.93       1.0  T
   5    -11.0562903 -0.111025E-03  0.604E-02    4.98       1.0  T
   6    -11.0562940 -0.374351E-05  0.137E-02    4.96       3.7  T
   7    -11.0562945 -0.500402E-06  0.301E-03    4.97      16.6  T
   8    -11.0562946 -0.235688E-07  0.409E-04    4.97     122.3  T
   9    -11.0562946 -0.305354E-09  0.455E-05    4.97    1099.3  T

   *** convergence criteria satisfied after 9 iterations ***

         #    Occupation            Energy/Eh            Energy/eV
      -------------------------------------------------------------
         1        2.0000           -0.4522769             -12.3071
       ...           ...                  ...                  ...
         3        2.0000           -0.3592551              -9.7758
         4        2.0000           -0.3120065              -8.4901
         5        2.0000           -0.2902695              -7.8986
         6        2.0000           -0.2791352              -7.5957
         7        2.0000           -0.1857659              -5.0549
         8        2.0000           -0.1745914              -4.7509
         9        2.0000           -0.1560590              -4.2466 (HOMO)
        10                          0.0264751               0.7204 (LUMO)
        11                          0.3424457               9.3184
        12                          0.5572296              15.1630
        13                          0.7991430              21.7458
      -------------------------------------------------------------
                  HL-Gap            0.1825342 Eh            4.9670 eV
             Fermi-level           -0.0647920 Eh           -1.7631 eV

 SCC (total)                   0 d,  0 h,  0 min,  0.028 sec
 SCC setup                      ...        0 min,  0.000 sec (  0.790%)
 Dispersion                     ...        0 min,  0.000 sec (  0.315%)
 classical contributions        ...        0 min,  0.000 sec (  0.130%)
 integral evaluation            ...        0 min,  0.000 sec (  1.101%)
 iterations                     ...        0 min,  0.026 sec ( 95.551%)
 molecular gradient             ...        0 min,  0.000 sec (  1.533%)
 printout                       ...        0 min,  0.000 sec (  0.442%)

         :::::::::::::::::::::::::::::::::::::::::::::::::::::
         ::                     SUMMARY                     ::
         :::::::::::::::::::::::::::::::::::::::::::::::::::::
         :: total energy             -10.996074957644 Eh    ::
         :: gradient norm              0.057321899374 Eh/a0 ::
         :: HOMO-LUMO gap              4.967007100213 eV    ::
         ::.................................................::
         :: SCC energy               -11.056294557425 Eh    ::
         :: -> isotropic ES            0.207433207935 Eh    ::
         :: -> anisotropic ES         -0.000256399226 Eh    ::
         :: -> anisotropic XC         -0.002486658106 Eh    ::
         :: -> dispersion             -0.001447627221 Eh    ::
         :: repulsion energy           0.060219599781 Eh    ::
         :: add. restraining           0.000000000000 Eh    ::
         :: total charge              -1.000000000000 e     ::
         :::::::::::::::::::::::::::::::::::::::::::::::::::::

      ----------------------------------------------------------- 
     |                   =====================                   |
     |                        A N C O P T                        |
     |                   =====================                   |
     |               Approximate Normal Coordinate               |
     |                Rational Function Optimizer                |
      ----------------------------------------------------------- 
      ----------------------------------------------------------- 
     |                   =====================                   |
     |                        A N C O P T                        |
     |                   =====================                   |
     |               Approximate Normal Coordinate               |
     |                Rational Function Optimizer                |
      ----------------------------------------------------------- 

          ...................................................
          :                      SETUP                      :
          :.................................................:
          :   optimization level            normal          :
          :   max. optcycles                   200          :
          :   ANC micro-cycles                  20          :
          :   degrees of freedom                 6          :
          :.................................................:
          :   RF solver                   davidson          :
          :   write xtbopt.log                true          :
          :   linear?                        false          :
          :   energy convergence         0.5000000E-05 Eh   :
          :   grad. convergence          0.1000000E-02 Eh/α :
          :   maxmium RF displ.          1.0000000          :
          :   Hlow (freq-cutoff)         0.1000000E-01      :
          :   Hmax (freq-cutoff)         5.0000000          :
          :   S6 in model hess.         20.0000000          :
          ...................................................

generating ANC from exact Hessian ...
Using Lindh-Hessian (1995)
 Shifting diagonal of input Hessian by   9.122209524555632E-003
 Lowest  eigenvalues of input Hessian
    0.000000    0.000000    0.000000    0.000000    0.000000    0.000000
    0.010000    0.228779    0.319997    0.669166    1.562804    2.330210
 Highest eigenvalues
    0.010000    0.228779    0.319997    0.669166    1.562804    2.330210
 

........................................................................
.............................. CYCLE    1 ..............................
........................................................................

 iter      E             dE          RMSdq      gap      omega  full diag
   1    -11.0562946 -0.110563E+02  0.124E-05    4.97       0.0  T
   2    -11.0562946 -0.103029E-12  0.546E-06    4.97    9149.2  T
   3    -11.0562946 -0.106581E-13  0.371E-06    4.97   13486.5  T
     SCC iter.                  ...        0 min,  0.000 sec
     gradient                   ...        0 min,  0.000 sec
 * total energy  :   -10.9960750 Eh     change       -0.5462297E-11 Eh
   gradient norm :     0.0573220 Eh/α   predicted     0.0000000E+00 (-100.00%)
   displ. norm   :     0.0552877 α      lambda       -0.2769683E-02
   maximum displ.:     0.0357902 α      in ANC's #4, #5, #3, ...

........................................................................
.............................. CYCLE    2 ..............................
........................................................................

 iter      E             dE          RMSdq      gap      omega  full diag
   1    -11.0657320 -0.110657E+02  0.270E-01    5.30       0.0  T
   2    -11.0658177 -0.856953E-04  0.133E-01    5.24       1.0  T
   3    -11.0658298 -0.120251E-04  0.735E-02    5.25       1.0  T
   4    -11.0658321 -0.230448E-05  0.212E-02    5.24       2.4  T
   5    -11.0658321 -0.421901E-07  0.237E-03    5.24      21.1  T
   6    -11.0658321 -0.732502E-09  0.570E-04    5.24      87.7  T
   7    -11.0658321 -0.356160E-10  0.567E-05    5.24     882.0  T
     SCC iter.                  ...        0 min,  0.001 sec
     gradient                   ...        0 min,  0.000 sec
 * total energy  :   -10.9978881 Eh     change       -0.1813126E-02 Eh
   gradient norm :     0.0209148 Eh/α   predicted    -0.1389076E-02 ( -23.39%)
   displ. norm   :     0.0312874 α      lambda       -0.5356052E-03
   maximum displ.:     0.0231605 α      in ANC's #3, #5, #4, ...

........................................................................
.............................. CYCLE    3 ..............................
........................................................................

 iter      E             dE          RMSdq      gap      omega  full diag
   1    -11.0690293 -0.110690E+02  0.144E-01    5.39       0.0  T
   2    -11.0690481 -0.188710E-04  0.585E-02    5.36       1.0  T
   3    -11.0690508 -0.266589E-05  0.320E-02    5.37       1.6  T
   4    -11.0690516 -0.819278E-06  0.149E-02    5.36       3.3  T
   5    -11.0690516 -0.711590E-08  0.821E-04    5.36      60.9  T
   6    -11.0690516 -0.672440E-10  0.211E-04    5.36     237.4  T
     SCC iter.                  ...        0 min,  0.001 sec
     gradient                   ...        0 min,  0.000 sec
 * total energy  :   -10.9982003 Eh     change       -0.3121847E-03 Eh
   gradient norm :     0.0078213 Eh/α   predicted    -0.2680650E-03 ( -14.13%)
   displ. norm   :     0.0148047 α      lambda       -0.1023106E-03
   maximum displ.:     0.0093619 α      in ANC's #4, #3, #5, ...

........................................................................
.............................. CYCLE    4 ..............................
........................................................................

 iter      E             dE          RMSdq      gap      omega  full diag
   1    -11.0688485 -0.110688E+02  0.597E-02    5.37       0.0  T
   2    -11.0688504 -0.188661E-05  0.287E-02    5.37       1.7  T
   3    -11.0688508 -0.434959E-06  0.994E-03    5.37       5.0  T
   4    -11.0688508  0.379297E-08  0.287E-03    5.37      17.4  T
   5    -11.0688508 -0.901401E-08  0.303E-04    5.37     165.2  T
   6    -11.0688508 -0.756195E-11  0.364E-05    5.37    1374.4  T
     SCC iter.                  ...        0 min,  0.001 sec
     gradient                   ...        0 min,  0.000 sec
 * total energy  :   -10.9982743 Eh     change       -0.7406758E-04 Eh
   gradient norm :     0.0042458 Eh/α   predicted    -0.5116605E-04 ( -30.92%)
   displ. norm   :     0.0124784 α      lambda       -0.4987984E-04
   maximum displ.:     0.0106445 α      in ANC's #4, #5, #3, ...

........................................................................
.............................. CYCLE    5 ..............................
........................................................................

 iter      E             dE          RMSdq      gap      omega  full diag
   1    -11.0682495 -0.110682E+02  0.512E-02    5.36       0.0  T
   2    -11.0682509 -0.136731E-05  0.274E-02    5.36       1.8  T
   3    -11.0682511 -0.249105E-06  0.953E-03    5.35       5.2  T
   4    -11.0682512 -0.428571E-07  0.583E-03    5.35       8.6  T
   5    -11.0682512 -0.108991E-07  0.418E-04    5.35     119.7  T
   6    -11.0682512 -0.193356E-10  0.223E-05    5.35    2242.1  T
     SCC iter.                  ...        0 min,  0.001 sec
     gradient                   ...        0 min,  0.000 sec
 * total energy  :   -10.9983017 Eh     change       -0.2737880E-04 Eh
   gradient norm :     0.0007112 Eh/α   predicted    -0.2494212E-04 (  -8.90%)
   displ. norm   :     0.0027760 α      lambda       -0.1291290E-05
   maximum displ.:     0.0019769 α      in ANC's #4, #3, #5, ...

........................................................................
.............................. CYCLE    6 ..............................
........................................................................

 iter      E             dE          RMSdq      gap      omega  full diag
   1    -11.0681968 -0.110682E+02  0.995E-03    5.35       0.0  T
   2    -11.0681968 -0.350169E-07  0.540E-03    5.35       9.3  T
   3    -11.0681968 -0.796519E-08  0.175E-03    5.35      28.5  T
   4    -11.0681968 -0.941558E-10  0.787E-04    5.35      63.6  T
   5    -11.0681968 -0.484714E-09  0.106E-04    5.35     470.7  T
     SCC iter.                  ...        0 min,  0.001 sec
     gradient                   ...        0 min,  0.000 sec
 * total energy  :   -10.9983025 Eh     change       -0.8252140E-06 Eh
   gradient norm :     0.0002290 Eh/α   predicted    -0.6464762E-06 ( -21.66%)
   displ. norm   :     0.0009064 α      lambda       -0.1185355E-06
   maximum displ.:     0.0006241 α      in ANC's #4, #3, #5, ...

   *** GEOMETRY OPTIMIZATION CONVERGED AFTER 6 ITERATIONS ***

------------------------------------------------------------------------
 total energy gain   :        -0.0022276 Eh       -1.3978 kcal/mol
 total RMSD          :         0.0461719 a0        0.0244 Å
 total power (kW/mol):        -0.9747528 (step) -617.5845 (real)
------------------------------------------------------------------------

 ANCopt (total)                0 d,  0 h,  0 min,  0.009 sec
 optimizer setup                ...        0 min,  0.000 sec (  4.245%)
 model hessian                  ...        0 min,  0.000 sec (  1.254%)
 ANC generation                 ...        0 min,  0.000 sec (  0.897%)
 coordinate transformation      ...        0 min,  0.000 sec (  0.613%)
 single point calculation       ...        0 min,  0.008 sec ( 81.740%)
 optimization log               ...        0 min,  0.000 sec (  2.869%)
 hessian update                 ...        0 min,  0.000 sec (  0.631%)
 rational function              ...        0 min,  0.000 sec (  3.625%)

================
 final structure:
================
4
 xtb: 6.7.1 (edcfbbe)
C           -3.13028567678357        2.37939298674252       -0.00000968621139
O           -3.33521143143596        3.59203694243999        0.00000166130902
O           -2.08755379607681        1.72731164264796       -0.00000616731477
H           -4.11959409570366        1.71746242816953       -0.00002680778286
 
 Bond Distances (Angstroems)
 ---------------------------
C1-O2=1.2298         C1-O3=1.2298         C1-H4=1.1903         O2-C1=1.2298         O3-C1=1.2298         H4-C1=1.1903         
 C  H  Rav=1.1903 sigma=0.0000  Rmin=1.1903  Rmax=1.1903     1
 O  C  Rav=1.2298 sigma=0.0000  Rmin=1.2298  Rmax=1.2298     2
 
 selected bond angles (degree)
 --------------------
O3-C1-O2=131.61                H4-C1-O2=114.19                H4-C1-O3=114.19                
 
 selected dihedral angles (degree)
 ---------------------------------

           -------------------------------------------------
          |                Final Singlepoint                |
           -------------------------------------------------

          ...................................................
          :                      SETUP                      :
          :.................................................:
          :  # basis functions                  13          :
          :  # atomic orbitals                  13          :
          :  # shells                            7          :
          :  # electrons                        18          :
          :  max. iterations                   250          :
          :  Hamiltonian                  GFN2-xTB          :
          :  restarted?                      false          :
          :  GBSA solvation                  false          :
          :  PC potential                    false          :
          :  electronic temp.          300.0000000     K    :
          :  accuracy                    1.0000000          :
          :  -> integral cutoff          0.2500000E+02      :
          :  -> integral neglect         0.1000000E-07      :
          :  -> SCF convergence          0.1000000E-05 Eh   :
          :  -> wf. convergence          0.1000000E-03 e    :
          :  Broyden damping             0.4000000          :
          :  net charge                         -1          :
          :  unpaired electrons                  0          :
          ...................................................

 iter      E             dE          RMSdq      gap      omega  full diag
   1    -11.0681968 -0.110682E+02  0.127E-06    5.35       0.0  T
   2    -11.0681968 -0.177636E-14  0.553E-07    5.35   90421.8  T
   3    -11.0681968  0.000000E+00  0.314E-07    5.35  100000.0  T

   *** convergence criteria satisfied after 3 iterations ***

         #    Occupation            Energy/Eh            Energy/eV
      -------------------------------------------------------------
         1        2.0000           -0.4601045             -12.5201
       ...           ...                  ...                  ...
         3        2.0000           -0.3600396              -9.7972
         4        2.0000           -0.3160689              -8.6007
         5        2.0000           -0.3006169              -8.1802
         6        2.0000           -0.2821053              -7.6765
         7        2.0000           -0.1908195              -5.1925
         8        2.0000           -0.1779184              -4.8414
         9        2.0000           -0.1559438              -4.2434 (HOMO)
        10                          0.0406202               1.1053 (LUMO)
        11                          0.3005571               8.1786
        12                          0.6305937              17.1593
        13                          0.9003678              24.5003
      -------------------------------------------------------------
                  HL-Gap            0.1965640 Eh            5.3488 eV
             Fermi-level           -0.0576618 Eh           -1.5691 eV

 SCC (total)                   0 d,  0 h,  0 min,  0.001 sec
 SCC setup                      ...        0 min,  0.000 sec (  7.753%)
 Dispersion                     ...        0 min,  0.000 sec (  1.995%)
 classical contributions        ...        0 min,  0.000 sec (  0.873%)
 integral evaluation            ...        0 min,  0.000 sec ( 18.478%)
 iterations                     ...        0 min,  0.000 sec ( 32.343%)
 molecular gradient             ...        0 min,  0.000 sec ( 28.061%)
 printout                       ...        0 min,  0.000 sec (  7.420%)

         :::::::::::::::::::::::::::::::::::::::::::::::::::::
         ::                     SUMMARY                     ::
         :::::::::::::::::::::::::::::::::::::::::::::::::::::
         :: total energy             -10.998302540057 Eh    ::
         :: gradient norm              0.000228869245 Eh/a0 ::
         :: HOMO-LUMO gap              5.348779821625 eV    ::
         ::.................................................::
         :: SCC energy               -11.068196821505 Eh    ::
         :: -> isotropic ES            0.203881582792 Eh    ::
         :: -> anisotropic ES         -0.001406886785 Eh    ::
         :: -> anisotropic XC         -0.003107819992 Eh    ::
         :: -> dispersion             -0.001531287196 Eh    ::
         :: repulsion energy           0.069894281449 Eh    ::
         :: add. restraining           0.000000000000 Eh    ::
         :: total charge              -1.000000000000 e     ::
         :::::::::::::::::::::::::::::::::::::::::::::::::::::

           ------------------------------------------------- 
          |                Numerical Hessian                |
           ------------------------------------------------- 
step length          :   0.00500
SCC accuracy         :   0.30000
Hessian scale factor :   1.00000
frozen atoms in %    :   0.00000    0
RMS gradient         :   0.00023
estimated CPU  time      0.00 min
estimated wall time      0.00 min

writing file <hessian>.

 projected vibrational frequencies (cm⁻¹)
eigval :       -0.00    -0.00    -0.00    -0.00     0.00     0.00
eigval :      704.32   948.34  1273.76  1465.14  1830.62  1970.44
           -------------------------------------------------
          |                Property Printout                |
           -------------------------------------------------

    * Orbital Energies and Occupations

         #    Occupation            Energy/Eh            Energy/eV
      -------------------------------------------------------------
         1        2.0000           -0.4601045             -12.5201
         2        2.0000           -0.4501418             -12.2490
         3        2.0000           -0.3600396              -9.7972
         4        2.0000           -0.3160689              -8.6007
         5        2.0000           -0.3006169              -8.1802
         6        2.0000           -0.2821053              -7.6765
         7        2.0000           -0.1908195              -5.1925
         8        2.0000           -0.1779184              -4.8414
         9        2.0000           -0.1559438              -4.2434 (HOMO)
        10                          0.0406202               1.1053 (LUMO)
        11                          0.3005571               8.1786
        12                          0.6305937              17.1593
        13                          0.9003678              24.5003
      -------------------------------------------------------------
                  HL-Gap            0.1965640 Eh            5.3488 eV
             Fermi-level           -0.0576618 Eh           -1.5691 eV

     #   Z          covCN         q      C6AA      α(0)
     1   6 C        2.604     0.388    20.457     7.397
     2   8 O        0.856    -0.595    25.997     6.836
     3   8 O        0.856    -0.595    25.997     6.836
     4   1 H        0.894    -0.198    10.681     5.114

 Mol. C6AA /au·bohr⁶  :        320.910433
 Mol. C8AA /au·bohr⁸  :       6587.941153
 Mol. α(0) /au        :         26.183040


Wiberg/Mayer (AO) data.
largest (>0.10) Wiberg bond orders for each atom

 ---------------------------------------------------------------------------
     #   Z sym  total        # sym  WBO       # sym  WBO       # sym  WBO
 ---------------------------------------------------------------------------
     1   6 C    3.944 --     2 O    1.551     3 O    1.551     4 H    0.842
     2   8 O    1.849 --     1 C    1.551     3 O    0.238
     3   8 O    1.849 --     1 C    1.551     2 O    0.238
     4   1 H    0.961 --     1 C    0.842
 ---------------------------------------------------------------------------

Topologies differ in total number of bonds
Writing topology from bond orders to xtbtopo.mol

molecular dipole:
                 x           y           z       tot (Debye)
 q only:        5.343      -4.879      -0.000
   full:        5.144      -5.012      -0.000      18.256
molecular quadrupole (traceless):
                xx          xy          yy          xz          yz          zz
 q only:      -17.316      41.700     -12.340       0.000      -0.000      29.656
  q+dip:      -14.263      42.732     -15.602       0.000      -0.000      29.865
   full:      -14.644      42.589     -15.864       0.000      -0.000      30.509

           -------------------------------------------------
          |                Geometry Summary                 |
           -------------------------------------------------

      molecular mass/u    :       45.0174865
   center of mass at/Å    :       -2.8546633       2.5638139       0.0000007
  moments of inertia/u·Å² :        0.4606640E+01   0.4026931E+02   0.4487595E+02
rotational constants/cm⁻¹ :        0.3659420E+01   0.4186223E+00   0.3756496E+00

 * 2 selected distances

     #   Z          #   Z                                           value/Å
     1   6 C        2   8 O                                       1.2298375 (max)
     1   6 C        3   8 O                                       1.2298374 (min)

 * 1 distinct bonds (by element types)

   Z      Z             #   av. dist./Å        max./Å        min./Å
   6 C    8 O           2     1.2298375     1.2298375     1.2298374

           -------------------------------------------------
          |               Frequency Printout                |
           -------------------------------------------------
 projected vibrational frequencies (cm⁻¹)
eigval :       -0.00    -0.00    -0.00    -0.00     0.00     0.00
eigval :      704.32   948.34  1273.76  1465.14  1830.62  1970.44
 reduced masses (amu)
   1:  6.43   2: 15.37   3: 14.67   4: 14.81   5: 15.49   6: 15.39   7: 14.41   8:  7.16
   9: 14.28  10:  2.28  11: 13.04  12:  1.74
 IR intensities (km·mol⁻¹)
   1:  1.08   2: 17.36   3:  4.46   4: 16.61   5: 13.12   6: 18.27   7: 89.36   8: 96.18
   9:460.48  10: 24.94  11:846.68  12:801.29
 Raman intensities (Ä⁴*amu⁻¹)
   1:  0.00   2:  0.00   3:  0.00   4:  0.00   5:  0.00   6:  0.00   7:  0.00   8:  0.00
   9:  0.00  10:  0.00  11:  0.00  12:  0.00
 output can be read by thermo (or use thermo option).
 writing <g98.out> molden fake output.
 recommended (thermochemical) frequency scaling factor: 1.0
           -------------------------------------------------
          |             Thermodynamic Functions             |
           -------------------------------------------------

Molecule has the following symmetry elements: (C2) 2*(sigma) 
It seems to be the C2v point group
c2v symmetry found (for desy threshold:  0.10E+00) used in thermo

          ...................................................
          :                      SETUP                      :
          :.................................................:
          :  # frequencies                           6      :
          :  # imaginary freq.                       0      :
          :  linear?                             false      :
          :  only rotor calc.                    false      :
          :  symmetry                              c2v      :
          :  rotational number                       2      :
          :  scaling factor                  1.0000000      :
          :  rotor cutoff                   50.0000000 cm⁻¹ :
          :  imag. cutoff                  -20.0000000 cm⁻¹ :
          :.................................................:

    mode    ω/cm⁻¹     T·S(HO)/kcal·mol⁻¹    T·S(FR)/kcal·mol⁻¹   T·S(vib)
   ------------------------------------------------------------------------
   ------------------------------------------------------------------------

   temp. (K)  partition function   enthalpy   heat capacity  entropy
                                   cal/mol     cal/K/mol   cal/K/mol   J/K/mol
 298.15  VIB   1.05                  110.367      1.540      0.465
         ROT  0.348E+04              888.752      2.981     19.189
         INT  0.365E+04              999.119      4.521     19.654
         TR   0.292E+27             1481.254      4.968     37.322
         TOT                        2480.3732     9.4893    56.9761   238.3881

       T/K    H(0)-H(T)+PV         H(T)/Eh          T*S/Eh         G(T)/Eh
   ------------------------------------------------------------------------
    298.15    0.395273E-02    0.226169E-01    0.270712E-01   -0.445434E-02
   ------------------------------------------------------------------------

         :::::::::::::::::::::::::::::::::::::::::::::::::::::
         ::                  THERMODYNAMIC                  ::
         :::::::::::::::::::::::::::::::::::::::::::::::::::::
         :: total free energy         -11.002756877873 Eh   ::
         ::.................................................::
         :: total energy              -10.998302540057 Eh   ::
         :: zero point energy           0.018664126627 Eh   ::
         :: G(RRHO) w/o ZPVE           -0.023118464443 Eh   ::
         :: G(RRHO) contrib.           -0.004454337816 Eh   ::
         :::::::::::::::::::::::::::::::::::::::::::::::::::::

optimized geometry written to: xtbopt.xyz


           -------------------------------------------------
          | TOTAL ENERGY              -10.998302540057 Eh   |
          | TOTAL ENTHALPY            -10.975685687212 Eh   |
          | TOTAL FREE ENERGY         -11.002756877873 Eh   |
          | GRADIENT NORM               0.000228869357 Eh/α |
          | HOMO-LUMO GAP               5.348779827395 eV   |
           -------------------------------------------------

------------------------------------------------------------------------
 * finished run on 2025/10/19 at 03:21:45.119     
------------------------------------------------------------------------
 total:
 * wall-time:     0 d,  0 h,  0 min,  0.253 sec
 *  cpu-time:     0 d,  0 h,  0 min,  0.296 sec
 * ratio c/w:     1.172 speedup
 SCF:
 * wall-time:     0 d,  0 h,  0 min,  0.028 sec
 *  cpu-time:     0 d,  0 h,  0 min,  0.034 sec
 * ratio c/w:     1.230 speedup
 ANC optimizer:
 * wall-time:     0 d,  0 h,  0 min,  0.064 sec
 *  cpu-time:     0 d,  0 h,  0 min,  0.076 sec
 * ratio c/w:     1.183 speedup
 analytical hessian:
 * wall-time:     0 d,  0 h,  0 min,  0.025 sec
 *  cpu-time:     0 d,  0 h,  0 min,  0.041 sec
 * ratio c/w:     1.656 speedup

