4
 energy: -10.996074957649 gnorm: 0.057321969255 xtb: 6.7.1 (edcfbbe)
C           -3.14782300000000        2.36764800000000       -0.00001000000000
O           -3.35124800000000        3.61085200000000        0.00000200000000
O           -2.07628800000000        1.70531500000000       -0.00000600000000
H           -4.09728600000000        1.73238900000000       -0.00002700000000
4
 energy: -10.997888083742 gnorm: 0.020914765322 xtb: 6.7.1 (edcfbbe)
C           -3.14333500232766        2.37065615862530       -0.00000991771684
O           -3.34009342194368        3.59430805470061        0.00000191205354
O           -2.08731583775841        1.72193517703632       -0.00000594863887
H           -4.10190073797026        1.72930460963777       -0.00002704569783
4
 energy: -10.998200268461 gnorm: 0.007821253634 xtb: 6.7.1 (edcfbbe)
C           -3.13798468940165        2.37424087038168       -0.00000982246040
O           -3.33420033292164        3.58906189102912        0.00000187222191
O           -2.08991528177578        1.72938172014608       -0.00000593518400
H           -4.11054469590093        1.72351951844312       -0.00002711457751
4
 energy: -10.998274336045 gnorm: 0.004245827914 xtb: 6.7.1 (edcfbbe)
C           -3.13444036544696        2.37661387739582       -0.00000975987117
O           -3.33359129759991        3.59004204389043        0.00000182991264
O           -2.08877877298739        1.72957000933499       -0.00000598084365
H           -4.11583456396575        1.71997806937876       -0.00002708919782
4
 energy: -10.998301714841 gnorm: 0.000711179868 xtb: 6.7.1 (edcfbbe)
C           -3.13109772631348        2.37885038326110       -0.00000970068374
O           -3.33448438836403        3.59176952507914        0.00000174175503
O           -2.08752413488553        1.72808539140345       -0.00000608250384
H           -4.11953875043696        1.71749870025631       -0.00002695856744
4
 energy: -10.998302540055 gnorm: 0.000229048587 xtb: 6.7.1 (edcfbbe)
C           -3.13028567678357        2.37939298674252       -0.00000968621139
O           -3.33521143143596        3.59203694243999        0.00000166130902
O           -2.08755379607681        1.72731164264796       -0.00000616731477
H           -4.11959409570366        1.71746242816953       -0.00002680778286
