 Entering Gaussian System
 *********************************************
 Gaussian 98:
 frequency output generated by the xtb code
 *********************************************
                         Standard orientation:
 --------------------------------------------------------------------
  Center     Atomic     Atomic              Coordinates (Angstroms)
  Number     Number      Type              X           Y           Z
 --------------------------------------------------------------------
    1          6             0       -6.322693   -3.540479    2.055689
    2          6             0       -6.003726   -4.021982    0.757950
    3          8             0       -9.391445   -5.326478    2.932026
    4          1             0       -7.645607   -3.589325    3.737771
    5          6             0       -6.907316   -4.980611    0.230880
    6          8             0       -4.968944   -3.617727    0.106293
    7          6             0       -8.013456   -5.411405    0.930926
    8          1             0       -9.882226   -5.978714    2.412434
    9          6             0       -8.286778   -4.915126    2.196423
   10          1             0       -8.674341   -6.146045    0.483974
   11          6             0       -7.428612   -3.974631    2.750008
   12          1             0       -5.657708   -2.805879    2.495092
   13          1             0       -6.700976   -5.374064   -0.757879
 --------------------------------------------------------------------
     1 basis functions        1 primitive gaussians
     1 alpha electrons        1 beta electrons
 
 Harmonic frequencies (cm**-1), IR intensities (km*mol⁻¹),
 Raman scattering activities (A**4/amu), Raman depolarization ratios,
 reduced masses (AMU), force constants (mDyne/A) and normal coordinates:
                      1                      2                      3
                        a                      a                      a 
 Frequencies --   139.6372               313.0060               340.8884
 Red. masses --    13.8050                 2.1247                13.0596
 Frc consts  --     0.0000                 0.0000                 0.0000
 IR Inten    --    10.0829               191.2708                17.4721
 Raman Activ --     0.0000                 0.0000                 0.0000
 Depolar     --     0.0000                 0.0000                 0.0000
 Atom AN      X      Y      Z        X      Y      Z        X      Y      Z
   1   6    -0.16   0.22  -0.12     0.05  -0.08   0.04    -0.10  -0.10  -0.07
   2   6    -0.01   0.01  -0.01    -0.00   0.00  -0.00    -0.03  -0.05  -0.04
   3   8     0.28  -0.38   0.21    -0.12   0.20  -0.06     0.21   0.38   0.44
   4   1    -0.05   0.06  -0.03    -0.00  -0.01  -0.00    -0.06  -0.08  -0.06
   5   6    -0.17   0.23  -0.13    -0.03   0.04  -0.03     0.03  -0.08  -0.15
   6   8     0.32  -0.43   0.24     0.01   0.02   0.02     0.09   0.27   0.34
   7   6    -0.14   0.19  -0.11    -0.01  -0.01  -0.02    -0.07  -0.17  -0.24
   8   1     0.08  -0.11   0.06     0.51  -0.70   0.41    -0.12   0.13   0.23
   9   6    -0.03   0.04  -0.02    -0.04   0.03  -0.04    -0.05  -0.16  -0.22
  10   1    -0.05   0.06  -0.04     0.01  -0.02  -0.00    -0.01  -0.04  -0.09
  11   6    -0.14   0.19  -0.11    -0.00  -0.02  -0.01    -0.08  -0.17  -0.20
  12   1    -0.06   0.07  -0.04     0.03  -0.05   0.03    -0.04  -0.03  -0.01
  13   1    -0.06   0.08  -0.04    -0.01   0.01  -0.01     0.02  -0.02  -0.04
                      4                      5                      6
                        a                      a                      a 
 Frequencies --   348.7862               375.0443               437.2471
 Red. masses --    12.1638                 9.4384                13.0102
 Frc consts  --     0.0000                 0.0000                 0.0000
 IR Inten    --     0.0583                 1.5294                 5.6183
 Raman Activ --     0.0000                 0.0000                 0.0000
 Depolar     --     0.0000                 0.0000                 0.0000
 Atom AN      X      Y      Z        X      Y      Z        X      Y      Z
   1   6     0.20  -0.27   0.15    -0.22   0.31  -0.17    -0.05  -0.22  -0.32
   2   6     0.14  -0.19   0.11     0.01  -0.01   0.01     0.17  -0.06  -0.33
   3   8     0.20  -0.28   0.14    -0.01  -0.01  -0.00    -0.35  -0.19   0.13
   4   1    -0.07   0.09  -0.05     0.13  -0.18   0.10     0.12   0.08  -0.01
   5   6     0.18  -0.24   0.13     0.25  -0.33   0.19    -0.01  -0.05  -0.08
   6   8    -0.15   0.20  -0.12    -0.01   0.00  -0.02     0.38   0.34   0.11
   7   6    -0.15   0.21  -0.11    -0.24   0.34  -0.18     0.02   0.15   0.24
   8   1     0.02  -0.03   0.01     0.05  -0.07   0.03    -0.04  -0.04  -0.02
   9   6    -0.25   0.34  -0.18    -0.02   0.03  -0.01    -0.18   0.01   0.27
  10   1    -0.05   0.07  -0.04    -0.14   0.19  -0.10     0.00   0.04   0.07
  11   6    -0.18   0.25  -0.14     0.23  -0.30   0.17     0.02   0.01  -0.02
  12   1     0.08  -0.11   0.06    -0.11   0.16  -0.08    -0.00  -0.06  -0.11
  13   1     0.07  -0.09   0.05     0.13  -0.17   0.10    -0.12  -0.10  -0.02
                      7                      8                      9
                        a                      a                      a 
 Frequencies --   441.8760               482.6082               621.2030
 Red. masses --    12.4298                 8.4245                11.6356
 Frc consts  --     0.0000                 0.0000                 0.0000
 IR Inten    --     9.8057                 2.8425                 3.6492
 Raman Activ --     0.0000                 0.0000                 0.0000
 Depolar     --     0.0000                 0.0000                 0.0000
 Atom AN      X      Y      Z        X      Y      Z        X      Y      Z
   1   6    -0.04  -0.07  -0.09    -0.01   0.02  -0.01    -0.37  -0.24   0.06
   2   6    -0.28  -0.24  -0.07    -0.24   0.34  -0.18    -0.01  -0.04  -0.05
   3   8     0.24   0.02  -0.28     0.06  -0.08   0.05     0.05   0.10   0.11
   4   1     0.05   0.06   0.06     0.17  -0.23   0.12    -0.08   0.00   0.11
   5   6    -0.14  -0.25  -0.27    -0.01   0.02  -0.01     0.27   0.02  -0.34
   6   8    -0.17   0.12   0.46     0.10  -0.13   0.06    -0.05  -0.15  -0.20
   7   6    -0.01   0.02   0.05     0.11  -0.15   0.08     0.39   0.26  -0.03
   8   1     0.12   0.00  -0.12    -0.01   0.02  -0.01    -0.03   0.02   0.08
   9   6     0.24   0.20   0.02    -0.31   0.41  -0.23     0.01   0.03   0.04
  10   1    -0.07   0.00   0.12     0.17  -0.23   0.12     0.10   0.07  -0.00
  11   6     0.12   0.19   0.20     0.11  -0.15   0.07    -0.28   0.00   0.39
  12   1     0.08  -0.03  -0.15     0.15  -0.20   0.12    -0.10  -0.07   0.02
  13   1    -0.06  -0.09  -0.07     0.15  -0.20   0.11     0.07   0.00  -0.09
                     10                     11                     12
                        a                      a                      a 
 Frequencies --   651.0266               756.3662               776.0961
 Red. masses --    10.9462                12.8168                 6.3876
 Frc consts  --     0.0000                 0.0000                 0.0000
 IR Inten    --     0.9209               148.4701                56.9512
 Raman Activ --     0.0000                 0.0000                 0.0000
 Depolar     --     0.0000                 0.0000                 0.0000
 Atom AN      X      Y      Z        X      Y      Z        X      Y      Z
   1   6     0.13  -0.18   0.10     0.28   0.22   0.03    -0.14   0.20  -0.11
   2   6    -0.31   0.42  -0.23    -0.15  -0.05   0.09     0.25  -0.34   0.19
   3   8    -0.03   0.04  -0.02    -0.44  -0.17   0.29    -0.03   0.02  -0.01
   4   1     0.01  -0.01   0.01     0.09   0.04  -0.04     0.14  -0.19   0.10
   5   6     0.13  -0.18   0.10     0.18  -0.05  -0.32    -0.15   0.21  -0.12
   6   8     0.07  -0.10   0.05    -0.30  -0.12   0.19    -0.08   0.10  -0.05
   7   6    -0.18   0.24  -0.13     0.25   0.10  -0.14    -0.10   0.14  -0.08
   8   1    -0.01   0.01  -0.00    -0.09  -0.04   0.05    -0.01   0.01  -0.00
   9   6     0.26  -0.35   0.20    -0.04  -0.01   0.02     0.11  -0.16   0.09
  10   1     0.02  -0.03   0.02     0.08   0.03  -0.07     0.18  -0.24   0.13
  11   6    -0.17   0.23  -0.13     0.22   0.08  -0.16    -0.08   0.11  -0.06
  12   1     0.12  -0.16   0.09     0.12   0.06  -0.07     0.21  -0.29   0.16
  13   1     0.12  -0.17   0.09     0.12   0.04  -0.09     0.24  -0.32   0.18
                     13                     14                     15
                        a                      a                      a 
 Frequencies --   836.1565               869.7034               872.3669
 Red. masses --     3.3187                11.9077                 2.5211
 Frc consts  --     0.0000                 0.0000                 0.0000
 IR Inten    --     0.2872                 9.3072                 1.4434
 Raman Activ --     0.0000                 0.0000                 0.0000
 Depolar     --     0.0000                 0.0000                 0.0000
 Atom AN      X      Y      Z        X      Y      Z        X      Y      Z
   1   6    -0.14   0.18  -0.10     0.10   0.23   0.29    -0.01   0.05   0.01
   2   6     0.01  -0.01   0.01     0.10   0.03  -0.07    -0.02   0.05  -0.03
   3   8    -0.00   0.01  -0.01    -0.19  -0.08   0.11    -0.00  -0.03   0.02
   4   1     0.22  -0.29   0.16    -0.09  -0.05   0.14    -0.23   0.30  -0.15
   5   6     0.10  -0.14   0.08    -0.08  -0.24  -0.27    -0.13   0.14  -0.11
   6   8    -0.00   0.01  -0.00     0.31   0.12  -0.19     0.03   0.02  -0.02
   7   6     0.13  -0.17   0.10    -0.25  -0.28  -0.24     0.10  -0.21   0.07
   8   1     0.00  -0.01   0.01    -0.04  -0.02   0.03    -0.01  -0.01   0.01
   9   6     0.02  -0.02   0.01     0.09   0.04  -0.06     0.02  -0.00  -0.00
  10   1    -0.24   0.33  -0.18    -0.10  -0.13   0.05    -0.34   0.44  -0.25
  11   6    -0.13   0.17  -0.09    -0.04   0.21   0.40     0.07  -0.07   0.10
  12   1     0.28  -0.38   0.21     0.04   0.08   0.04     0.12  -0.14   0.09
  13   1    -0.21   0.29  -0.16    -0.03  -0.00  -0.11     0.29  -0.40   0.21
                     16                     17                     18
                        a                      a                      a 
 Frequencies --   892.7644               992.6355              1096.8636
 Red. masses --     3.4178                 8.5342                 4.3545
 Frc consts  --     0.0000                 0.0000                 0.0000
 IR Inten    --     0.3729                 5.4517               126.3455
 Raman Activ --     0.0000                 0.0000                 0.0000
 Depolar     --     0.0000                 0.0000                 0.0000
 Atom AN      X      Y      Z        X      Y      Z        X      Y      Z
   1   6     0.14  -0.19   0.10     0.11   0.25   0.29     0.12   0.13   0.06
   2   6     0.01  -0.02   0.01     0.01  -0.00  -0.01    -0.07  -0.15  -0.17
   3   8    -0.01   0.01  -0.01     0.13   0.05  -0.08     0.06  -0.05  -0.17
   4   1     0.33  -0.44   0.25    -0.18  -0.17  -0.07    -0.25  -0.15   0.06
   5   6    -0.10   0.13  -0.07    -0.08  -0.23  -0.31    -0.01   0.09   0.18
   6   8     0.00   0.00  -0.00     0.07   0.03  -0.04     0.00   0.01   0.02
   7   6     0.09  -0.13   0.07     0.11   0.24   0.29     0.10   0.13   0.10
   8   1     0.00  -0.00   0.00     0.03   0.01  -0.02    -0.39  -0.06   0.40
   9   6     0.00  -0.00   0.00    -0.12  -0.05   0.08    -0.06  -0.14  -0.18
  10   1    -0.15   0.20  -0.11    -0.09   0.07   0.23     0.16   0.03  -0.13
  11   6    -0.16   0.22  -0.12    -0.08  -0.23  -0.30    -0.00   0.08   0.16
  12   1    -0.28   0.37  -0.21    -0.11   0.07   0.28     0.26   0.03  -0.30
  13   1     0.15  -0.21   0.12    -0.23  -0.21  -0.07    -0.27  -0.16   0.07
                     19                     20                     21
                        a                      a                      a 
 Frequencies --  1127.6460              1178.2976              1206.7025
 Red. masses --     2.5790                 1.7165                 8.4490
 Frc consts  --     0.0000                 0.0000                 0.0000
 IR Inten    --   213.7997                13.2985               533.6162
 Raman Activ --     0.0000                 0.0000                 0.0000
 Depolar     --     0.0000                 0.0000                 0.0000
 Atom AN      X      Y      Z        X      Y      Z        X      Y      Z
   1   6    -0.03  -0.03  -0.02    -0.04   0.02   0.10     0.11   0.14   0.11
   2   6     0.01   0.07   0.12     0.03   0.00  -0.04    -0.12  -0.05   0.06
   3   8     0.10  -0.06  -0.24     0.02   0.01  -0.01     0.26   0.12  -0.14
   4   1     0.38   0.26  -0.03     0.40   0.29  -0.01     0.21   0.16   0.01
   5   6     0.03  -0.03  -0.10    -0.07  -0.04   0.02     0.02  -0.07  -0.16
   6   8     0.01  -0.00  -0.02    -0.06  -0.02   0.03     0.12   0.05  -0.07
   7   6    -0.06  -0.02   0.04     0.05  -0.03  -0.12    -0.09  -0.04   0.06
   8   1    -0.45  -0.07   0.47    -0.01   0.00   0.02     0.11   0.03  -0.09
   9   6    -0.07  -0.04   0.01    -0.01  -0.02  -0.04    -0.50  -0.20   0.30
  10   1    -0.23  -0.00   0.31     0.29  -0.02  -0.41     0.18  -0.02  -0.28
  11   6     0.05   0.03  -0.01     0.07   0.08   0.05    -0.12  -0.05   0.06
  12   1    -0.12  -0.00   0.15    -0.23   0.02   0.34     0.22   0.03  -0.24
  13   1     0.20   0.12  -0.04    -0.43  -0.30   0.03     0.21   0.12  -0.06
                     22                     23                     24
                        a                      a                      a 
 Frequencies --  1250.4123              1315.3437              1371.1949
 Red. masses --     6.0439                 7.9783                11.6495
 Frc consts  --     0.0000                 0.0000                 0.0000
 IR Inten    --     4.0398                63.0319               152.4931
 Raman Activ --     0.0000                 0.0000                 0.0000
 Depolar     --     0.0000                 0.0000                 0.0000
 Atom AN      X      Y      Z        X      Y      Z        X      Y      Z
   1   6    -0.01  -0.06  -0.09     0.15  -0.08  -0.34    -0.21  -0.03   0.22
   2   6     0.14   0.35   0.44     0.07   0.21   0.28    -0.39  -0.17   0.23
   3   8    -0.01   0.01   0.03     0.03  -0.03  -0.10    -0.12  -0.05   0.07
   4   1     0.16   0.11  -0.02    -0.27  -0.19   0.02     0.15   0.07  -0.07
   5   6    -0.05  -0.07  -0.06    -0.27  -0.25  -0.08    -0.27  -0.15   0.09
   6   8    -0.01  -0.03  -0.04     0.01   0.01  -0.00     0.36   0.14  -0.23
   7   6     0.11  -0.02  -0.18     0.05  -0.01  -0.07     0.14   0.15   0.08
   8   1     0.04   0.01  -0.04    -0.18  -0.03   0.19    -0.03  -0.01   0.02
   9   6     0.02   0.01  -0.01     0.09   0.25   0.34     0.29   0.11  -0.18
  10   1    -0.15   0.00   0.19     0.22  -0.01  -0.31     0.14   0.05  -0.10
  11   6    -0.18  -0.13  -0.01    -0.06  -0.04   0.00     0.03  -0.09  -0.19
  12   1     0.26  -0.03  -0.40    -0.11  -0.01   0.12     0.06  -0.02  -0.13
  13   1    -0.37  -0.27   0.01     0.11   0.06  -0.03     0.12   0.10   0.02
                     25                     26                     27
                        a                      a                      a 
 Frequencies --  1430.7636              1502.2382              1546.0215
 Red. masses --    10.6719                10.3258                11.3959
 Frc consts  --     0.0000                 0.0000                 0.0000
 IR Inten    --   153.9707               813.0807                15.3895
 Raman Activ --     0.0000                 0.0000                 0.0000
 Depolar     --     0.0000                 0.0000                 0.0000
 Atom AN      X      Y      Z        X      Y      Z        X      Y      Z
   1   6    -0.35  -0.17   0.16     0.08  -0.06  -0.21    -0.07   0.08   0.23
   2   6     0.03   0.14   0.20    -0.47  -0.19   0.29    -0.08  -0.19  -0.23
   3   8    -0.00  -0.03  -0.05     0.04   0.02  -0.02     0.01  -0.03  -0.07
   4   1    -0.13  -0.12  -0.05    -0.16  -0.10   0.03     0.04   0.00  -0.06
   5   6     0.32   0.10  -0.26     0.17   0.16   0.07     0.19   0.19   0.08
   6   8    -0.00  -0.03  -0.06     0.23   0.09  -0.14     0.00   0.01   0.01
   7   6    -0.36  -0.12   0.27     0.13  -0.06  -0.27    -0.00  -0.18  -0.31
   8   1    -0.06  -0.01   0.05     0.03   0.00  -0.03    -0.10  -0.02   0.11
   9   6     0.03   0.06   0.07    -0.26  -0.11   0.15     0.17   0.40   0.50
  10   1     0.08  -0.04  -0.18    -0.14  -0.01   0.16    -0.07  -0.04   0.01
  11   6     0.39   0.17  -0.21     0.22   0.19   0.06    -0.18  -0.24  -0.20
  12   1     0.02  -0.06  -0.13    -0.15  -0.01   0.17     0.07   0.01  -0.08
  13   1    -0.10  -0.11  -0.06    -0.19  -0.12   0.04    -0.10  -0.06   0.02
                     28                     29                     30
                        a                      a                      a 
 Frequencies --  1627.9632              3001.5835              3013.7685
 Red. masses --    11.6083                 1.7566                 1.8015
 Frc consts  --     0.0000                 0.0000                 0.0000
 IR Inten    --    99.2563               112.1378               407.0664
 Raman Activ --     0.0000                 0.0000                 0.0000
 Depolar     --     0.0000                 0.0000                 0.0000
 Atom AN      X      Y      Z        X      Y      Z        X      Y      Z
   1   6    -0.32  -0.08   0.28    -0.01  -0.01  -0.01     0.15   0.16   0.09
   2   6     0.24   0.09  -0.15     0.00  -0.00  -0.01     0.01   0.00  -0.00
   3   8     0.05   0.02  -0.03    -0.00  -0.00  -0.00     0.00   0.00   0.00
   4   1    -0.08  -0.07  -0.01     0.02  -0.03  -0.08    -0.04   0.07   0.19
   5   6    -0.34  -0.17   0.14     0.03  -0.05  -0.12    -0.02   0.03   0.08
   6   8    -0.06  -0.02   0.04     0.00   0.00   0.00    -0.00  -0.00  -0.00
   7   6     0.31   0.04  -0.33     0.13   0.15   0.09     0.05   0.06   0.04
   8   1     0.00   0.00   0.00    -0.00  -0.00   0.00    -0.00  -0.00   0.00
   9   6    -0.24  -0.09   0.17     0.01   0.01  -0.00     0.00  -0.00  -0.01
  10   1    -0.05   0.01   0.09    -0.49  -0.55  -0.34    -0.17  -0.20  -0.12
  11   6     0.38   0.22  -0.12    -0.01   0.01   0.02     0.01  -0.02  -0.04
  12   1     0.03  -0.03  -0.09     0.04   0.05   0.03    -0.52  -0.57  -0.34
  13   1     0.06   0.06   0.02    -0.10   0.18   0.46     0.06  -0.11  -0.29
                     31                     32                     33
                        a                      a                      a 
 Frequencies --  3024.1748              3046.8343              3485.0360
 Red. masses --     1.8274                 1.8585                 1.8693
 Frc consts  --     0.0000                 0.0000                 0.0000
 IR Inten    --   333.2610               107.5952                94.3000
 Raman Activ --     0.0000                 0.0000                 0.0000
 Depolar     --     0.0000                 0.0000                 0.0000
 Atom AN      X      Y      Z        X      Y      Z        X      Y      Z
   1   6     0.05   0.06   0.03     0.06   0.07   0.04    -0.00   0.00   0.00
   2   6     0.01   0.01  -0.01     0.01   0.00  -0.01     0.00   0.00  -0.00
   3   8     0.00   0.00  -0.00     0.00  -0.00  -0.00     0.12   0.16   0.13
   4   1    -0.08   0.14   0.36     0.16  -0.31  -0.78     0.00  -0.00  -0.01
   5   6     0.04  -0.07  -0.19     0.01  -0.02  -0.05    -0.00  -0.00  -0.00
   6   8    -0.00  -0.00   0.00    -0.00  -0.00   0.00    -0.00  -0.00   0.00
   7   6    -0.07  -0.08  -0.05    -0.03  -0.04  -0.03    -0.00  -0.00  -0.00
   8   1    -0.00  -0.00  -0.00     0.00   0.01   0.00    -0.50  -0.66  -0.51
   9   6    -0.00  -0.00   0.00    -0.01  -0.00   0.01     0.01   0.01   0.00
  10   1     0.23   0.26   0.16     0.11   0.12   0.08     0.00  -0.00  -0.00
  11   6     0.02  -0.04  -0.10    -0.05   0.09   0.22     0.00   0.00   0.00
  12   1    -0.19  -0.21  -0.13    -0.21  -0.23  -0.14    -0.00  -0.00  -0.00
  13   1    -0.14   0.26   0.66    -0.04   0.08   0.19    -0.00   0.00   0.00
