13
 energy: -23.811635302121 gnorm: 0.058971191352 xtb: 6.7.1 (edcfbbe)
C           -6.32095800000000       -3.54648800000000        2.04286000000000
C           -6.00247700000000       -4.02195100000000        0.75541100000000
O           -9.37971400000000       -5.32152700000000        2.92490000000000
H           -7.63528800000000       -3.57442800000000        3.75239200000000
C           -6.90392200000000       -4.97282200000000        0.24081600000000
O           -4.98016100000000       -3.62421300000000        0.10655200000000
C           -8.03256000000000       -5.42042300000000        0.94175700000000
H           -9.84762300000000       -5.97025200000000        2.37680700000000
C           -8.29232100000000       -4.91425400000000        2.20616800000000
H           -8.67621700000000       -6.15456600000000        0.47437000000000
C           -7.44296100000000       -3.97717100000000        2.76556000000000
H           -5.66041200000000       -2.80803100000000        2.49543800000000
H           -6.70896500000000       -5.37687100000000       -0.75188400000000
13
 energy: -23.813632113066 gnorm: 0.019455571682 xtb: 6.7.1 (edcfbbe)
C           -6.32324266289053       -3.54364559171528        2.05091536767441
C           -6.00268454709191       -4.02152879111882        0.75673862211143
O           -9.38805458309589       -5.32579730650447        2.92896947918283
H           -7.63333603669516       -3.57920743105288        3.74070777579810
C           -6.90774451636202       -4.97778085104139        0.23687083961777
O           -4.97157269267484       -3.61956443904513        0.10430759100102
C           -8.02038044545221       -5.41425286821581        0.93599862041749
H           -9.86837789813306       -5.97619056150150        2.39484969652029
C           -8.28911060944721       -4.91452313112185        2.20123354528402
H           -8.66942257686638       -6.14786197322527        0.47644005820591
C           -7.43348616200425       -3.97553365043031        2.75551010744980
H           -5.66428600662668       -2.80732015498650        2.50174783909011
H           -6.71188026265985       -5.37979025004079       -0.75314254235319
13
 energy: -23.813916060782 gnorm: 0.002029898172 xtb: 6.7.1 (edcfbbe)
C           -6.32348731680623       -3.54167263211706        2.05465543286680
C           -6.00285970567554       -4.02147585521053        0.75740411728295
O           -9.39264049604782       -5.32779709430874        2.93181294677012
H           -7.63804512056179       -3.58481108921974        3.73638559446015
C           -6.90814073520989       -4.98005089468655        0.23318730638208
O           -4.96801766381674       -3.61748395780322        0.10447673718689
C           -8.01377221137377       -5.41101247113227        0.93255347075020
H           -9.88073809340349       -5.97918621193889        2.40749219033952
C           -8.28778491687290       -4.91507497631421        2.19824820747112
H           -8.66991054257970       -6.14526267519805        0.48064417932895
C           -7.42885158090018       -3.97496053103998        2.74999429624953
H           -5.66223373550562       -2.80670156267138        2.49986357169664
H           -6.70709688124631       -5.37750704835938       -0.75557105078495
13
 energy: -23.813929564620 gnorm: 0.000950248903 xtb: 6.7.1 (edcfbbe)
C           -6.32299106507417       -3.54106829898194        2.05508110082188
C           -6.00297488668321       -4.02161883264558        0.75751849873499
O           -9.39267077426490       -5.32757238448475        2.93216043945727
H           -7.64149435983716       -3.58694605212382        3.73688851202710
C           -6.90760218706941       -4.98031628858983        0.23198391498088
O           -4.96807261689796       -3.61744162664308        0.10507149310087
C           -8.01334690353704       -5.41101515809076        0.93185657286184
H           -9.88215516628810       -5.97925222229543        2.41011131555478
C           -8.28751668882210       -4.91523551084703        2.19753005224916
H           -8.67194066542906       -6.14549374980001        0.48234376601903
C           -7.42865033733895       -3.97491403189038        2.74974104743396
H           -5.66007804410225       -2.80625758304682        2.49761788354660
H           -6.70408530465569       -5.37586526056058       -0.75675759678837
13
 energy: -23.813932921519 gnorm: 0.000645149611 xtb: 6.7.1 (edcfbbe)
C           -6.32268120855120       -3.54051488160232        2.05566042955947
C           -6.00370716514823       -4.02201467404068        0.75792235339173
O           -9.39142618633960       -5.32653210901782        2.93198408513845
H           -7.64560069863501       -3.58937081292721        3.73773766603235
C           -6.90729036373439       -4.98064661367305        0.23084700073080
O           -4.96892506173946       -3.61775292895709        0.10626981521289
C           -8.01343050420133       -5.41144821205448        0.93088875984025
H           -9.88220202439823       -5.97876929725109        2.41238847398977
C           -8.28675935350791       -4.91517238086162        2.19638508611880
H           -8.67430956478359       -6.14609028676911        0.48393305477802
C           -7.42860052243111       -3.97467424539686        2.74997447110697
H           -5.65770125288295       -2.80591317601638        2.49506735719561
H           -6.70094509364697       -5.37409738143229       -0.75791155309512
