13
 energy: -23.813932921742 gnorm: 0.000642821458 xtb: 6.7.1 (edcfbbe)
C           -6.32269257086967       -3.54047818830029        2.05568867922893
C           -6.00372557856940       -4.02198191583201        0.75795033001729
O           -9.39144384119613       -5.32647781832017        2.93202616393011
H           -7.64560644516346       -3.58932425708633        3.73777061881886
C           -6.90731563636181       -4.98061004420961        0.23087980458912
O           -4.96894363317647       -3.61772672619733        0.10629347420262
C           -8.01345558886300       -5.41140462905769        0.93092617674136
H           -9.88222490808259       -5.97871334370315        2.41243340428488
C           -8.28677742224594       -4.91512515804125        2.19642259094322
H           -8.67434005617843       -6.14604402348315        0.48397406077794
C           -7.42861173435859       -3.97463054971432        2.75000733890885
H           -5.65770723502998       -2.80587919765071        2.49509200352195
H           -6.70097587780698       -5.37406361807533       -0.75787878280901
