 Entering Gaussian System
 *********************************************
 Gaussian 98:
 frequency output generated by the xtb code
 *********************************************
                         Standard orientation:
 --------------------------------------------------------------------
  Center     Atomic     Atomic              Coordinates (Angstroms)
  Number     Number      Type              X           Y           Z
 --------------------------------------------------------------------
    1          6             0       -4.063804   -1.941840    1.926061
    2          6             0       -3.774208   -2.420502    0.671341
    3         17             0       -7.410554   -3.926893    2.812891
    4          6             0       -5.198920   -2.371169    2.668227
    5          1             0       -3.426544   -1.207462    2.402642
    6          6             0       -4.587231   -3.361629    0.055750
    7          1             0       -2.895115   -2.053421    0.158525
    8          6             0       -5.708275   -3.818915    0.729213
    9          1             0       -4.356762   -3.734779   -0.929208
   10          6             0       -5.990287   -3.334543    1.984024
   11          1             0       -6.367558   -4.550941    0.286498
   12          8             0       -5.479101   -1.933062    3.835964
 --------------------------------------------------------------------
     1 basis functions        1 primitive gaussians
     1 alpha electrons        1 beta electrons
 
 Harmonic frequencies (cm**-1), IR intensities (km*mol⁻¹),
 Raman scattering activities (A**4/amu), Raman depolarization ratios,
 reduced masses (AMU), force constants (mDyne/A) and normal coordinates:
                      1                      2                      3
                        a                      a                      a 
 Frequencies --   136.4353               207.7126               240.0366
 Red. masses --    15.3243                22.8120                12.2384
 Frc consts  --     0.0000                 0.0000                 0.0000
 IR Inten    --     2.8555                 6.3569                 2.9228
 Raman Activ --     0.0000                 0.0000                 0.0000
 Depolar     --     0.0000                 0.0000                 0.0000
 Atom AN      X      Y      Z        X      Y      Z        X      Y      Z
   1   6     0.20  -0.27   0.15    -0.05  -0.01   0.06    -0.20   0.27  -0.15
   2   6     0.18  -0.25   0.14     0.02   0.05   0.05     0.13  -0.18   0.10
   3  17     0.22  -0.29   0.16     0.27   0.42   0.40     0.11  -0.14   0.08
   4   6    -0.06   0.08  -0.05    -0.09  -0.14  -0.12    -0.14   0.19  -0.11
   5   1     0.11  -0.15   0.08    -0.03  -0.00   0.04    -0.05   0.07  -0.04
   6   6    -0.11   0.16  -0.09     0.11   0.04  -0.07     0.18  -0.24   0.13
   7   1     0.11  -0.15   0.08     0.01   0.03   0.03     0.10  -0.14   0.08
   8   6    -0.21   0.28  -0.16     0.05  -0.08  -0.21    -0.14   0.19  -0.11
   9   1    -0.06   0.08  -0.05     0.06   0.04  -0.02     0.13  -0.18   0.10
  10   6    -0.09   0.12  -0.07     0.00  -0.12  -0.22    -0.28   0.39  -0.21
  11   1    -0.09   0.13  -0.07     0.03  -0.02  -0.09    -0.04   0.06  -0.03
  12   8    -0.26   0.35  -0.20    -0.45  -0.41  -0.13     0.20  -0.27   0.15
                      4                      5                      6
                        a                      a                      a 
 Frequencies --   347.7380               392.7184               509.1387
 Red. masses --    23.8294                 9.7782                13.4932
 Frc consts  --     0.0000                 0.0000                 0.0000
 IR Inten    --     2.2450                 0.0979                20.4929
 Raman Activ --     0.0000                 0.0000                 0.0000
 Depolar     --     0.0000                 0.0000                 0.0000
 Atom AN      X      Y      Z        X      Y      Z        X      Y      Z
   1   6     0.06   0.02  -0.06    -0.20   0.27  -0.15    -0.40  -0.23   0.13
   2   6     0.27   0.18  -0.03     0.14  -0.19   0.11    -0.14  -0.01   0.16
   3  17    -0.55  -0.18   0.41    -0.03   0.04  -0.02     0.18   0.13  -0.01
   4   6    -0.00  -0.11  -0.19     0.10  -0.14   0.08    -0.31  -0.17   0.11
   5   1    -0.03   0.01   0.05    -0.17   0.23  -0.12    -0.15  -0.06   0.08
   6   6     0.24   0.18   0.01     0.04  -0.06   0.03     0.11  -0.01  -0.16
   7   1     0.08   0.06   0.01     0.05  -0.07   0.04    -0.02   0.06   0.13
   8   6     0.16   0.07  -0.09    -0.22   0.30  -0.17     0.08  -0.07  -0.24
   9   1     0.07   0.05   0.00    -0.01   0.02  -0.01     0.09   0.04  -0.05
  10   6    -0.13  -0.13  -0.06     0.33  -0.44   0.24    -0.09  -0.15  -0.16
  11   1     0.10   0.02  -0.10    -0.18   0.24  -0.13     0.04  -0.02  -0.09
  12   8     0.24   0.04  -0.25    -0.04   0.06  -0.03     0.39   0.36   0.12
                      7                      8                      9
                        a                      a                      a 
 Frequencies --   513.4617               531.4926               649.0974
 Red. masses --    10.2572                13.2964                13.6501
 Frc consts  --     0.0000                 0.0000                 0.0000
 IR Inten    --     0.0390                13.4071                18.6507
 Raman Activ --     0.0000                 0.0000                 0.0000
 Depolar     --     0.0000                 0.0000                 0.0000
 Atom AN      X      Y      Z        X      Y      Z        X      Y      Z
   1   6     0.14  -0.18   0.10     0.13   0.21   0.21    -0.22  -0.27  -0.20
   2   6    -0.23   0.32  -0.17    -0.08   0.10   0.29     0.28   0.09  -0.20
   3  17     0.03  -0.04   0.02     0.16   0.04  -0.14     0.25   0.10  -0.15
   4   6     0.20  -0.27   0.15     0.05  -0.11  -0.27    -0.18  -0.20  -0.10
   5   1    -0.03   0.04  -0.02    -0.02   0.06   0.13    -0.13  -0.07   0.04
   6   6     0.28  -0.38   0.21    -0.20   0.09   0.43     0.00   0.12   0.21
   7   1    -0.17   0.23  -0.13    -0.04  -0.03   0.01     0.08   0.04  -0.03
   8   6    -0.18   0.24  -0.13    -0.30  -0.23  -0.01     0.06   0.24   0.37
   9   1     0.10  -0.14   0.08     0.00   0.07   0.12    -0.12  -0.05   0.06
  10   6    -0.09   0.12  -0.07    -0.13  -0.14  -0.07    -0.31  -0.07   0.29
  11   1    -0.11   0.15  -0.08    -0.05  -0.07  -0.05     0.05   0.07   0.06
  12   8    -0.10   0.13  -0.08     0.25  -0.01  -0.35    -0.01  -0.08  -0.14
                     10                     11                     12
                        a                      a                      a 
 Frequencies --   658.5052               759.1361               827.2274
 Red. masses --    11.4898                 3.4088                 4.0149
 Frc consts  --     0.0000                 0.0000                 0.0000
 IR Inten    --     9.9117                36.6665                 4.2255
 Raman Activ --     0.0000                 0.0000                 0.0000
 Depolar     --     0.0000                 0.0000                 0.0000
 Atom AN      X      Y      Z        X      Y      Z        X      Y      Z
   1   6     0.14  -0.19   0.10    -0.07   0.10  -0.05     0.20  -0.27   0.15
   2   6    -0.15   0.20  -0.11    -0.09   0.12  -0.07     0.09  -0.12   0.06
   3  17    -0.01   0.02  -0.01    -0.01   0.01  -0.01     0.00  -0.00   0.00
   4   6    -0.37   0.50  -0.28     0.14  -0.19   0.10    -0.09   0.12  -0.07
   5   1     0.12  -0.16   0.09     0.15  -0.20   0.11    -0.37   0.50  -0.28
   6   6     0.12  -0.17   0.09    -0.14   0.18  -0.10    -0.15   0.20  -0.11
   7   1     0.03  -0.04   0.02     0.19  -0.26   0.14    -0.14   0.19  -0.11
   8   6    -0.13   0.18  -0.10    -0.09   0.12  -0.07    -0.02   0.03  -0.02
   9   1     0.05  -0.07   0.04     0.38  -0.51   0.28     0.23  -0.31   0.17
  10   6     0.24  -0.32   0.18     0.05  -0.07   0.04    -0.00   0.00  -0.00
  11   1     0.02  -0.02   0.01     0.17  -0.23   0.13     0.06  -0.08   0.05
  12   8     0.10  -0.13   0.07    -0.04   0.06  -0.03     0.03  -0.04   0.02
                     13                     14                     15
                        a                      a                      a 
 Frequencies --   844.7589               877.8376               903.0781
 Red. masses --    12.0271                 3.2835                 3.0197
 Frc consts  --     0.0000                 0.0000                 0.0000
 IR Inten    --    22.9234                 1.2151                 0.0012
 Raman Activ --     0.0000                 0.0000                 0.0000
 Depolar     --     0.0000                 0.0000                 0.0000
 Atom AN      X      Y      Z        X      Y      Z        X      Y      Z
   1   6    -0.09   0.03   0.17    -0.01   0.02  -0.01     0.11  -0.15   0.08
   2   6    -0.41  -0.15   0.28     0.06  -0.08   0.05    -0.19   0.26  -0.14
   3  17    -0.02  -0.01   0.01    -0.01   0.01  -0.00    -0.00  -0.00   0.00
   4   6     0.06  -0.05  -0.17     0.05  -0.07   0.04     0.03  -0.04   0.02
   5   1    -0.02   0.01   0.03    -0.05   0.06  -0.03    -0.24   0.33  -0.18
   6   6     0.06  -0.11  -0.28     0.08  -0.11   0.06     0.04  -0.06   0.03
   7   1    -0.09   0.02   0.16    -0.05   0.07  -0.04     0.41  -0.55   0.31
   8   6     0.27   0.33   0.24    -0.22   0.29  -0.16     0.03  -0.04   0.02
   9   1     0.02  -0.03  -0.07    -0.18   0.25  -0.14    -0.12   0.16  -0.09
  10   6     0.06   0.13   0.15     0.01  -0.01   0.00    -0.03   0.05  -0.03
  11   1     0.00   0.09   0.17     0.44  -0.60   0.33     0.01  -0.01   0.01
  12   8     0.09  -0.16  -0.42    -0.01   0.01  -0.01    -0.00   0.00  -0.00
                     16                     17                     18
                        a                      a                      a 
 Frequencies --   994.3850              1078.2037              1139.5510
 Red. masses --    11.4680                 6.2069                 5.3484
 Frc consts  --     0.0000                 0.0000                 0.0000
 IR Inten    --    75.1292                 1.8501                27.6669
 Raman Activ --     0.0000                 0.0000                 0.0000
 Depolar     --     0.0000                 0.0000                 0.0000
 Atom AN      X      Y      Z        X      Y      Z        X      Y      Z
   1   6     0.33   0.30   0.10    -0.11  -0.19  -0.19     0.10   0.12   0.09
   2   6    -0.08  -0.07  -0.01    -0.31  -0.19   0.08    -0.06  -0.06  -0.04
   3  17     0.10   0.05  -0.05    -0.01  -0.00   0.01    -0.02  -0.00   0.03
   4   6    -0.03  -0.02  -0.01     0.13   0.11   0.02    -0.24  -0.18   0.01
   5   1     0.16   0.08  -0.06     0.24  -0.05  -0.42    -0.14   0.03   0.25
   6   6     0.08  -0.10  -0.27     0.02   0.22   0.36    -0.16  -0.04   0.15
   7   1    -0.03  -0.07  -0.08    -0.11  -0.10  -0.03    -0.13  -0.33  -0.42
   8   6     0.09   0.07   0.01     0.16   0.11  -0.02     0.29   0.20  -0.04
   9   1     0.01  -0.04  -0.08     0.13   0.15   0.10    -0.33  -0.21   0.06
  10   6    -0.61  -0.35   0.18    -0.03  -0.05  -0.05     0.21   0.05  -0.18
  11   1     0.13   0.01  -0.16     0.30   0.02  -0.36     0.20   0.05  -0.16
  12   8    -0.03   0.08   0.17    -0.01  -0.01  -0.01     0.02   0.04   0.05
                     19                     20                     21
                        a                      a                      a 
 Frequencies --  1165.7107              1217.0551              1297.4585
 Red. masses --     1.8726                 4.9507                 8.2039
 Frc consts  --     0.0000                 0.0000                 0.0000
 IR Inten    --     0.9541                 4.1555                28.1193
 Raman Activ --     0.0000                 0.0000                 0.0000
 Depolar     --     0.0000                 0.0000                 0.0000
 Atom AN      X      Y      Z        X      Y      Z        X      Y      Z
   1   6    -0.07   0.00   0.10    -0.14  -0.08   0.05     0.24   0.06  -0.21
   2   6     0.05   0.04   0.02    -0.05  -0.11  -0.14     0.06   0.09   0.08
   3  17    -0.01  -0.00   0.00     0.00  -0.00  -0.01     0.01   0.00  -0.00
   4   6     0.16   0.12   0.01     0.40   0.28  -0.03    -0.33  -0.23   0.03
   5   1     0.06   0.00  -0.08    -0.40  -0.02   0.50    -0.01   0.02   0.04
   6   6    -0.06  -0.06  -0.02     0.04  -0.01  -0.08    -0.29  -0.24  -0.05
   7   1     0.12   0.31   0.40    -0.02  -0.06  -0.07     0.07   0.17   0.22
   8   6    -0.03  -0.02   0.01    -0.12  -0.06   0.05    -0.00  -0.04  -0.07
   9   1    -0.58  -0.42   0.01     0.16   0.10  -0.03     0.22   0.15  -0.03
  10   6     0.01  -0.04  -0.09    -0.07   0.03   0.14     0.15   0.29   0.32
  11   1     0.21  -0.01  -0.30     0.23  -0.03  -0.36     0.24  -0.02  -0.36
  12   8     0.01  -0.01  -0.03    -0.04  -0.03   0.00     0.01  -0.02  -0.04
                     22                     23                     24
                        a                      a                      a 
 Frequencies --  1349.1931              1438.6462              1497.6017
 Red. masses --     9.0982                10.3770                11.6480
 Frc consts  --     0.0000                 0.0000                 0.0000
 IR Inten    --   231.1172                55.0486               550.8951
 Raman Activ --     0.0000                 0.0000                 0.0000
 Depolar     --     0.0000                 0.0000                 0.0000
 Atom AN      X      Y      Z        X      Y      Z        X      Y      Z
   1   6     0.23   0.00  -0.30    -0.01   0.17   0.31    -0.09  -0.04   0.05
   2   6    -0.20  -0.16  -0.02     0.03  -0.21  -0.42    -0.00   0.09   0.16
   3  17    -0.01  -0.00   0.01    -0.01  -0.00   0.01    -0.01  -0.01  -0.00
   4   6     0.10  -0.11  -0.33    -0.17  -0.09   0.08     0.06  -0.28  -0.59
   5   1    -0.19  -0.01   0.25     0.09   0.05  -0.03     0.07  -0.02  -0.13
   6   6    -0.13   0.02   0.20    -0.01  -0.01  -0.01     0.23   0.07  -0.19
   7   1     0.03   0.21   0.34     0.08   0.12   0.12    -0.04  -0.10  -0.12
   8   6     0.20   0.15   0.00    -0.18   0.12   0.47    -0.27  -0.07   0.24
   9   1     0.04   0.06   0.06     0.22   0.16  -0.01    -0.04  -0.06  -0.05
  10   6    -0.03  -0.14  -0.22     0.15  -0.11  -0.39     0.17   0.15   0.06
  11   1    -0.08   0.05   0.20     0.13   0.03  -0.11     0.08  -0.02  -0.15
  12   8    -0.09   0.13   0.35     0.05   0.01  -0.04    -0.08   0.14   0.35
                     25                     26                     27
                        a                      a                      a 
 Frequencies --  1529.1715              1597.5957              3031.7773
 Red. masses --    11.1211                11.6247                 1.7526
 Frc consts  --     0.0000                 0.0000                 0.0000
 IR Inten    --    31.5054               271.7025               105.2209
 Raman Activ --     0.0000                 0.0000                 0.0000
 Depolar     --     0.0000                 0.0000                 0.0000
 Atom AN      X      Y      Z        X      Y      Z        X      Y      Z
   1   6    -0.25  -0.08   0.19    -0.17   0.11   0.43     0.12   0.14   0.10
   2   6     0.28   0.27   0.11    -0.01  -0.25  -0.43    -0.12  -0.05   0.07
   3  17    -0.01  -0.00   0.01    -0.01  -0.00   0.00     0.00   0.00  -0.00
   4   6     0.26   0.09  -0.18     0.04  -0.12  -0.26     0.00   0.01   0.01
   5   1     0.08  -0.02  -0.14     0.09   0.03  -0.07    -0.46  -0.53  -0.34
   6   6    -0.51  -0.39  -0.03    -0.04   0.07   0.18    -0.00  -0.00   0.00
   7   1     0.04  -0.03  -0.10     0.04   0.07   0.07     0.47   0.19  -0.27
   8   6     0.22   0.17   0.01     0.19  -0.07  -0.38    -0.00  -0.00  -0.00
   9   1     0.17   0.11  -0.02    -0.01   0.02   0.05    -0.00   0.01   0.02
  10   6    -0.05  -0.13  -0.15    -0.01   0.19   0.36    -0.00  -0.00  -0.00
  11   1     0.05   0.05   0.02    -0.06  -0.01   0.06     0.01   0.01   0.01
  12   8    -0.03   0.03   0.10    -0.01   0.02   0.06    -0.00  -0.00  -0.00
                     28                     29                     30
                        a                      a                      a 
 Frequencies --  3048.2881              3069.7024              3090.7534
 Red. masses --     1.8574                 1.7875                 1.8882
 Frc consts  --     0.0000                 0.0000                 0.0000
 IR Inten    --   299.6607                62.3312               134.7354
 Raman Activ --     0.0000                 0.0000                 0.0000
 Depolar     --     0.0000                 0.0000                 0.0000
 Atom AN      X      Y      Z        X      Y      Z        X      Y      Z
   1   6    -0.10  -0.11  -0.07    -0.00  -0.00   0.00    -0.02  -0.02  -0.02
   2   6    -0.18  -0.07   0.10     0.00  -0.00  -0.00    -0.05  -0.02   0.03
   3  17    -0.00  -0.00   0.00    -0.00  -0.00   0.00    -0.00  -0.00   0.00
   4   6     0.00  -0.00  -0.01    -0.00  -0.00  -0.00    -0.00  -0.00  -0.00
   5   1     0.33   0.38   0.24     0.00   0.00   0.00     0.06   0.07   0.05
   6   6     0.01  -0.01  -0.04     0.02  -0.03  -0.09    -0.05   0.09   0.23
   7   1     0.61   0.26  -0.36     0.01   0.00  -0.00     0.14   0.06  -0.08
   8   6    -0.02  -0.02  -0.01     0.15   0.17   0.10     0.07   0.07   0.05
   9   1    -0.04   0.06   0.17    -0.08   0.13   0.34     0.19  -0.30  -0.79
  10   6     0.00   0.00   0.00     0.01   0.01  -0.00     0.00   0.00  -0.00
  11   1     0.05   0.06   0.04    -0.54  -0.60  -0.37    -0.22  -0.24  -0.15
  12   8    -0.00   0.00   0.00    -0.00   0.00   0.00    -0.00   0.00   0.00
