12
 energy: -23.771958197654 gnorm: 0.159567710615 xtb: 6.7.1 (edcfbbe)
C           -4.02444900000000       -1.88427200000000        1.97729900000000
C           -3.71373800000000       -2.38953800000000        0.64632200000000
Cl          -7.50175900000000       -3.99084300000000        2.81925400000000
C           -5.20226300000000       -2.37050800000000        2.67406800000000
H           -3.38027200000000       -1.15004800000000        2.44415400000000
C           -4.58036800000000       -3.37640900000000        0.01987700000000
H           -2.83611900000000       -2.02404000000000        0.13289600000000
C           -5.76108200000000       -3.86108800000000        0.72335500000000
H           -4.34935000000000       -3.75062300000000       -0.96710000000000
C           -6.08499300000000       -3.36189300000000        2.06099700000000
H           -6.40321300000000       -4.59377700000000        0.25653300000000
O           -5.42062400000000       -1.90245600000000        3.81400200000000
12
 energy: -23.797976769835 gnorm: 0.048303412772 xtb: 6.7.1 (edcfbbe)
C           -4.05086414831750       -1.92618606959430        1.93682132220595
C           -3.75611370530844       -2.41077081477354        0.66453929520388
Cl          -7.44293000720444       -3.95980794320968        2.79642360766891
C           -5.19937579169106       -2.37240696779894        2.66687451631084
H           -3.41221505394420       -1.19242379851137        2.41022948360646
C           -4.58919779056680       -3.36134652257607        0.05905983230278
H           -2.87784813189484       -2.04635300887031        0.14823588949674
C           -5.72334489055178       -3.82780072214617        0.73325193471063
H           -4.36092211593778       -3.73703196928617       -0.92707949594058
C           -6.02819147145014       -3.34731737782999        2.01146013027066
H           -6.37186673610652       -4.56113304633836        0.27369961307384
O           -5.44536015702649       -1.91291675906508        3.82814087108989
12
 energy: -23.800381085055 gnorm: 0.012678807911 xtb: 6.7.1 (edcfbbe)
C           -4.06481219205422       -1.94458380787921        1.92231604663297
C           -3.77570735022483       -2.42083754649916        0.67263762926322
Cl          -7.40858865834324       -3.93089842683209        2.80260357883144
C           -5.19893762453216       -2.37339817816252        2.66450706648288
H           -3.43155192474133       -1.21025461022180        2.40395974108492
C           -4.58961056988105       -3.35949564317984        0.06296337187204
H           -2.89686684070050       -2.05484201048302        0.15814777539401
C           -5.70585430037988       -3.81476269642293        0.73356121891916
H           -4.36150230713529       -3.73517579009489       -0.92314075528810
C           -5.99495355582033       -3.33724399536957        1.98543039067271
H           -6.36204654017704       -4.54776941692649        0.28483302035349
O           -5.46779813601011       -1.92623287792848        3.83383791578127
12
 energy: -23.800519753134 gnorm: 0.004546319030 xtb: 6.7.1 (edcfbbe)
C           -4.06475380381402       -1.94303264927699        1.92511632330808
C           -3.77371622301393       -2.42034385162429        0.67077588285035
Cl          -7.40831104284557       -3.92646463152966        2.81025729233123
C           -5.19963779851651       -2.37247042368146        2.66712645611025
H           -3.43108118359710       -1.20877575862349        2.40614758819647
C           -4.58755413228233       -3.36153853766474        0.05649056536739
H           -2.89469947633131       -2.05357350635255        0.15755269542144
C           -5.70760789608750       -3.81788866750892        0.73032360441399
H           -4.35825876229351       -3.73591786292699       -0.92894900248065
C           -5.99367629360697       -3.33589495546810        1.98616412557235
H           -6.36545864921511       -4.55051357453134        0.28452960446318
O           -5.47347473839613       -1.92908058081146        3.83612186444592
12
 energy: -23.800541952627 gnorm: 0.002401594521 xtb: 6.7.1 (edcfbbe)
C           -4.06420185038628       -1.94232089065413        1.92569764763276
C           -3.77361289608342       -2.42025560222272        0.67089886746199
Cl          -7.40845591272707       -3.92527049994791        2.81285147556118
C           -5.19938594182254       -2.37207091866479        2.66739394054503
H           -3.42897567240515       -1.20794590388667        2.40493161499582
C           -4.58716805798714       -3.36180899742241        0.05542907689405
H           -2.89451848967734       -2.05311714405016        0.15823957211291
C           -5.70831458572606       -3.81897539554253        0.72923848975353
H           -4.35714848604881       -3.73532576458417       -0.92948674795601
C           -5.99178378284433       -3.33524093097608        1.98481411304893
H           -6.36730085702530       -4.55123361654173        0.28569134287417
O           -5.47736346726655       -1.93192933550671        3.83595760707563
12
 energy: -23.800548662672 gnorm: 0.000777538770 xtb: 6.7.1 (edcfbbe)
C           -4.06380861976948       -1.94184913442398        1.92603371095027
C           -3.77405702400480       -2.42039145266530        0.67118061981691
Cl          -7.40952486890444       -3.92578394683506        2.81346183941513
C           -5.19902845137973       -2.37155884992394        2.66786489160038
H           -3.42704730357532       -1.20743103478741        2.40335138071924
C           -4.58713518674215       -3.36177137465599        0.05542760561051
H           -2.89494473727830       -2.05333129496191        0.15851595554905
C           -5.70838158305409       -3.81919807406188        0.72893879748998
H           -4.35664748185855       -3.73486005545649       -0.92936217581289
C           -5.99052269823256       -3.33476984288194        1.98399735975824
H           -6.36776296170011       -4.55118292361786        0.28636616504503
O           -5.47936908350048       -1.93336701572825        3.83588084985814
12
 energy: -23.800549418247 gnorm: 0.000241094282 xtb: 6.7.1 (edcfbbe)
C           -4.06379980303269       -1.94186461368942        1.92604276155963
C           -3.77419743520894       -2.42052281467683        0.67132333827023
Cl          -7.41054304514918       -3.92693674693023        2.81285806167543
C           -5.19891616513417       -2.37120101704925        2.66820410613438
H           -3.42654548981850       -1.20748430591751        2.40262806207724
C           -4.58721317010730       -3.36165318549777        0.05572837860519
H           -2.89510435813755       -2.05343663262362        0.15851091902013
C           -5.70825689055334       -3.81894623447235        0.72918587657278
H           -4.35673925002238       -3.73480017594954       -0.92922997579587
C           -5.99027572186983       -3.33457764416336        1.98399677608608
H           -6.36753446560425       -4.55097409122833        0.28646784846655
O           -5.47910420536186       -1.93309753780179        3.83594084732824
