2
 energy: -3.950024992139 gnorm: 0.003412926375 xtb: 6.7.1 (edcfbbe)
S           -4.92947052524758       -3.62590395691130        0.85569700011461
H           -6.03454947475242       -4.31249804308870        1.13492499988539
2
 energy: -3.950035443953 gnorm: 0.001646788821 xtb: 6.7.1 (edcfbbe)
S           -4.92818515964731       -3.62510534933660        0.85537221783032
H           -6.03583484035269       -4.31329665066340        1.13524978216968
2
 energy: -3.950037962769 gnorm: 0.000764613340 xtb: 6.7.1 (edcfbbe)
S           -4.92638742791528       -3.62398840472708        0.85491797242471
H           -6.03763257208471       -4.31441359527292        1.13570402757529
