2
 energy: -3.950037962769 gnorm: 0.000764674312 xtb: 6.7.1 (edcfbbe)
S           -4.92640341872007       -3.62396111806991        0.85494149380734
H           -6.03765119779034       -4.31438000008028        1.13573263295238
