 Entering Gaussian System
 *********************************************
 Gaussian 98:
 frequency output generated by the xtb code
 *********************************************
                         Standard orientation:
 --------------------------------------------------------------------
  Center     Atomic     Atomic              Coordinates (Angstroms)
  Number     Number      Type              X           Y           Z
 --------------------------------------------------------------------
    1          6             0       -3.817276   -0.656745   -0.680905
    2          6             0       -2.512704    0.159746   -0.865009
    3          7             0       -1.469360   -0.456500   -0.391239
    4          8             0       -2.596622    1.278682   -1.427379
    5          1             0       -4.537783   -0.073228   -0.105649
    6          1             0       -4.255779   -0.871628   -1.656706
    7          1             0       -3.602132   -1.588786   -0.163050
    8          1             0       -0.629627    0.118046   -0.534877
 --------------------------------------------------------------------
     1 basis functions        1 primitive gaussians
     1 alpha electrons        1 beta electrons
 
 Harmonic frequencies (cm**-1), IR intensities (km*mol⁻¹),
 Raman scattering activities (A**4/amu), Raman depolarization ratios,
 reduced masses (AMU), force constants (mDyne/A) and normal coordinates:
                      1                      2                      3
                        a                      a                      a 
 Frequencies --    81.7458               405.3108               548.0689
 Red. masses --     1.9410                 9.8017                 8.2148
 Frc consts  --     0.0000                 0.0000                 0.0000
 IR Inten    --     0.0835                 2.9831                 6.9617
 Raman Activ --     0.0000                 0.0000                 0.0000
 Depolar     --     0.0000                 0.0000                 0.0000
 Atom AN      X      Y      Z        X      Y      Z        X      Y      Z
   1   6    -0.00   0.00   0.01     0.20  -0.27   0.17    -0.13  -0.08   0.01
   2   6    -0.00   0.01   0.02    -0.13   0.24  -0.14     0.01  -0.33  -0.58
   3   7     0.03  -0.08  -0.17    -0.46  -0.15  -0.00     0.02   0.19   0.08
   4   8    -0.03   0.08   0.16     0.30   0.33  -0.11     0.15   0.09   0.26
   5   1    -0.22   0.21  -0.48    -0.02  -0.25   0.12     0.19   0.19   0.08
   6   1     0.31  -0.47  -0.03    -0.01  -0.24   0.11    -0.32  -0.16   0.16
   7   1    -0.09   0.24   0.47     0.37   0.00   0.06    -0.04   0.06   0.16
   8   1     0.01  -0.03  -0.07    -0.03  -0.15   0.07    -0.09   0.24   0.24
                      4                      5                      6
                        a                      a                      a 
 Frequencies --   549.9066               796.9667               852.0216
 Red. masses --    11.1217                 4.3422                10.1591
 Frc consts  --     0.0000                 0.0000                 0.0000
 IR Inten    --    30.0111                97.7945                57.0423
 Raman Activ --     0.0000                 0.0000                 0.0000
 Depolar     --     0.0000                 0.0000                 0.0000
 Atom AN      X      Y      Z        X      Y      Z        X      Y      Z
   1   6     0.37   0.22  -0.05    -0.00   0.00   0.01    -0.49  -0.34   0.09
   2   6     0.27   0.02  -0.23    -0.04   0.14   0.28     0.39   0.25  -0.06
   3   7    -0.12  -0.34   0.20     0.06  -0.17  -0.34     0.25  -0.10   0.09
   4   8    -0.54   0.09  -0.04     0.02  -0.07  -0.14    -0.07   0.30  -0.16
   5   1     0.20   0.17  -0.01     0.02   0.02   0.01    -0.13  -0.07   0.01
   6   1     0.02   0.05   0.03    -0.02  -0.01   0.02    -0.13  -0.07   0.02
   7   1     0.05   0.08   0.04    -0.01   0.01   0.03    -0.25  -0.12   0.02
   8   1     0.10  -0.24   0.26    -0.12   0.37   0.76     0.21  -0.21   0.13
                      7                      8                      9
                        a                      a                      a 
 Frequencies --   976.1293               985.9502              1236.0267
 Red. masses --     5.0912                 5.1670                 9.4155
 Frc consts  --     0.0000                 0.0000                 0.0000
 IR Inten    --     2.3746                14.6101                31.6462
 Raman Activ --     0.0000                 0.0000                 0.0000
 Depolar     --     0.0000                 0.0000                 0.0000
 Atom AN      X      Y      Z        X      Y      Z        X      Y      Z
   1   6    -0.28   0.32  -0.22    -0.07   0.19   0.36     0.07  -0.02   0.02
   2   6     0.07  -0.02   0.04     0.07  -0.19  -0.39    -0.16  -0.14   0.04
   3   7     0.26  -0.11   0.09     0.01   0.00   0.02     0.25  -0.43   0.25
   4   8    -0.11  -0.10   0.03    -0.01   0.02   0.06    -0.06   0.44  -0.23
   5   1    -0.20  -0.26   0.13    -0.42  -0.31  -0.06     0.00   0.00  -0.02
   6   1    -0.20  -0.28   0.08     0.46   0.19  -0.16    -0.00   0.01   0.01
   7   1     0.58   0.25  -0.02     0.04  -0.08  -0.17    -0.07  -0.03   0.00
   8   1     0.03   0.02  -0.01    -0.03   0.09   0.19    -0.34   0.43  -0.27
                     10                     11                     12
                        a                      a                      a 
 Frequencies --  1334.5815              1361.4264              1494.6422
 Red. masses --     3.6868                 8.4148                 1.6378
 Frc consts  --     0.0000                 0.0000                 0.0000
 IR Inten    --    19.9958               176.8102                 0.2460
 Raman Activ --     0.0000                 0.0000                 0.0000
 Depolar     --     0.0000                 0.0000                 0.0000
 Atom AN      X      Y      Z        X      Y      Z        X      Y      Z
   1   6    -0.33  -0.22   0.06    -0.17  -0.10   0.02     0.03  -0.10  -0.21
   2   6    -0.17  -0.09   0.02     0.57   0.30  -0.05     0.00  -0.02  -0.03
   3   7     0.12  -0.01   0.02    -0.32  -0.07  -0.02     0.00  -0.00  -0.00
   4   8     0.01   0.11  -0.05    -0.04  -0.24   0.11    -0.00   0.00   0.00
   5   1     0.32   0.39   0.01     0.10   0.09   0.04    -0.03  -0.36   0.30
   6   1     0.36   0.26  -0.22     0.11   0.04  -0.07     0.05   0.41  -0.12
   7   1     0.48   0.12   0.03     0.13   0.03   0.01    -0.13   0.33   0.64
   8   1     0.10  -0.09   0.06    -0.36   0.37  -0.24     0.00   0.00   0.00
                     13                     14                     15
                        a                      a                      a 
 Frequencies --  1498.4764              1716.9980              2967.6001
 Red. masses --     1.7515                12.7024                 1.9434
 Frc consts  --     0.0000                 0.0000                 0.0000
 IR Inten    --     1.3847               685.1315               113.4528
 Raman Activ --     0.0000                 0.0000                 0.0000
 Depolar     --     0.0000                 0.0000                 0.0000
 Atom AN      X      Y      Z        X      Y      Z        X      Y      Z
   1   6     0.13  -0.19   0.10    -0.03   0.03  -0.02    -0.04   0.13   0.26
   2   6     0.01   0.05  -0.02     0.40  -0.62   0.37    -0.00   0.00   0.01
   3   7     0.01  -0.01   0.01    -0.30   0.21  -0.15     0.00  -0.00  -0.00
   4   8     0.00  -0.04   0.02    -0.04   0.33  -0.17     0.00  -0.00  -0.00
   5   1    -0.34   0.10  -0.53    -0.04  -0.03  -0.02     0.44  -0.36  -0.32
   6   1    -0.45   0.48   0.10    -0.05  -0.00   0.02    -0.29  -0.11  -0.63
   7   1     0.27   0.07   0.06     0.08   0.02   0.01    -0.01   0.02   0.04
   8   1    -0.01   0.01  -0.01    -0.03  -0.05   0.02     0.00  -0.00  -0.00
                     16                     17                     18
                        a                      a                      a 
 Frequencies --  2979.3800              3013.6620              3216.1994
 Red. masses --     1.4706                 1.6972                 1.8391
 Frc consts  --     0.0000                 0.0000                 0.0000
 IR Inten    --    84.6809                75.2906               202.7946
 Raman Activ --     0.0000                 0.0000                 0.0000
 Depolar     --     0.0000                 0.0000                 0.0000
 Atom AN      X      Y      Z        X      Y      Z        X      Y      Z
   1   6     0.18  -0.07   0.06     0.05  -0.21   0.12    -0.00   0.00  -0.00
   2   6     0.01  -0.01   0.00     0.00  -0.01   0.01    -0.00   0.02  -0.01
   3   7     0.00   0.00  -0.00     0.00   0.00  -0.00     0.21   0.13  -0.03
   4   8    -0.00   0.00  -0.00    -0.00   0.00  -0.00    -0.00  -0.01   0.00
   5   1    -0.44   0.39   0.40     0.01  -0.03   0.02     0.01  -0.00  -0.00
   6   1    -0.23  -0.14  -0.61     0.01  -0.03   0.03     0.01   0.00   0.01
   7   1     0.02   0.00   0.00    -0.22   0.82  -0.46     0.00  -0.01   0.01
   8   1    -0.01  -0.01   0.00    -0.01  -0.01   0.00    -0.81  -0.52   0.12
