      -----------------------------------------------------------      
     |                   =====================                   |     
     |                           x T B                           |     
     |                   =====================                   |     
     |                         S. Grimme                         |     
     |          Mulliken Center for Theoretical Chemistry        |     
     |                    University of Bonn                     |     
      -----------------------------------------------------------      

   * xtb version 6.7.1 (edcfbbe) compiled by 'albert@albert-system' on 2024-07-22

   xtb is free software: you can redistribute it and/or modify it under
   the terms of the GNU Lesser General Public License as published by
   the Free Software Foundation, either version 3 of the License, or
   (at your option) any later version.
   
   xtb is distributed in the hope that it will be useful,
   but WITHOUT ANY WARRANTY; without even the implied warranty of
   MERCHANTABILITY or FITNESS FOR A PARTICULAR PURPOSE.  See the
   GNU Lesser General Public License for more details.
   
   Cite this work as:
   * C. Bannwarth, E. Caldeweyher, S. Ehlert, A. Hansen, P. Pracht,
     J. Seibert, S. Spicher, S. Grimme, WIREs Comput. Mol. Sci., 2020, 11,
     e01493. DOI: 10.1002/wcms.1493
   
   for GFN2-xTB:
   * C. Bannwarth, S. Ehlert and S. Grimme., J. Chem. Theory Comput., 2019,
     15, 1652-1671. DOI: 10.1021/acs.jctc.8b01176
   for GFN1-xTB:
   * S. Grimme, C. Bannwarth, P. Shushkov, J. Chem. Theory Comput., 2017,
     13, 1989-2009. DOI: 10.1021/acs.jctc.7b00118
   for GFN0-xTB:
   * P. Pracht, E. Caldeweyher, S. Ehlert, S. Grimme, ChemRxiv, 2019, preprint.
     DOI: 10.26434/chemrxiv.8326202.v1
   for GFN-FF:
   * S. Spicher and S. Grimme, Angew. Chem. Int. Ed., 2020, 59, 15665-15673.
     DOI: 10.1002/anie.202004239
   
   for ALPB and GBSA implicit solvation:
   * S. Ehlert, M. Stahn, S. Spicher, S. Grimme, J. Chem. Theory Comput.,
     2021, 17, 4250-4261. DOI: 10.1021/acs.jctc.1c00471
   
   for ddCOSMO and CPCM-X implicit solvation:
   * M. Stahn, S. Ehlert, S. Grimme, J. Phys. Chem. A,
     2023, XX, XXXX-XXXX. DOI: 10.1021/acs.jpca.3c04382
   
   for DFT-D4:
   * E. Caldeweyher, C. Bannwarth and S. Grimme, J. Chem. Phys., 2017,
     147, 034112. DOI: 10.1063/1.4993215
   * E. Caldeweyher, S. Ehlert, A. Hansen, H. Neugebauer, S. Spicher,
     C. Bannwarth and S. Grimme, J. Chem. Phys., 2019, 150, 154122.
     DOI: 10.1063/1.5090222
   * E. Caldeweyher, J.-M. Mewes, S. Ehlert and S. Grimme, Phys. Chem. Chem. Phys.
     2020, 22, 8499-8512. DOI: 10.1039/D0CP00502A
   
   for sTDA-xTB:
   * S. Grimme and C. Bannwarth, J. Chem. Phys., 2016, 145, 054103.
     DOI: 10.1063/1.4959605
   
   in the mass-spec context:
   * V. Asgeirsson, C. Bauer and S. Grimme, Chem. Sci., 2017, 8, 4879.
     DOI: 10.1039/c7sc00601b
   * J. Koopman and S. Grimme, ACS Omega 2019, 4, 12, 15120-15133.
     DOI: 10.1021/acsomega.9b02011
   
   for metadynamics refer to:
   * S. Grimme, J. Chem. Theory Comput., 2019, 155, 2847-2862
     DOI: 10.1021/acs.jctc.9b00143
   
   for SPH calculations refer to:
   * S. Spicher and S. Grimme, J. Chem. Theory Comput., 2021, 17, 1701-1714
     DOI: 10.1021/acs.jctc.0c01306
   
   for ONIOM refer to:
   * C. Plett, A. Katbashev, S. Ehlert, S. Grimme, M. Bursch,
     Phys. Chem. Chem. Phys., 2023, 25, 17860-17868. DOI: 10.1039/D3CP02178E
   
   for DIPRO refer to:
   * J. Kohn, N. Gildemeister, S. Grimme, D. Fazzi, A. Hansen,
     J. Chem. Phys., 2023, just accepted.
   
   for PTB refer to:
   * S. Grimme, M. Mueller, A. Hansen, J. Chem. Phys., 2023, 158, 124111.
     DOI: 10.1063/5.0137838
   
   with help from (in alphabetical order)
   P. Atkinson, C. Bannwarth, F. Bohle, G. Brandenburg, E. Caldeweyher
   M. Checinski, S. Dohm, S. Ehlert, S. Ehrlich, I. Gerasimov, C. Hölzer
   A. Katbashev, J. Kohn, J. Koopman, C. Lavigne, S. Lehtola, F. März, M. Müller,
   F. Musil, H. Neugebauer, J. Pisarek, C. Plett, P. Pracht, F. Pultar,
   J. Seibert, P. Shushkov, S. Spicher, M. Stahn, M. Steiner, T. Strunk,
   J. Stückrath, T. Rose, and J. Unsleber
   
 * started run on 2025/10/18 at 04:32:06.225     
   ID    Z sym.   atoms
    1    6 C      1, 2
    2    7 N      3
    3    8 O      4
    4    1 H      5-8

           -------------------------------------------------
          |                Calculation Setup                |
           -------------------------------------------------

          program call               : xtb xyz.xyz --charge -1 --ohess
          hostname                   : m003
          coordinate file            : xyz.xyz
          omp threads                :                     2


           -------------------------------------------------
          |                 G F N 2 - x T B                 |
           -------------------------------------------------

        Reference                      10.1021/acs.jctc.8b01176
      * Hamiltonian:
        H0-scaling (s, p, d)           1.850000    2.230000    2.230000
        zeta-weighting                 0.500000
      * Dispersion:
        s8                             2.700000
        a1                             0.520000
        a2                             5.000000
        s9                             5.000000
      * Repulsion:
        kExp                           1.500000    1.000000
        rExp                           1.000000
      * Coulomb:
        alpha                          2.000000
        third order                    shell-resolved
        anisotropic                    true
        a3                             3.000000
        a5                             4.000000
        cn-shift                       1.200000
        cn-exp                         4.000000
        max-rad                        5.000000


          ...................................................
          :                      SETUP                      :
          :.................................................:
          :  # basis functions                  20          :
          :  # atomic orbitals                  20          :
          :  # shells                           12          :
          :  # electrons                        24          :
          :  max. iterations                   250          :
          :  Hamiltonian                  GFN2-xTB          :
          :  restarted?                      false          :
          :  GBSA solvation                  false          :
          :  PC potential                    false          :
          :  electronic temp.          300.0000000     K    :
          :  accuracy                    1.0000000          :
          :  -> integral cutoff          0.2500000E+02      :
          :  -> integral neglect         0.1000000E-07      :
          :  -> SCF convergence          0.1000000E-05 Eh   :
          :  -> wf. convergence          0.1000000E-03 e    :
          :  Broyden damping             0.4000000          :
          :  net charge                         -1          :
          :  unpaired electrons                  0          :
          ...................................................

 iter      E             dE          RMSdq      gap      omega  full diag
   1    -13.5942287 -0.135942E+02  0.459E+00    5.51       0.0  T
   2    -13.6323069 -0.380782E-01  0.209E+00    4.97       1.0  T
   3    -13.6327759 -0.469054E-03  0.112E+00    5.22       1.0  T
   4    -13.6335665 -0.790611E-03  0.345E-01    5.00       1.0  T
   5    -13.6340221 -0.455606E-03  0.931E-02    5.05       1.0  T
   6    -13.6340215  0.616511E-06  0.269E-02    5.06       1.3  T
   7    -13.6340252 -0.364286E-05  0.893E-03    5.05       4.0  T
   8    -13.6340253 -0.107581E-06  0.471E-03    5.05       7.5  T
   9    -13.6340254 -0.921190E-07  0.824E-04    5.05      42.9  T
  10    -13.6340254 -0.116323E-08  0.146E-04    5.05     242.3  T

   *** convergence criteria satisfied after 10 iterations ***

         #    Occupation            Energy/Eh            Energy/eV
      -------------------------------------------------------------
         1        2.0000           -0.4405163             -11.9871
       ...           ...                  ...                  ...
         6        2.0000           -0.2992796              -8.1438
         7        2.0000           -0.2673961              -7.2762
         8        2.0000           -0.2456009              -6.6831
         9        2.0000           -0.2425590              -6.6004
        10        2.0000           -0.1595023              -4.3403
        11        2.0000           -0.1277062              -3.4751
        12        2.0000           -0.1246917              -3.3930 (HOMO)
        13                          0.0610109               1.6602 (LUMO)
        14                          0.3218859               8.7590
        15                          0.3540532               9.6343
        16                          0.3608741               9.8199
        17                          0.3999820              10.8841
       ...                                ...                  ...
        20                          0.8709935              23.7009
      -------------------------------------------------------------
                  HL-Gap            0.1857026 Eh            5.0532 eV
             Fermi-level           -0.0318404 Eh           -0.8664 eV

 SCC (total)                   0 d,  0 h,  0 min,  0.069 sec
 SCC setup                      ...        0 min,  0.000 sec (  0.206%)
 Dispersion                     ...        0 min,  0.000 sec (  0.089%)
 classical contributions        ...        0 min,  0.000 sec (  0.037%)
 integral evaluation            ...        0 min,  0.000 sec (  0.564%)
 iterations                     ...        0 min,  0.068 sec ( 98.033%)
 molecular gradient             ...        0 min,  0.001 sec (  0.901%)
 printout                       ...        0 min,  0.000 sec (  0.134%)

         :::::::::::::::::::::::::::::::::::::::::::::::::::::
         ::                     SUMMARY                     ::
         :::::::::::::::::::::::::::::::::::::::::::::::::::::
         :: total energy             -13.492588820792 Eh    ::
         :: gradient norm              0.079342246540 Eh/a0 ::
         :: HOMO-LUMO gap              5.053224306644 eV    ::
         ::.................................................::
         :: SCC energy               -13.634024882311 Eh    ::
         :: -> isotropic ES            0.198921519698 Eh    ::
         :: -> anisotropic ES          0.003073027340 Eh    ::
         :: -> anisotropic XC          0.004427722163 Eh    ::
         :: -> dispersion             -0.003851346698 Eh    ::
         :: repulsion energy           0.141436061519 Eh    ::
         :: add. restraining           0.000000000000 Eh    ::
         :: total charge              -1.000000000000 e     ::
         :::::::::::::::::::::::::::::::::::::::::::::::::::::

      ----------------------------------------------------------- 
     |                   =====================                   |
     |                        A N C O P T                        |
     |                   =====================                   |
     |               Approximate Normal Coordinate               |
     |                Rational Function Optimizer                |
      ----------------------------------------------------------- 
      ----------------------------------------------------------- 
     |                   =====================                   |
     |                        A N C O P T                        |
     |                   =====================                   |
     |               Approximate Normal Coordinate               |
     |                Rational Function Optimizer                |
      ----------------------------------------------------------- 

          ...................................................
          :                      SETUP                      :
          :.................................................:
          :   optimization level            normal          :
          :   max. optcycles                   200          :
          :   ANC micro-cycles                  20          :
          :   degrees of freedom                18          :
          :.................................................:
          :   RF solver                   davidson          :
          :   write xtbopt.log                true          :
          :   linear?                        false          :
          :   energy convergence         0.5000000E-05 Eh   :
          :   grad. convergence          0.1000000E-02 Eh/α :
          :   maxmium RF displ.          1.0000000          :
          :   Hlow (freq-cutoff)         0.1000000E-01      :
          :   Hmax (freq-cutoff)         5.0000000          :
          :   S6 in model hess.         20.0000000          :
          ...................................................

generating ANC from exact Hessian ...
Using Lindh-Hessian (1995)
 Shifting diagonal of input Hessian by   0.000000000000000E+000
 Lowest  eigenvalues of input Hessian
    0.000000    0.000000    0.000000    0.000000    0.000000    0.000000
    0.013214    0.029707    0.038980    0.067591    0.074984    0.103569
    0.114756    0.124165    0.160709    0.171811    0.286946    0.572944
 Highest eigenvalues
    0.904980    1.081951    1.104605    1.149113    1.695691    2.290899
 

........................................................................
.............................. CYCLE    1 ..............................
........................................................................

 iter      E             dE          RMSdq      gap      omega  full diag
   1    -13.6340254 -0.136340E+02  0.988E-05    5.05       0.0  T
   2    -13.6340254 -0.473843E-10  0.272E-05    5.05    1301.8  T
   3    -13.6340254 -0.301803E-11  0.955E-06    5.05    3702.2  T
     SCC iter.                  ...        0 min,  0.000 sec
     gradient                   ...        0 min,  0.001 sec
 * total energy  :   -13.4925888 Eh     change       -0.5172573E-10 Eh
   gradient norm :     0.0793382 Eh/α   predicted     0.0000000E+00 (-100.00%)
   displ. norm   :     0.1251142 α      lambda       -0.4708602E-02
   maximum displ.:     0.0633156 α      in ANC's #5, #7, #1, ...

........................................................................
.............................. CYCLE    2 ..............................
........................................................................

 iter      E             dE          RMSdq      gap      omega  full diag
   1    -13.6312664 -0.136313E+02  0.357E-01    5.00       0.0  T
   2    -13.6317435 -0.477096E-03  0.246E-01    5.06       1.0  T
   3    -13.6318925 -0.149060E-03  0.112E-01    5.03       1.0  T
   4    -13.6318912  0.132537E-05  0.295E-02    5.03       1.2  T
   5    -13.6318938 -0.253026E-05  0.580E-03    5.03       6.1  T
   6    -13.6318938 -0.226172E-07  0.158E-03    5.03      22.3  T
   7    -13.6318938 -0.401747E-08  0.638E-04    5.03      55.4  T
   8    -13.6318938 -0.766658E-10  0.181E-04    5.03     195.0  T
     SCC iter.                  ...        0 min,  0.001 sec
     gradient                   ...        0 min,  0.001 sec
 * total energy  :   -13.4956014 Eh     change       -0.3012544E-02 Eh
   gradient norm :     0.0305662 Eh/α   predicted    -0.2391153E-02 ( -20.63%)
   displ. norm   :     0.0865835 α      lambda       -0.1193813E-02
   maximum displ.:     0.0507295 α      in ANC's #7, #1, #2, ...

........................................................................
.............................. CYCLE    3 ..............................
........................................................................

 iter      E             dE          RMSdq      gap      omega  full diag
   1    -13.6323248 -0.136323E+02  0.181E-01    5.08       0.0  T
   2    -13.6324821 -0.157267E-03  0.119E-01    5.08       1.0  T
   3    -13.6325143 -0.322444E-04  0.535E-02    5.08       1.0  T
   4    -13.6325137  0.576450E-06  0.194E-02    5.08       1.8  T
   5    -13.6325148 -0.107428E-05  0.379E-03    5.08       9.3  T
   6    -13.6325148 -0.689753E-08  0.801E-04    5.08      44.1  T
   7    -13.6325148 -0.497408E-09  0.357E-04    5.08      99.1  T
     SCC iter.                  ...        0 min,  0.001 sec
     gradient                   ...        0 min,  0.001 sec
 * total energy  :   -13.4961749 Eh     change       -0.5735070E-03 Eh
   gradient norm :     0.0104315 Eh/α   predicted    -0.6013802E-03 (   4.86%)
   displ. norm   :     0.0945391 α      lambda       -0.3168306E-03
   maximum displ.:     0.0859157 α      in ANC's #1, #7, #2, ...

........................................................................
.............................. CYCLE    4 ..............................
........................................................................

 iter      E             dE          RMSdq      gap      omega  full diag
   1    -13.6335509 -0.136336E+02  0.746E-02    5.12       0.0  T
   2    -13.6335556 -0.469238E-05  0.443E-02    5.12       1.0  T
   3    -13.6335558 -0.212368E-06  0.178E-02    5.12       2.0  T
   4    -13.6335561 -0.242860E-06  0.323E-03    5.12      10.9  T
   5    -13.6335561 -0.973776E-08  0.151E-03    5.12      23.4  T
   6    -13.6335561 -0.316001E-08  0.352E-04    5.12     100.5  T
   7    -13.6335561 -0.298170E-09  0.131E-04    5.12     269.5  T
     SCC iter.                  ...        0 min,  0.001 sec
     gradient                   ...        0 min,  0.001 sec
 * total energy  :   -13.4962764 Eh     change       -0.1014832E-03 Eh
   gradient norm :     0.0097344 Eh/α   predicted    -0.1598299E-03 (  57.49%)
   displ. norm   :     0.0270401 α      lambda       -0.9215824E-04
   maximum displ.:     0.0230895 α      in ANC's #2, #1, #10, ...

........................................................................
.............................. CYCLE    5 ..............................
........................................................................

 iter      E             dE          RMSdq      gap      omega  full diag
   1    -13.6339441 -0.136339E+02  0.423E-02    5.13       0.0  T
   2    -13.6339503 -0.623528E-05  0.267E-02    5.13       1.3  T
   3    -13.6339518 -0.151274E-05  0.130E-02    5.13       2.7  T
   4    -13.6339518  0.263608E-08  0.318E-03    5.13      11.1  T
   5    -13.6339519 -0.370058E-07  0.842E-04    5.13      42.0  T
   6    -13.6339519 -0.615561E-09  0.128E-04    5.13     276.6  T
     SCC iter.                  ...        0 min,  0.001 sec
     gradient                   ...        0 min,  0.001 sec
 * total energy  :   -13.4963384 Eh     change       -0.6199862E-04 Eh
   gradient norm :     0.0041411 Eh/α   predicted    -0.4611150E-04 ( -25.62%)
   displ. norm   :     0.0347369 α      lambda       -0.3607636E-04
   maximum displ.:     0.0266266 α      in ANC's #2, #1, #7, ...

........................................................................
.............................. CYCLE    6 ..............................
........................................................................

 iter      E             dE          RMSdq      gap      omega  full diag
   1    -13.6342494 -0.136342E+02  0.364E-02    5.15       0.0  T
   2    -13.6342527 -0.337562E-05  0.229E-02    5.15       1.5  T
   3    -13.6342536 -0.852719E-06  0.119E-02    5.15       3.0  T
   4    -13.6342536 -0.380346E-07  0.220E-03    5.15      16.0  T
   5    -13.6342536 -0.160011E-07  0.890E-04    5.15      39.7  T
   6    -13.6342536 -0.793943E-09  0.176E-04    5.15     200.7  T
     SCC iter.                  ...        0 min,  0.001 sec
     gradient                   ...        0 min,  0.001 sec
 * total energy  :   -13.4963622 Eh     change       -0.2387236E-04 Eh
   gradient norm :     0.0006742 Eh/α   predicted    -0.1806007E-04 ( -24.35%)
   displ. norm   :     0.0669830 α      lambda       -0.1679018E-04
   maximum displ.:     0.0506642 α      in ANC's #1, #2, #7, ...

........................................................................
.............................. CYCLE    7 ..............................
........................................................................

 iter      E             dE          RMSdq      gap      omega  full diag
   1    -13.6343423 -0.136343E+02  0.516E-02    5.16       0.0  T
   2    -13.6343438 -0.154158E-05  0.309E-02    5.16       1.1  T
   3    -13.6343437  0.662036E-07  0.140E-02    5.16       2.5  T
   4    -13.6343442 -0.483507E-06  0.187E-03    5.16      18.9  T
   5    -13.6343442 -0.748748E-08  0.101E-03    5.16      35.1  T
   6    -13.6343442 -0.897424E-09  0.234E-04    5.16     151.2  T
   7    -13.6343442 -0.413927E-10  0.114E-04    5.16     309.6  T
     SCC iter.                  ...        0 min,  0.001 sec
     gradient                   ...        0 min,  0.001 sec
 * total energy  :   -13.4963801 Eh     change       -0.1783023E-04 Eh
   gradient norm :     0.0029131 Eh/α   predicted    -0.8413282E-05 ( -52.81%)
   displ. norm   :     0.0913585 α      lambda       -0.2742195E-04
   maximum displ.:     0.0723587 α      in ANC's #1, #2, #10, ...

........................................................................
.............................. CYCLE    8 ..............................
........................................................................

 iter      E             dE          RMSdq      gap      omega  full diag
   1    -13.6341597 -0.136342E+02  0.674E-02    5.17       0.0  T
   2    -13.6341600 -0.295781E-06  0.393E-02    5.17       1.0  T
   3    -13.6341601 -0.985981E-07  0.315E-03    5.17      11.2  T
   4    -13.6341601 -0.265660E-07  0.158E-03    5.17      22.4  T
   5    -13.6341601 -0.211955E-08  0.608E-04    5.17      58.1  T
   6    -13.6341601 -0.539721E-09  0.188E-04    5.17     188.6  T
     SCC iter.                  ...        0 min,  0.001 sec
     gradient                   ...        0 min,  0.001 sec
 * total energy  :   -13.4964050 Eh     change       -0.2498773E-04 Eh
   gradient norm :     0.0038940 Eh/α   predicted    -0.1382628E-04 ( -44.67%)
   displ. norm   :     0.4375522 α      lambda       -0.1269266E-03
   maximum displ.:     0.3467296 α      in ANC's #1, #2, #10, ...

........................................................................
.............................. CYCLE    9 ..............................
........................................................................

 iter      E             dE          RMSdq      gap      omega  full diag
   1    -13.6297722 -0.136298E+02  0.334E-01    5.13       0.0  T
   2    -13.6297860 -0.137840E-04  0.193E-01    5.14       1.0  T
   3    -13.6297768  0.917715E-05  0.530E-02    5.13       1.0  T
   4    -13.6297918 -0.149730E-04  0.853E-03    5.14       4.1  T
   5    -13.6297918 -0.325434E-07  0.370E-03    5.13       9.5  T
   6    -13.6297918 -0.610381E-08  0.816E-04    5.13      43.3  T
   7    -13.6297918 -0.175442E-09  0.176E-04    5.13     201.0  T
     SCC iter.                  ...        0 min,  0.001 sec
     gradient                   ...        0 min,  0.001 sec
 * total energy  :   -13.4963604 Eh     change        0.4463924E-04 Eh
   gradient norm :     0.0119362 Eh/α   predicted    -0.7561805E-04 (-269.40%)
   displ. norm   :     0.2491409 α      lambda       -0.3226892E-03
   maximum displ.:     0.1942828 α      in ANC's #1, #2, #7, ...

........................................................................
.............................. CYCLE   10 ..............................
........................................................................

 iter      E             dE          RMSdq      gap      omega  full diag
   1    -13.6342667 -0.136343E+02  0.199E-01    5.18       0.0  T
   2    -13.6342760 -0.924873E-05  0.114E-01    5.17       1.0  T
   3    -13.6342715  0.442436E-05  0.429E-02    5.18       1.0  T
   4    -13.6342794 -0.786237E-05  0.583E-03    5.17       6.1  T
   5    -13.6342794 -0.192771E-07  0.293E-03    5.17      12.1  T
   6    -13.6342794 -0.317764E-08  0.593E-04    5.17      59.6  T
   7    -13.6342794 -0.234747E-09  0.272E-04    5.17     130.1  T
     SCC iter.                  ...        0 min,  0.001 sec
     gradient                   ...        0 min,  0.001 sec
 * total energy  :   -13.4964661 Eh     change       -0.1056614E-03 Eh
   gradient norm :     0.0039059 Eh/α   predicted    -0.1713595E-03 (  62.18%)
   displ. norm   :     0.0756646 α      lambda       -0.2805024E-04
   maximum displ.:     0.0596397 α      in ANC's #1, #2, #12, ...

........................................................................
.............................. CYCLE   11 ..............................
........................................................................

 iter      E             dE          RMSdq      gap      omega  full diag
   1    -13.6341287 -0.136341E+02  0.585E-02    5.17       0.0  T
   2    -13.6341292 -0.456495E-06  0.338E-02    5.17       1.0  T
   3    -13.6341289  0.213371E-06  0.905E-03    5.16       3.9  T
   4    -13.6341293 -0.371882E-06  0.135E-03    5.17      26.2  T
   5    -13.6341293 -0.167642E-08  0.760E-04    5.17      46.5  T
   6    -13.6341293 -0.446356E-09  0.161E-04    5.17     220.0  T
     SCC iter.                  ...        0 min,  0.001 sec
     gradient                   ...        0 min,  0.001 sec
 * total energy  :   -13.4964925 Eh     change       -0.2640379E-04 Eh
   gradient norm :     0.0031525 Eh/α   predicted    -0.1410425E-04 ( -46.58%)
   displ. norm   :     0.4638516 α      lambda       -0.1520870E-03
   maximum displ.:     0.3685261 α      in ANC's #1, #2, #12, ...

........................................................................
.............................. CYCLE   12 ..............................
........................................................................

 iter      E             dE          RMSdq      gap      omega  full diag
   1    -13.6293565 -0.136294E+02  0.366E-01    5.08       0.0  T
   2    -13.6293915 -0.350601E-04  0.211E-01    5.10       1.0  T
   3    -13.6293749  0.166148E-04  0.853E-02    5.08       1.0  T
   4    -13.6294038 -0.288537E-04  0.898E-03    5.09       3.9  T
   5    -13.6294039 -0.902562E-07  0.514E-03    5.09       6.9  T
   6    -13.6294039 -0.106498E-07  0.102E-03    5.09      34.7  T
   7    -13.6294039 -0.126636E-08  0.535E-04    5.09      66.1  T
   8    -13.6294039 -0.127070E-09  0.825E-05    5.09     428.5  T
     SCC iter.                  ...        0 min,  0.001 sec
     gradient                   ...        0 min,  0.001 sec
 * total energy  :   -13.4964340 Eh     change        0.5844184E-04 Eh
   gradient norm :     0.0135897 Eh/α   predicted    -0.9241401E-04 (-258.13%)
   displ. norm   :     0.2791651 α      lambda       -0.3769653E-03
   maximum displ.:     0.2211161 α      in ANC's #1, #2, #12, ...

........................................................................
.............................. CYCLE   13 ..............................
........................................................................

 iter      E             dE          RMSdq      gap      omega  full diag
   1    -13.6343171 -0.136343E+02  0.228E-01    5.16       0.0  T
   2    -13.6343366 -0.194932E-04  0.130E-01    5.15       1.0  T
   3    -13.6343316  0.506054E-05  0.599E-02    5.16       1.0  T
   4    -13.6343432 -0.116578E-04  0.580E-03    5.15       6.1  T
   5    -13.6343433 -0.309164E-07  0.332E-03    5.15      10.7  T
   6    -13.6343433 -0.375173E-08  0.513E-04    5.15      68.9  T
   7    -13.6343433 -0.676188E-10  0.217E-04    5.15     162.8  T
     SCC iter.                  ...        0 min,  0.001 sec
     gradient                   ...        0 min,  0.001 sec
 * total energy  :   -13.4965503 Eh     change       -0.1162301E-03 Eh
   gradient norm :     0.0006697 Eh/α   predicted    -0.2031676E-03 (  74.80%)
   displ. norm   :     0.0990277 α      lambda       -0.1533701E-04
   maximum displ.:     0.0786987 α      in ANC's #1, #2, #12, ...

........................................................................
.............................. CYCLE   14 ..............................
........................................................................

 iter      E             dE          RMSdq      gap      omega  full diag
   1    -13.6339958 -0.136340E+02  0.768E-02    5.14       0.0  T
   2    -13.6339966 -0.755456E-06  0.444E-02    5.14       1.0  T
   3    -13.6339962  0.390850E-06  0.117E-02    5.14       3.0  T
   4    -13.6339968 -0.653903E-06  0.176E-03    5.14      20.1  T
   5    -13.6339968 -0.246220E-08  0.974E-04    5.14      36.3  T
   6    -13.6339968 -0.577412E-09  0.208E-04    5.14     169.6  T
     SCC iter.                  ...        0 min,  0.001 sec
     gradient                   ...        0 min,  0.001 sec
 * total energy  :   -13.4965696 Eh     change       -0.1931017E-04 Eh
   gradient norm :     0.0017046 Eh/α   predicted    -0.7702787E-05 ( -60.11%)
   displ. norm   :     0.2442663 α      lambda       -0.2842531E-04
   maximum displ.:     0.1950134 α      in ANC's #1, #2, #12, ...

........................................................................
.............................. CYCLE   15 ..............................
........................................................................

 iter      E             dE          RMSdq      gap      omega  full diag
   1    -13.6324502 -0.136325E+02  0.190E-01    5.12       0.0  T
   2    -13.6324545 -0.435207E-05  0.110E-01    5.12       1.0  T
   3    -13.6324519  0.260695E-05  0.287E-02    5.11       1.2  T
   4    -13.6324561 -0.420215E-05  0.433E-03    5.12       8.2  T
   5    -13.6324561 -0.120611E-07  0.235E-03    5.12      15.0  T
   6    -13.6324561 -0.255787E-08  0.450E-04    5.12      78.5  T
   7    -13.6324561 -0.138504E-09  0.232E-04    5.12     152.2  T
     SCC iter.                  ...        0 min,  0.001 sec
     gradient                   ...        0 min,  0.001 sec
 * total energy  :   -13.4965773 Eh     change       -0.7692196E-05 Eh
   gradient norm :     0.0062558 Eh/α   predicted    -0.1458928E-04 (  89.66%)
   displ. norm   :     0.0549165 α      lambda       -0.2677478E-04
   maximum displ.:     0.0442814 α      in ANC's #1, #2, #12, ...

........................................................................
.............................. CYCLE   16 ..............................
........................................................................

 iter      E             dE          RMSdq      gap      omega  full diag
   1    -13.6335805 -0.136336E+02  0.453E-02    5.14       0.0  T
   2    -13.6335814 -0.940676E-06  0.259E-02    5.13       1.4  T
   3    -13.6335813  0.161873E-06  0.125E-02    5.14       2.8  T
   4    -13.6335817 -0.464989E-06  0.125E-03    5.13      28.3  T
   5    -13.6335817 -0.183792E-08  0.700E-04    5.13      50.5  T
   6    -13.6335817 -0.150244E-09  0.103E-04    5.13     342.6  T
     SCC iter.                  ...        0 min,  0.001 sec
     gradient                   ...        0 min,  0.001 sec
 * total energy  :   -13.4965938 Eh     change       -0.1651314E-04 Eh
   gradient norm :     0.0033062 Eh/α   predicted    -0.1342937E-04 ( -18.67%)
   displ. norm   :     0.0194724 α      lambda       -0.9893460E-05
   maximum displ.:     0.0147081 α      in ANC's #1, #2, #12, ...

........................................................................
.............................. CYCLE   17 ..............................
........................................................................

 iter      E             dE          RMSdq      gap      omega  full diag
   1    -13.6341502 -0.136342E+02  0.174E-02    5.14       0.0  T
   2    -13.6341505 -0.293947E-06  0.105E-02    5.14       3.4  T
   3    -13.6341505 -0.402437E-07  0.546E-03    5.14       6.5  T
   4    -13.6341506 -0.510714E-07  0.599E-04    5.14      59.0  T
   5    -13.6341506 -0.615447E-09  0.287E-04    5.14     123.0  T
     SCC iter.                  ...        0 min,  0.001 sec
     gradient                   ...        0 min,  0.001 sec
 * total energy  :   -13.4966014 Eh     change       -0.7582201E-05 Eh
   gradient norm :     0.0017725 Eh/α   predicted    -0.4949129E-05 ( -34.73%)
   displ. norm   :     0.1074858 α      lambda       -0.1160447E-04
   maximum displ.:     0.0839312 α      in ANC's #1, #2, #12, ...

........................................................................
.............................. CYCLE   18 ..............................
........................................................................

 iter      E             dE          RMSdq      gap      omega  full diag
   1    -13.6347327 -0.136347E+02  0.839E-02    5.16       0.0  T
   2    -13.6347336 -0.815787E-06  0.493E-02    5.15       1.0  T
   3    -13.6347331  0.511417E-06  0.117E-02    5.16       3.0  T
   4    -13.6347339 -0.806130E-06  0.190E-03    5.15      18.6  T
   5    -13.6347339 -0.248954E-08  0.997E-04    5.16      35.4  T
   6    -13.6347339 -0.446493E-09  0.202E-04    5.15     174.7  T
     SCC iter.                  ...        0 min,  0.001 sec
     gradient                   ...        0 min,  0.001 sec
 * total energy  :   -13.4966126 Eh     change       -0.1119780E-04 Eh
   gradient norm :     0.0005883 Eh/α   predicted    -0.5830588E-05 ( -47.93%)
   displ. norm   :     0.1437069 α      lambda       -0.7264935E-05
   maximum displ.:     0.1125135 α      in ANC's #1, #2, #12, ...

........................................................................
.............................. CYCLE   19 ..............................
........................................................................

 iter      E             dE          RMSdq      gap      omega  full diag
   1    -13.6339121 -0.136339E+02  0.113E-01    5.15       0.0  T
   2    -13.6339129 -0.777778E-06  0.658E-02    5.15       1.0  T
   3    -13.6339128  0.954676E-07  0.871E-03    5.14       4.1  T
   4    -13.6339133 -0.433100E-06  0.252E-03    5.15      14.0  T
   5    -13.6339133 -0.291161E-08  0.997E-04    5.15      35.5  T
   6    -13.6339133 -0.651465E-09  0.258E-04    5.15     136.8  T
     SCC iter.                  ...        0 min,  0.001 sec
     gradient                   ...        0 min,  0.001 sec
 * total energy  :   -13.4966155 Eh     change       -0.2968164E-05 Eh
   gradient norm :     0.0016051 Eh/α   predicted    -0.3664860E-05 (  23.47%)
   displ. norm   :     0.0454655 α      lambda       -0.3293726E-05
   maximum displ.:     0.0360965 α      in ANC's #1, #2, #12, ...

........................................................................
.............................. CYCLE   20 ..............................
........................................................................

 iter      E             dE          RMSdq      gap      omega  full diag
   1    -13.6345009 -0.136345E+02  0.365E-02    5.15       0.0  T
   2    -13.6345011 -0.202403E-06  0.210E-02    5.15       1.7  T
   3    -13.6345010  0.119232E-06  0.610E-03    5.15       5.8  T
   4    -13.6345012 -0.189894E-06  0.908E-04    5.15      38.9  T
   5    -13.6345012 -0.552355E-09  0.492E-04    5.15      71.9  T
     SCC iter.                  ...        0 min,  0.001 sec
     gradient                   ...        0 min,  0.001 sec
 * total energy  :   -13.4966174 Eh     change       -0.1853745E-05 Eh
   gradient norm :     0.0000960 Eh/α   predicted    -0.1648543E-05 ( -11.07%)
   displ. norm   :     0.0261452 α      lambda       -0.4522530E-06
   maximum displ.:     0.0202655 α      in ANC's #1, #2, #12, ...

   *** GEOMETRY OPTIMIZATION CONVERGED AFTER 20 ITERATIONS ***

------------------------------------------------------------------------
 total energy gain   :        -0.0040286 Eh       -2.5280 kcal/mol
 total RMSD          :         0.4346452 a0        0.2300 Å
 total power (kW/mol):        -0.5288484 (step) -294.7533 (real)
------------------------------------------------------------------------

 ANCopt (total)                0 d,  0 h,  0 min,  0.036 sec
 optimizer setup                ...        0 min,  0.000 sec (  0.669%)
 model hessian                  ...        0 min,  0.001 sec (  2.373%)
 ANC generation                 ...        0 min,  0.000 sec (  0.259%)
 coordinate transformation      ...        0 min,  0.000 sec (  0.332%)
 single point calculation       ...        0 min,  0.032 sec ( 89.866%)
 optimization log               ...        0 min,  0.001 sec (  2.128%)
 hessian update                 ...        0 min,  0.000 sec (  0.436%)
 rational function              ...        0 min,  0.001 sec (  2.008%)

================
 final structure:
================
8
 xtb: 6.7.1 (edcfbbe)
C           -3.81727020793748       -0.65676399297879       -0.68091904370297
C           -2.51270202842699        0.15973431702694       -0.86501775406381
N           -1.46935635766428       -0.45650693128356       -0.39124531135527
O           -2.59662331955538        1.27867045389296       -1.42738535774131
H           -4.53778228577159       -0.07325125709081       -0.10566464039996
H           -4.25576811627160       -0.87164739300086       -1.65672194841947
H           -3.60212239752717       -1.58880477321337       -0.16306535014273
H           -0.62962528684550        0.11804357664750       -0.53487859417450
 
 Bond Distances (Angstroems)
 ---------------------------
C1-C2=1.5500         C1-H5=1.0911         C1-H6=1.0912         C1-H7=1.0877         C2-C1=1.5500         C2-N3=1.3011         
C2-O4=1.2551         N3-C2=1.3011         N3-H8=1.0276         O4-C2=1.2551         H5-C1=1.0911         H6-C1=1.0912         
H7-C1=1.0877         H8-N3=1.0276         
 C  H  Rav=1.0900 sigma=0.0016  Rmin=1.0877  Rmax=1.0912     3
 C  C  Rav=1.5500 sigma=0.0000  Rmin=1.5500  Rmax=1.5500     1
 N  H  Rav=1.0276 sigma=0.0000  Rmin=1.0276  Rmax=1.0276     1
 N  C  Rav=1.3011 sigma=0.0000  Rmin=1.3011  Rmax=1.3011     1
 O  C  Rav=1.2551 sigma=0.0000  Rmin=1.2551  Rmax=1.2551     1
 
 selected bond angles (degree)
 --------------------
H5-C1-C2=109.68                H6-C1-C2=109.62                H6-C1-H5=108.15                H7-C1-C2=109.97                
H7-C1-H5=109.75                H7-C1-H6=109.66                N3-C2-C1=112.47                O4-C2-C1=117.81                
O4-C2-N3=129.72                H8-N3-C2=109.85                
 
 selected dihedral angles (degree)
 ---------------------------------
N3-C2-C1-H5=122.08            N3-C2-C1-H6=240.68            N3-C2-C1-H7=  1.31            O4-C2-C1-H5=302.04            
O4-C2-C1-H6= 60.63            O4-C2-C1-H7=181.26            H8-N3-C2-C1=179.94            H8-N3-C2-O4=  0.00            
           -------------------------------------------------
          |                Final Singlepoint                |
           -------------------------------------------------

          ...................................................
          :                      SETUP                      :
          :.................................................:
          :  # basis functions                  20          :
          :  # atomic orbitals                  20          :
          :  # shells                           12          :
          :  # electrons                        24          :
          :  max. iterations                   250          :
          :  Hamiltonian                  GFN2-xTB          :
          :  restarted?                      false          :
          :  GBSA solvation                  false          :
          :  PC potential                    false          :
          :  electronic temp.          300.0000000     K    :
          :  accuracy                    1.0000000          :
          :  -> integral cutoff          0.2500000E+02      :
          :  -> integral neglect         0.1000000E-07      :
          :  -> SCF convergence          0.1000000E-05 Eh   :
          :  -> wf. convergence          0.1000000E-03 e    :
          :  Broyden damping             0.4000000          :
          :  net charge                         -1          :
          :  unpaired electrons                  0          :
          ...................................................

 iter      E             dE          RMSdq      gap      omega  full diag
   1    -13.6345012 -0.136345E+02  0.897E-05    5.15       0.0  T
   2    -13.6345012 -0.503775E-11  0.524E-05    5.15     674.3  T
   3    -13.6345012 -0.424549E-12  0.221E-05    5.15    1597.1  T

   *** convergence criteria satisfied after 3 iterations ***

         #    Occupation            Energy/Eh            Energy/eV
      -------------------------------------------------------------
         1        2.0000           -0.4323173             -11.7640
       ...           ...                  ...                  ...
         6        2.0000           -0.2988626              -8.1325
         7        2.0000           -0.2649249              -7.2090
         8        2.0000           -0.2488292              -6.7710
         9        2.0000           -0.2411536              -6.5621
        10        2.0000           -0.1552825              -4.2255
        11        2.0000           -0.1359330              -3.6989
        12        2.0000           -0.1310932              -3.5672 (HOMO)
        13                          0.0582688               1.5856 (LUMO)
        14                          0.2968582               8.0779
        15                          0.3489401               9.4951
        16                          0.3846586              10.4671
        17                          0.3960370              10.7767
       ...                                ...                  ...
        20                          0.8477602              23.0687
      -------------------------------------------------------------
                  HL-Gap            0.1893620 Eh            5.1528 eV
             Fermi-level           -0.0364122 Eh           -0.9908 eV

 SCC (total)                   0 d,  0 h,  0 min,  0.001 sec
 SCC setup                      ...        0 min,  0.000 sec (  4.643%)
 Dispersion                     ...        0 min,  0.000 sec (  1.786%)
 classical contributions        ...        0 min,  0.000 sec (  0.561%)
 integral evaluation            ...        0 min,  0.000 sec ( 19.966%)
 iterations                     ...        0 min,  0.000 sec ( 26.599%)
 molecular gradient             ...        0 min,  0.001 sec ( 40.374%)
 printout                       ...        0 min,  0.000 sec (  4.337%)

         :::::::::::::::::::::::::::::::::::::::::::::::::::::
         ::                     SUMMARY                     ::
         :::::::::::::::::::::::::::::::::::::::::::::::::::::
         :: total energy             -13.496617375269 Eh    ::
         :: gradient norm              0.000096851784 Eh/a0 ::
         :: HOMO-LUMO gap              5.152801969365 eV    ::
         ::.................................................::
         :: SCC energy               -13.634500621297 Eh    ::
         :: -> isotropic ES            0.198247184414 Eh    ::
         :: -> anisotropic ES          0.004238848954 Eh    ::
         :: -> anisotropic XC          0.004949961183 Eh    ::
         :: -> dispersion             -0.003835415017 Eh    ::
         :: repulsion energy           0.137883246028 Eh    ::
         :: add. restraining           0.000000000000 Eh    ::
         :: total charge              -1.000000000000 e     ::
         :::::::::::::::::::::::::::::::::::::::::::::::::::::

           ------------------------------------------------- 
          |                Numerical Hessian                |
           ------------------------------------------------- 
step length          :   0.00500
SCC accuracy         :   0.30000
Hessian scale factor :   1.00000
frozen atoms in %    :   0.00000    0
RMS gradient         :   0.00010
estimated CPU  time      0.00 min
estimated wall time      0.00 min

writing file <hessian>.

 projected vibrational frequencies (cm⁻¹)
eigval :       -0.00    -0.00    -0.00    -0.00    -0.00     0.00
eigval :       81.75   405.31   548.07   549.91   796.97   852.02
eigval :      976.13   985.95  1236.03  1334.58  1361.43  1494.64
eigval :     1498.48  1717.00  2967.60  2979.38  3013.66  3216.20
           -------------------------------------------------
          |                Property Printout                |
           -------------------------------------------------

    * Orbital Energies and Occupations

         #    Occupation            Energy/Eh            Energy/eV
      -------------------------------------------------------------
         1        2.0000           -0.4323173             -11.7640
         2        2.0000           -0.4072893             -11.0829
         3        2.0000           -0.3768916             -10.2557
         4        2.0000           -0.3227963              -8.7837
         5        2.0000           -0.3042310              -8.2785
         6        2.0000           -0.2988627              -8.1325
         7        2.0000           -0.2649250              -7.2090
         8        2.0000           -0.2488292              -6.7710
         9        2.0000           -0.2411537              -6.5621
        10        2.0000           -0.1552825              -4.2255
        11        2.0000           -0.1359330              -3.6989
        12        2.0000           -0.1310932              -3.5672 (HOMO)
        13                          0.0582687               1.5856 (LUMO)
        14                          0.2968581               8.0779
        15                          0.3489401               9.4951
        16                          0.3846586              10.4671
        17                          0.3960369              10.7767
        18                          0.4087990              11.1240
        19                          0.5853501              15.9282
        20                          0.8477601              23.0687
      -------------------------------------------------------------
                  HL-Gap            0.1893619 Eh            5.1528 eV
             Fermi-level           -0.0364123 Eh           -0.9908 eV

     #   Z          covCN         q      C6AA      α(0)
     1   6 C        3.756    -0.106    22.576     6.775
     2   6 C        2.738     0.270    22.435     7.755
     3   7 N        1.779    -0.546    35.855     8.868
     4   8 O        0.857    -0.650    27.372     7.014
     5   1 H        0.924    -0.011     3.250     2.819
     6   1 H        0.924    -0.011     3.253     2.820
     7   1 H        0.925    -0.001     3.080     2.744
     8   1 H        0.859     0.054     2.283     2.367

 Mol. C6AA /au·bohr⁶  :        756.673822
 Mol. C8AA /au·bohr⁸  :      15935.331828
 Mol. α(0) /au        :         41.163155


Wiberg/Mayer (AO) data.
largest (>0.10) Wiberg bond orders for each atom

 ---------------------------------------------------------------------------
     #   Z sym  total        # sym  WBO       # sym  WBO       # sym  WBO
 ---------------------------------------------------------------------------
     1   6 C    3.979 --     7 H    0.992     5 H    0.985     6 H    0.985
                             2 C    0.933
     2   6 C    3.959 --     3 N    1.558     4 O    1.463     1 C    0.933
     3   7 N    2.808 --     2 C    1.558     8 H    0.970     4 O    0.247
     4   8 O    1.778 --     2 C    1.463     3 N    0.247
     5   1 H    1.000 --     1 C    0.985
     6   1 H    1.000 --     1 C    0.985
     7   1 H    1.000 --     1 C    0.992
     8   1 H    0.997 --     3 N    0.970
 ---------------------------------------------------------------------------

Topologies differ in total number of bonds
Writing topology from bond orders to xtbtopo.mol

molecular dipole:
                 x           y           z       tot (Debye)
 q only:        4.307      -0.851       1.832
   full:        4.176      -0.733       1.751      11.661
molecular quadrupole (traceless):
                xx          xy          yy          xz          yz          zz
 q only:      -16.280       7.297       8.255     -13.250       5.271       8.025
  q+dip:      -13.521       7.827       6.077     -12.852       6.158       7.445
   full:      -13.695       7.944       5.945     -13.021       6.484       7.751

           -------------------------------------------------
          |                Geometry Summary                 |
           -------------------------------------------------

      molecular mass/u    :       58.0593429
   center of mass at/Å    :       -2.6056405       0.0974861      -0.8502433
  moments of inertia/u·Å² :        0.4448742E+02   0.5211308E+02   0.9345299E+02
rotational constants/cm⁻¹ :        0.3789303E+00   0.3234818E+00   0.1803862E+00

 * 4 selected distances

     #   Z          #   Z                                           value/Å
     2   6 C        3   7 N                                       1.3010704 (max)
     1   6 C        5   1 H                                       1.0911199
     1   6 C        6   1 H                                       1.0911676
     1   6 C        7   1 H                                       1.0877322 (min)

 * 2 distinct bonds (by element types)

   Z      Z             #   av. dist./Å        max./Å        min./Å
   1 H    6 C           3     1.0900066     1.0911676     1.0877322
   6 C    7 N           1     1.3010704     1.3010704     1.3010704

           -------------------------------------------------
          |               Frequency Printout                |
           -------------------------------------------------
 projected vibrational frequencies (cm⁻¹)
eigval :       -0.00    -0.00    -0.00    -0.00    -0.00     0.00
eigval :       81.75   405.31   548.07   549.91   796.97   852.02
eigval :      976.13   985.95  1236.03  1334.58  1361.43  1494.64
eigval :     1498.48  1717.00  2967.60  2979.38  3013.66  3216.20
 reduced masses (amu)
   1: 11.33   2: 11.88   3: 12.43   4: 13.30   5: 12.01   6: 12.82   7:  1.94   8:  9.80
   9:  8.21  10: 11.12  11:  4.34  12: 10.16  13:  5.09  14:  5.17  15:  9.42  16:  3.69
  17:  8.41  18:  1.64  19:  1.75  20: 12.70  21:  1.94  22:  1.47  23:  1.70  24:  1.84
 IR intensities (km·mol⁻¹)
   1:  9.22   2:  9.46   3: 12.44   4:  6.31   5:  3.64   6: 16.46   7:  0.08   8:  2.98
   9:  6.96  10: 30.01  11: 97.79  12: 57.04  13:  2.37  14: 14.61  15: 31.65  16: 20.00
  17:176.81  18:  0.25  19:  1.38  20:685.13  21:113.45  22: 84.68  23: 75.29  24:202.79
 Raman intensities (Ä⁴*amu⁻¹)
   1:  0.00   2:  0.00   3:  0.00   4:  0.00   5:  0.00   6:  0.00   7:  0.00   8:  0.00
   9:  0.00  10:  0.00  11:  0.00  12:  0.00  13:  0.00  14:  0.00  15:  0.00  16:  0.00
  17:  0.00  18:  0.00  19:  0.00  20:  0.00  21:  0.00  22:  0.00  23:  0.00  24:  0.00
 output can be read by thermo (or use thermo option).
 writing <g98.out> molden fake output.
 recommended (thermochemical) frequency scaling factor: 1.0
           -------------------------------------------------
          |             Thermodynamic Functions             |
           -------------------------------------------------

Refinement of some symmetry elements was terminated before convergence was reached.
Some symmetry elements may remain unidentified.
Molecule has the following symmetry elements: (sigma) 
It seems to be the Cs point group
cs  symmetry found (for desy threshold:  0.10E+00) used in thermo

          ...................................................
          :                      SETUP                      :
          :.................................................:
          :  # frequencies                          18      :
          :  # imaginary freq.                       0      :
          :  linear?                             false      :
          :  only rotor calc.                    false      :
          :  symmetry                               cs      :
          :  rotational number                       1      :
          :  scaling factor                  1.0000000      :
          :  rotor cutoff                   50.0000000 cm⁻¹ :
          :  imag. cutoff                  -20.0000000 cm⁻¹ :
          :.................................................:

    mode    ω/cm⁻¹     T·S(HO)/kcal·mol⁻¹    T·S(FR)/kcal·mol⁻¹   T·S(vib)
   ------------------------------------------------------------------------
       1     81.75    -1.14743 ( 87.72%)    -0.90996 ( 12.28%)    -1.11828
   ------------------------------------------------------------------------

   temp. (K)  partition function   enthalpy   heat capacity  entropy
                                   cal/mol     cal/K/mol   cal/K/mol   J/K/mol
 298.15  VIB   4.41                 1081.319      8.229      6.477
         ROT  0.356E+05              888.752      2.981     23.805
         INT  0.157E+06             1970.072     11.210     30.282
         TR   0.428E+27             1481.254      4.968     38.080
         TOT                        3451.3255    16.1778    68.3619   286.0262

       T/K    H(0)-H(T)+PV         H(T)/Eh          T*S/Eh         G(T)/Eh
   ------------------------------------------------------------------------
    298.15    0.550004E-02    0.647668E-01    0.324809E-01    0.322858E-01
   ------------------------------------------------------------------------

         :::::::::::::::::::::::::::::::::::::::::::::::::::::
         ::                  THERMODYNAMIC                  ::
         :::::::::::::::::::::::::::::::::::::::::::::::::::::
         :: total free energy         -13.464331536287 Eh   ::
         ::.................................................::
         :: total energy              -13.496617375270 Eh   ::
         :: zero point energy           0.059266741953 Eh   ::
         :: G(RRHO) w/o ZPVE           -0.026980902970 Eh   ::
         :: G(RRHO) contrib.            0.032285838983 Eh   ::
         :::::::::::::::::::::::::::::::::::::::::::::::::::::

optimized geometry written to: xtbopt.xyz


           -------------------------------------------------
          | TOTAL ENERGY              -13.496617375270 Eh   |
          | TOTAL ENTHALPY            -13.431850596055 Eh   |
          | TOTAL FREE ENERGY         -13.464331536287 Eh   |
          | GRADIENT NORM               0.000096890134 Eh/α |
          | HOMO-LUMO GAP               5.152798523348 eV   |
           -------------------------------------------------

------------------------------------------------------------------------
 * finished run on 2025/10/18 at 04:32:06.746     
------------------------------------------------------------------------
 total:
 * wall-time:     0 d,  0 h,  0 min,  0.520 sec
 *  cpu-time:     0 d,  0 h,  0 min,  0.607 sec
 * ratio c/w:     1.168 speedup
 SCF:
 * wall-time:     0 d,  0 h,  0 min,  0.070 sec
 *  cpu-time:     0 d,  0 h,  0 min,  0.076 sec
 * ratio c/w:     1.085 speedup
 ANC optimizer:
 * wall-time:     0 d,  0 h,  0 min,  0.176 sec
 *  cpu-time:     0 d,  0 h,  0 min,  0.214 sec
 * ratio c/w:     1.216 speedup
 analytical hessian:
 * wall-time:     0 d,  0 h,  0 min,  0.101 sec
 *  cpu-time:     0 d,  0 h,  0 min,  0.153 sec
 * ratio c/w:     1.522 speedup

