8
 energy: -13.492588820843 gnorm: 0.079338249745 xtb: 6.7.1 (edcfbbe)
C           -3.80166300000000       -0.65269300000000       -0.68469700000000
C           -2.55093700000000        0.17942700000000       -0.79870300000000
N           -1.45692000000000       -0.53868400000000       -0.58268500000000
O           -2.58191300000000        1.36696500000000       -1.09986600000000
H           -4.62644200000000       -0.01312700000000       -0.35452100000000
H           -4.04738600000000       -1.08034200000000       -1.66117700000000
H           -3.69061600000000       -1.45624800000000        0.05086900000000
H           -0.66537300000000        0.10417600000000       -0.69411800000000
8
 energy: -13.495601364408 gnorm: 0.030566783111 xtb: 6.7.1 (edcfbbe)
C           -3.81461051343504       -0.64988656402632       -0.68066520771742
C           -2.53199357042005        0.17500196565201       -0.81073284863656
N           -1.44695882638046       -0.53138252010698       -0.57402374471725
O           -2.59423384418917        1.38757823756330       -1.10480724299549
H           -4.64839264799166       -0.01829934413994       -0.35793291025333
H           -4.07182982240174       -1.08433863582142       -1.64839210481462
H           -3.67733338329156       -1.46018416010182        0.03617700888136
H           -0.63589739189032        0.09098502098116       -0.68452094974669
8
 energy: -13.496174871407 gnorm: 0.010432204510 xtb: 6.7.1 (edcfbbe)
C           -3.82006674182301       -0.65095637631970       -0.67738951659413
C           -2.52248579457192        0.17996890857409       -0.78866464869035
N           -1.44830229191473       -0.52430180291288       -0.56684349540626
O           -2.61377494906848        1.39457713496654       -1.11120727933904
H           -4.65334136231177       -0.01800971056153       -0.36601291167393
H           -4.06513403550414       -1.08276058618062       -1.64980743939212
H           -3.67755820627239       -1.46234404846221        0.03291002553867
H           -0.62058661853356        0.07330048089633       -0.69788273444284
8
 energy: -13.496276354580 gnorm: 0.009734978083 xtb: 6.7.1 (edcfbbe)
C           -3.82080240296468       -0.65282633145699       -0.67824867007607
C           -2.51843484326335        0.17581891241920       -0.81433887243423
N           -1.44987976670337       -0.52251127104335       -0.57102740739953
O           -2.62412475795825        1.39387865014109       -1.11973305296503
H           -4.64073814341981       -0.01395262181771       -0.35058471971497
H           -4.08071356657045       -1.07762947813933       -1.64998003984479
H           -3.66896791619499       -1.46588581947913        0.02853653790888
H           -0.61758860292510        0.07258195937621       -0.66952177547427
8
 energy: -13.496338353200 gnorm: 0.004141378688 xtb: 6.7.1 (edcfbbe)
C           -3.81971087542053       -0.65307539617847       -0.67812228240567
C           -2.51949350847286        0.17949462922786       -0.80789438474716
N           -1.45046442004159       -0.52074750403313       -0.56529390245198
O           -2.62508367892212        1.39192000161245       -1.12383360901427
H           -4.64022163351159       -0.01539077987923       -0.34946552944654
H           -4.07731659052715       -1.07451341202829       -1.65162352228467
H           -3.67180190466658       -1.46833484435265        0.02715880919346
H           -0.61715738843758        0.07012130563148       -0.67582357884317
8
 energy: -13.496362225555 gnorm: 0.000674230375 xtb: 6.7.1 (edcfbbe)
C           -3.81905590252107       -0.65342413499640       -0.67790545533892
C           -2.51922813826215        0.18221156608594       -0.80727783932231
N           -1.45127147200556       -0.51841669917783       -0.55905710935208
O           -2.62793230769761        1.38913512877790       -1.13385540764601
H           -4.63783803783164       -0.01679739387022       -0.34238974542161
H           -4.07989739976890       -1.06798243088377       -1.65327382898579
H           -3.67058648402814       -1.47300418856345        0.02249305107510
H           -0.61544025788494        0.06775215262784       -0.67363166500837
8
 energy: -13.496380055783 gnorm: 0.002913360047 xtb: 6.7.1 (edcfbbe)
C           -3.81856215537297       -0.65376745501547       -0.67763557832083
C           -2.51832983098955        0.18388583257135       -0.81034369927050
N           -1.45240295832942       -0.51516522945631       -0.54842142388082
O           -2.63003853125515        1.38451475121931       -1.15271066120860
H           -4.63371859878356       -0.01942374507999       -0.32765844483118
H           -4.08905207332169       -1.05609892904984       -1.65552664663788
H           -3.66519478864623       -1.48113287821519        0.01264876228283
H           -0.61395106330143        0.06666165302616       -0.66525030813302
8
 energy: -13.496405043510 gnorm: 0.003894288597 xtb: 6.7.1 (edcfbbe)
C           -3.81828242842652       -0.65398297093055       -0.67739624734226
C           -2.51750411505719        0.18379701488518       -0.81516584746739
N           -1.45363630889594       -0.51133335133232       -0.53412890089925
O           -2.62965332005779        1.37802557568392       -1.17794231049095
H           -4.62827599338880       -0.02321708075833       -0.30746706989236
H           -4.10297011635635       -1.04024801709152       -1.65814199203832
H           -3.65715720255596       -1.49162001652603       -0.00125379247642
H           -0.61377051526146        0.06805284606965       -0.65340183939305
8
 energy: -13.496360404274 gnorm: 0.011936855583 xtb: 6.7.1 (edcfbbe)
C           -3.81717426496681       -0.65481284677593       -0.67652631971031
C           -2.51447141967638        0.18060438844922       -0.83756257061983
N           -1.45926156260229       -0.49258835929531       -0.46536996196290
O           -2.62406626750172        1.34504033109134       -1.29805950414823
H           -4.60084279517011       -0.04180453216377       -0.21112546813809
H           -4.17026704707453       -0.96420431070417       -1.66952845918437
H           -3.62005064960025       -1.54122932308483       -0.06888456410727
H           -0.61511599340791        0.07846865248346       -0.59784115212900
8
 energy: -13.496466065722 gnorm: 0.003906296417 xtb: 6.7.1 (edcfbbe)
C           -3.81782933689531       -0.65407549368723       -0.67721414800012
C           -2.51616900537773        0.18070666135677       -0.82560529346908
N           -1.45613726291938       -0.50295816172569       -0.50585751247964
O           -2.62456257721837        1.36226934910746       -1.22877989011853
H           -4.61563272071794       -0.03235094220330       -0.26641011718796
H           -4.13330524030584       -1.00759608028047       -1.66095488030305
H           -3.64191654362981       -1.51168617220544       -0.03157602505035
H           -0.61569731293561        0.07516483963791       -0.62850013339127
8
 energy: -13.496492469511 gnorm: 0.003152736826 xtb: 6.7.1 (edcfbbe)
C           -3.81783251071244       -0.65427209867131       -0.67729142314792
C           -2.51608714760087        0.17876981150243       -0.82917911508934
N           -1.45713978856629       -0.49925795240798       -0.49374942183474
O           -2.62206978640548        1.35540861881123       -1.24889496994293
H           -4.60960809539736       -0.03561941917501       -0.25016488718334
H           -4.14515810226358       -0.99440820101683       -1.66212120898629
H           -3.63640694508565       -1.51986540164699       -0.04385680407039
H           -0.61694762396834        0.07871864260447       -0.61964016974505
8
 energy: -13.496434027675 gnorm: 0.013594671668 xtb: 6.7.1 (edcfbbe)
C           -3.81768821094491       -0.65544677190212       -0.67827357756933
C           -2.51543549257031        0.16653461519680       -0.85205899325615
N           -1.46290530525905       -0.47596811000777       -0.42146795807964
O           -2.60679245539472        1.31220776609007       -1.37153421930770
H           -4.57108760275874       -0.05588009726668       -0.15049051176131
H           -4.21870040242009       -0.91398371689976       -1.66816562950132
H           -3.60422798666640       -1.56942854155832       -0.11928631709275
H           -0.62441254398578        0.10143885634778       -0.56362079343181
8
 energy: -13.496550257770 gnorm: 0.000669965601 xtb: 6.7.1 (edcfbbe)
C           -3.81797460576856       -0.65481689602161       -0.67814758731437
C           -2.51619924254126        0.17206863333521       -0.83853090013314
N           -1.45960793460564       -0.48921290282066       -0.46541127872913
O           -2.61404953050022        1.33654886699824       -1.29645421599820
H           -4.59201971533942       -0.04396349228593       -0.21114328359524
H           -4.17505709578006       -0.96258259794722       -1.66286790122804
H           -3.62512826576544       -1.53873738880197       -0.07473614777824
H           -0.62121360969940        0.09016977754396       -0.59760668522365
8
 energy: -13.496569567936 gnorm: 0.001705353297 xtb: 6.7.1 (edcfbbe)
C           -3.81792708342854       -0.65517894989431       -0.67869519678380
C           -2.51601097180733        0.16908699656656       -0.84352859070294
N           -1.46090135247027       -0.48357846373495       -0.45027330311323
O           -2.61063321708099        1.32647195215045       -1.32206957862709
H           -4.58240246916360       -0.04847764150724       -0.19017697374996
H           -4.19096832708209       -0.94546191988873       -1.66331151023934
H           -3.61948218829080       -1.54901685333155       -0.09113687678350
H           -0.62292439067638        0.09562887963979       -0.58570597000014
8
 energy: -13.496577260131 gnorm: 0.006258166638 xtb: 6.7.1 (edcfbbe)
C           -3.81747523613628       -0.65597180886112       -0.67997540135053
C           -2.51477152011439        0.16273423799726       -0.85653397295638
N           -1.46469536268883       -0.46931828284953       -0.41412130512326
O           -2.60267480971795        1.30120874872542       -1.38515651780661
H           -4.55846987937996       -0.06079484589551       -0.13881428553410
H           -4.23029446072468       -0.90296982478739       -1.66296967012067
H           -3.60610697640449       -1.57385951310328       -0.13204111794894
H           -0.62676175483341        0.10844528877417       -0.55528572915953
8
 energy: -13.496593773271 gnorm: 0.003307681242 xtb: 6.7.1 (edcfbbe)
C           -3.81759036464331       -0.65585029340313       -0.67981842033685
C           -2.51498605844102        0.16404187169123       -0.85357380325272
N           -1.46407903702993       -0.47204263316632       -0.42242537642825
O           -2.60429124507178        1.30618839915663       -1.37065170873877
H           -4.56293495594496       -0.05838706393371       -0.15068928764993
H           -4.22133501776105       -0.91235500082276       -1.66224188937568
H           -3.60998161604855       -1.56802121792502       -0.12318924747329
H           -0.62605170505939        0.10589993840308       -0.56230826674453
8
 energy: -13.496601355472 gnorm: 0.001773347388 xtb: 6.7.1 (edcfbbe)
C           -3.81754734903943       -0.65598729496371       -0.68003939049537
C           -2.51468922311675        0.16371538887412       -0.85462218062581
N           -1.46471519722870       -0.47040591333787       -0.41997553532565
O           -2.60365826949181        1.30339704985932       -1.37520553216123
H           -4.56018174945166       -0.05992323407211       -0.14707667914563
H           -4.22423153001476       -0.90882712396260       -1.66122600897645
H           -3.60985050191972       -1.56953208359297       -0.12677116521596
H           -0.62637617973716        0.10703721119583       -0.55998150805392
8
 energy: -13.496612553269 gnorm: 0.000588361523 xtb: 6.7.1 (edcfbbe)
C           -3.81733244161901       -0.65649781555148       -0.68064845827882
C           -2.51348979464270        0.16188108130070       -0.86018253771877
N           -1.46729862097081       -0.46295796548002       -0.40518439973681
O           -2.60041298809821        1.29037505018228       -1.40234568139407
H           -4.54799808374161       -0.06693227296311       -0.12552498023794
H           -4.24075762814165       -0.88942827996230       -1.65863879892332
H           -3.60607087182175       -1.57951090700037       -0.14571774567598
H           -0.62788957096426        0.11254510947431       -0.54665539803431
8
 energy: -13.496615521433 gnorm: 0.001605633746 xtb: 6.7.1 (edcfbbe)
C           -3.81713158812128       -0.65699613338974       -0.68125040086768
C           -2.51233633231811        0.15882535799832       -0.86750443114316
N           -1.47023930256367       -0.45366556688279       -0.38447746397489
O           -2.59544774787144        1.27380954068002       -1.43902102080993
H           -4.53297819205401       -0.07570782994112       -0.09622030362093
H           -4.26305442062301       -0.86367332799582       -1.65638517079768
H           -3.59987033705097       -1.59331323412381       -0.17077730601397
H           -0.63019207939751        0.12019519365496       -0.52926190277178
8
 energy: -13.496617375178 gnorm: 0.000096028324 xtb: 6.7.1 (edcfbbe)
C           -3.81727020793748       -0.65676399297879       -0.68091904370297
C           -2.51270202842699        0.15973431702694       -0.86501775406381
N           -1.46935635766428       -0.45650693128356       -0.39124531135527
O           -2.59662331955538        1.27867045389296       -1.42738535774131
H           -4.53778228577159       -0.07325125709081       -0.10566464039996
H           -4.25576811627160       -0.87164739300086       -1.65672194841947
H           -3.60212239752717       -1.58880477321337       -0.16306535014273
H           -0.62962528684550        0.11804357664750       -0.53487859417450
