 Entering Gaussian System
 *********************************************
 Gaussian 98:
 frequency output generated by the xtb code
 *********************************************
                         Standard orientation:
 --------------------------------------------------------------------
  Center     Atomic     Atomic              Coordinates (Angstroms)
  Number     Number      Type              X           Y           Z
 --------------------------------------------------------------------
    1          6             0       -2.050365   -2.820918    1.558868
    2          6             0       -2.542193   -2.166141    0.372690
    3          6             0       -3.709778   -2.521633   -0.204532
    4          6             0       -4.503824   -3.565435    0.341744
    5          6             0       -4.049077   -4.229995    1.509557
    6          6             0       -2.881723   -3.877100    2.090402
    7          8             0       -6.372772   -4.851819    0.252315
    8          1             0       -2.539070   -4.387552    2.981477
    9          1             0       -1.934002   -1.374678   -0.035502
   10          1             0       -4.079329   -2.030641   -1.093002
   11          7             0       -5.673744   -3.920870   -0.239360
   12          1             0       -4.670221   -5.019813    1.907878
   13          8             0       -6.077021   -3.325712   -1.277721
   14          7             0       -0.919761   -2.436615    2.066567
   15          1             0       -0.675798   -2.972064    2.899872
 --------------------------------------------------------------------
     1 basis functions        1 primitive gaussians
     1 alpha electrons        1 beta electrons
 
 Harmonic frequencies (cm**-1), IR intensities (km*mol⁻¹),
 Raman scattering activities (A**4/amu), Raman depolarization ratios,
 reduced masses (AMU), force constants (mDyne/A) and normal coordinates:
                      1                      2                      3
                        a                      a                      a 
 Frequencies --    84.8020               107.7150               212.0359
 Red. masses --    12.4491                14.0074                13.6262
 Frc consts  --     0.0000                 0.0000                 0.0000
 IR Inten    --    16.6556                 0.2541                14.0036
 Raman Activ --     0.0000                 0.0000                 0.0000
 Depolar     --     0.0000                 0.0000                 0.0000
 Atom AN      X      Y      Z        X      Y      Z        X      Y      Z
   1   6     0.02  -0.02  -0.02     0.00  -0.00  -0.00     0.01   0.04  -0.04
   2   6    -0.11   0.15   0.13    -0.13   0.18   0.16    -0.13  -0.07  -0.03
   3   6    -0.16   0.22   0.19    -0.10   0.13   0.11    -0.14  -0.21   0.13
   4   6    -0.11   0.15   0.13    -0.00  -0.00   0.00    -0.04  -0.23   0.23
   5   6    -0.16   0.22   0.19     0.09  -0.13  -0.11     0.07  -0.15   0.23
   6   6    -0.12   0.16   0.14     0.13  -0.18  -0.15     0.11   0.00   0.10
   7   8     0.14  -0.19  -0.17    -0.29   0.39   0.33    -0.35   0.05  -0.36
   8   1    -0.04   0.05   0.05     0.07  -0.10  -0.09     0.07   0.03   0.03
   9   1    -0.04   0.05   0.04    -0.07   0.10   0.09    -0.06  -0.02  -0.04
  10   1    -0.06   0.08   0.07    -0.05   0.07   0.06    -0.07  -0.09   0.04
  11   7     0.04  -0.05  -0.05     0.00  -0.00  -0.00    -0.00  -0.02   0.02
  12   1    -0.06   0.08   0.07     0.05  -0.07  -0.06     0.05  -0.05   0.10
  13   8     0.14  -0.19  -0.16     0.29  -0.39  -0.34     0.42   0.29   0.03
  14   7     0.29  -0.40  -0.34    -0.01   0.01   0.01     0.03   0.24  -0.25
  15   1     0.10  -0.14  -0.12     0.03  -0.04  -0.03     0.07   0.10  -0.06
                      4                      5                      6
                        a                      a                      a 
 Frequencies --   238.0663               353.2171               373.1595
 Red. masses --    11.3993                13.7888                 9.3764
 Frc consts  --     0.0000                 0.0000                 0.0000
 IR Inten    --     1.7984                 0.6593                 2.3501
 Raman Activ --     0.0000                 0.0000                 0.0000
 Depolar     --     0.0000                 0.0000                 0.0000
 Atom AN      X      Y      Z        X      Y      Z        X      Y      Z
   1   6     0.12  -0.16  -0.14    -0.33  -0.11  -0.15    -0.00   0.01   0.01
   2   6     0.17  -0.24  -0.20    -0.11   0.03  -0.15     0.20  -0.28  -0.23
   3   6    -0.11   0.15   0.13    -0.08   0.07  -0.14    -0.21   0.29   0.25
   4   6    -0.26   0.35   0.30     0.15   0.05   0.07    -0.02   0.02   0.02
   5   6    -0.11   0.15   0.13    -0.11  -0.13   0.03     0.22  -0.30  -0.26
   6   6     0.18  -0.25  -0.21    -0.16  -0.14   0.04    -0.20   0.28   0.24
   7   8     0.10  -0.13  -0.11     0.37   0.08   0.22    -0.03   0.03   0.02
   8   1     0.10  -0.13  -0.11    -0.01  -0.01   0.01    -0.08   0.11   0.10
   9   1     0.09  -0.13  -0.11     0.01  -0.00  -0.00     0.09  -0.13  -0.11
  10   1    -0.04   0.05   0.04    -0.07  -0.01  -0.04    -0.12   0.17   0.15
  11   7    -0.07   0.10   0.08     0.25   0.08   0.12    -0.01   0.00   0.00
  12   1    -0.04   0.06   0.05    -0.07  -0.03  -0.04     0.14  -0.19  -0.16
  13   8     0.09  -0.13  -0.11     0.37   0.14   0.14     0.02  -0.04  -0.04
  14   7    -0.14   0.20   0.17    -0.38  -0.10  -0.21     0.03  -0.03  -0.03
  15   1    -0.06   0.08   0.07    -0.09  -0.01  -0.05    -0.08   0.11   0.10
                      7                      8                      9
                        a                      a                      a 
 Frequencies --   401.6042               426.7179               542.8419
 Red. masses --    10.9765                 8.8348                13.2399
 Frc consts  --     0.0000                 0.0000                 0.0000
 IR Inten    --    18.6915                 0.0100                 4.4617
 Raman Activ --     0.0000                 0.0000                 0.0000
 Depolar     --     0.0000                 0.0000                 0.0000
 Atom AN      X      Y      Z        X      Y      Z        X      Y      Z
   1   6     0.03   0.23  -0.25    -0.23   0.33   0.28    -0.02  -0.09   0.09
   2   6     0.00   0.23  -0.27    -0.03   0.04   0.04     0.02  -0.03   0.06
   3   6    -0.08  -0.03  -0.02     0.14  -0.19  -0.16     0.06   0.26  -0.25
   4   6    -0.01  -0.07   0.08    -0.23   0.32   0.27     0.04   0.18  -0.18
   5   6     0.05  -0.01   0.05     0.12  -0.16  -0.14     0.05   0.25  -0.25
   6   6     0.07   0.25  -0.24    -0.02   0.03   0.02    -0.03  -0.06   0.04
   7   8    -0.14  -0.07  -0.03     0.04  -0.06  -0.05    -0.41  -0.24  -0.07
   8   1     0.08   0.12  -0.06     0.11  -0.15  -0.13    -0.07  -0.06   0.01
   9   1    -0.06   0.08  -0.14     0.10  -0.14  -0.12     0.07  -0.02   0.08
  10   1    -0.08  -0.05  -0.00     0.16  -0.22  -0.19     0.08   0.12  -0.07
  11   7    -0.00  -0.09   0.10    -0.09   0.12   0.10    -0.05  -0.25   0.25
  12   1     0.05  -0.01   0.06     0.15  -0.20  -0.17    -0.04   0.08  -0.13
  13   8     0.19   0.03   0.12     0.04  -0.05  -0.05     0.34  -0.02   0.32
  14   7    -0.04  -0.39   0.42     0.09  -0.13  -0.10    -0.01   0.02  -0.03
  15   1    -0.23  -0.24   0.09     0.06  -0.08  -0.07     0.04   0.03  -0.00
                     10                     11                     12
                        a                      a                      a 
 Frequencies --   599.9889               608.9522               636.4333
 Red. masses --    11.5304                13.2891                12.5947
 Frc consts  --     0.0000                 0.0000                 0.0000
 IR Inten    --     8.6293                81.4998                38.4725
 Raman Activ --     0.0000                 0.0000                 0.0000
 Depolar     --     0.0000                 0.0000                 0.0000
 Atom AN      X      Y      Z        X      Y      Z        X      Y      Z
   1   6     0.01  -0.05   0.07     0.19   0.06   0.09    -0.16   0.22   0.19
   2   6    -0.41  -0.29  -0.00    -0.13  -0.18   0.11     0.08  -0.12  -0.09
   3   6    -0.35  -0.00  -0.30    -0.14  -0.17   0.08    -0.11   0.15   0.13
   4   6    -0.03   0.03  -0.06    -0.23  -0.07  -0.12    -0.02   0.02   0.02
   5   6     0.36   0.25   0.00    -0.21   0.03  -0.22    -0.11   0.15   0.12
   6   6     0.30  -0.02   0.28    -0.18   0.12  -0.29     0.07  -0.10  -0.09
   7   8     0.13   0.07   0.03     0.22  -0.14   0.35    -0.11   0.15   0.13
   8   1     0.06  -0.02   0.08    -0.12  -0.02  -0.08     0.09  -0.13  -0.11
   9   1    -0.11  -0.08  -0.00    -0.10  -0.04  -0.04     0.09  -0.13  -0.11
  10   1    -0.08   0.01  -0.08     0.01  -0.01   0.02     0.02  -0.03  -0.03
  11   7    -0.01   0.06  -0.07    -0.15  -0.05  -0.05     0.36  -0.49  -0.42
  12   1     0.10   0.07  -0.00    -0.02   0.00  -0.03     0.02  -0.03  -0.02
  13   8    -0.01   0.08  -0.11     0.34   0.28  -0.05    -0.11   0.16   0.13
  14   7     0.02  -0.12   0.16     0.25   0.11   0.09     0.03  -0.03  -0.03
  15   1    -0.06  -0.07   0.04     0.08   0.04   0.02     0.04  -0.05  -0.04
                     13                     14                     15
                        a                      a                      a 
 Frequencies --   685.4252               747.0583               768.0034
 Red. masses --    11.9049                 2.7405                13.5095
 Frc consts  --     0.0000                 0.0000                 0.0000
 IR Inten    --    15.7062                55.5836                41.6101
 Raman Activ --     0.0000                 0.0000                 0.0000
 Depolar     --     0.0000                 0.0000                 0.0000
 Atom AN      X      Y      Z        X      Y      Z        X      Y      Z
   1   6     0.24  -0.33  -0.28    -0.04   0.06   0.05     0.16   0.05   0.08
   2   6    -0.11   0.15   0.13    -0.00  -0.00  -0.00    -0.21  -0.15  -0.00
   3   6     0.12  -0.16  -0.14     0.06  -0.08  -0.07    -0.19  -0.01  -0.15
   4   6    -0.26   0.35   0.30     0.02  -0.03  -0.03     0.13   0.04   0.06
   5   6     0.10  -0.14  -0.12    -0.09   0.12   0.11    -0.21  -0.11  -0.05
   6   6    -0.10   0.14   0.12    -0.00   0.00  -0.00    -0.18   0.02  -0.18
   7   8    -0.06   0.08   0.07     0.01  -0.01  -0.01     0.06   0.32  -0.32
   8   1    -0.05   0.07   0.06     0.16  -0.22  -0.19    -0.10  -0.03  -0.05
   9   1    -0.08   0.10   0.09    -0.12   0.16   0.13    -0.10  -0.03  -0.05
  10   1     0.01  -0.02  -0.02    -0.08   0.11   0.09    -0.09  -0.03  -0.04
  11   7     0.21  -0.29  -0.25    -0.00   0.01   0.01     0.31   0.09   0.16
  12   1     0.02  -0.03  -0.03     0.09  -0.12  -0.11    -0.09  -0.02  -0.05
  13   8    -0.06   0.08   0.07    -0.01   0.00   0.01    -0.07  -0.32   0.32
  14   7    -0.04   0.05   0.04     0.14  -0.19  -0.16     0.26   0.08   0.12
  15   1    -0.06   0.08   0.07    -0.38   0.53   0.45     0.07   0.02   0.03
                     16                     17                     18
                        a                      a                      a 
 Frequencies --   819.7829               841.1200               847.8639
 Red. masses --     5.8388                 3.5531                11.7211
 Frc consts  --     0.0000                 0.0000                 0.0000
 IR Inten    --    47.2078                 4.6777                89.3533
 Raman Activ --     0.0000                 0.0000                 0.0000
 Depolar     --     0.0000                 0.0000                 0.0000
 Atom AN      X      Y      Z        X      Y      Z        X      Y      Z
   1   6     0.19  -0.26  -0.22    -0.02   0.04   0.03    -0.17  -0.06  -0.08
   2   6    -0.11   0.14   0.12     0.16  -0.21  -0.19    -0.02  -0.26   0.28
   3   6    -0.06   0.08   0.07     0.11  -0.14  -0.13     0.08  -0.24   0.34
   4   6     0.11  -0.16  -0.13    -0.03   0.04   0.03    -0.03  -0.01  -0.01
   5   6    -0.09   0.12   0.10    -0.06   0.08   0.07     0.18   0.31  -0.21
   6   6    -0.17   0.23   0.19    -0.09   0.12   0.11     0.08   0.29  -0.26
   7   8     0.00  -0.00  -0.00     0.00  -0.01  -0.00     0.06   0.16  -0.13
   8   1     0.26  -0.36  -0.31     0.15  -0.21  -0.17     0.02   0.07  -0.08
   9   1     0.17  -0.23  -0.20    -0.25   0.34   0.29    -0.01  -0.07   0.09
  10   1     0.10  -0.14  -0.12    -0.19   0.27   0.23     0.10  -0.00   0.10
  11   7    -0.03   0.04   0.03     0.00  -0.00  -0.00     0.09   0.03   0.04
  12   1     0.15  -0.21  -0.18     0.11  -0.16  -0.14     0.12   0.07   0.02
  13   8     0.00  -0.00  -0.00    -0.00   0.01   0.00     0.01  -0.14   0.17
  14   7    -0.06   0.09   0.08    -0.06   0.09   0.08    -0.30  -0.08  -0.16
  15   1     0.05  -0.07  -0.06     0.21  -0.29  -0.25    -0.11  -0.04  -0.05
                     19                     20                     21
                        a                      a                      a 
 Frequencies --   919.5831               922.6776               964.3323
 Red. masses --     2.7871                 3.3114                 8.7905
 Frc consts  --     0.0000                 0.0000                 0.0000
 IR Inten    --     0.7066                 0.1342                 2.8093
 Raman Activ --     0.0000                 0.0000                 0.0000
 Depolar     --     0.0000                 0.0000                 0.0000
 Atom AN      X      Y      Z        X      Y      Z        X      Y      Z
   1   6    -0.05   0.06   0.06    -0.01   0.01   0.01     0.03   0.01   0.01
   2   6    -0.04   0.05   0.04    -0.12   0.16   0.14     0.07   0.27  -0.26
   3   6     0.07  -0.09  -0.08     0.15  -0.21  -0.18    -0.03  -0.29   0.31
   4   6    -0.01   0.01   0.01     0.00  -0.00  -0.00    -0.08  -0.02  -0.05
   5   6     0.14  -0.21  -0.17    -0.09   0.12   0.11     0.08   0.30  -0.28
   6   6    -0.09   0.12   0.10     0.07  -0.10  -0.08    -0.04  -0.27   0.29
   7   8    -0.00   0.00   0.00    -0.00   0.00   0.00     0.06   0.09  -0.05
   8   1     0.21  -0.29  -0.25    -0.12   0.17   0.14    -0.19  -0.20   0.07
   9   1     0.12  -0.16  -0.14     0.24  -0.33  -0.28    -0.15   0.11  -0.26
  10   1    -0.18   0.25   0.21    -0.30   0.41   0.35    -0.14  -0.17   0.08
  11   7     0.01  -0.02  -0.02     0.00  -0.00  -0.00     0.01   0.00   0.01
  12   1    -0.32   0.45   0.38     0.15  -0.21  -0.18    -0.10   0.11  -0.20
  13   8    -0.00   0.00   0.00    -0.00   0.00  -0.00     0.03  -0.06   0.10
  14   7     0.01  -0.01  -0.01    -0.01   0.01   0.01     0.02  -0.00   0.02
  15   1    -0.00   0.00   0.00     0.02  -0.03  -0.02     0.03   0.01   0.01
                     22                     23                     24
                        a                      a                      a 
 Frequencies --  1097.3190              1123.1488              1158.4567
 Red. masses --     4.9367                10.4413                 3.0338
 Frc consts  --     0.0000                 0.0000                 0.0000
 IR Inten    --    24.7343               542.9986               311.6407
 Raman Activ --     0.0000                 0.0000                 0.0000
 Depolar     --     0.0000                 0.0000                 0.0000
 Atom AN      X      Y      Z        X      Y      Z        X      Y      Z
   1   6    -0.06  -0.27   0.26     0.00  -0.00   0.01     0.02   0.17  -0.18
   2   6     0.08   0.18  -0.15    -0.07  -0.12   0.08     0.04  -0.02   0.06
   3   6    -0.06   0.05  -0.12    -0.01  -0.07   0.08    -0.05  -0.02  -0.02
   4   6    -0.04  -0.13   0.11     0.44   0.14   0.22    -0.02  -0.06   0.05
   5   6     0.08   0.12  -0.07     0.02   0.07  -0.07    -0.02   0.02  -0.04
   6   6    -0.02   0.14  -0.19    -0.03   0.09  -0.13    -0.00  -0.07   0.08
   7   8     0.03   0.03  -0.01    -0.24  -0.29   0.13     0.04   0.04  -0.01
   8   1    -0.19  -0.09  -0.06    -0.01   0.02  -0.04    -0.22  -0.17   0.02
   9   1     0.23   0.01   0.18    -0.04  -0.03   0.00     0.41  -0.09   0.45
  10   1    -0.38  -0.24  -0.03    -0.28  -0.23   0.03    -0.23  -0.16  -0.00
  11   7     0.00  -0.01   0.01     0.24   0.08   0.12    -0.08  -0.03  -0.04
  12   1     0.30  -0.02   0.28    -0.22   0.08  -0.28    -0.03   0.01  -0.03
  13   8    -0.01   0.00  -0.01    -0.15   0.16  -0.32     0.02  -0.02   0.04
  14   7    -0.07  -0.09   0.04    -0.01  -0.01   0.00     0.18   0.17  -0.05
  15   1     0.32   0.20   0.04     0.02   0.01   0.00    -0.46  -0.28  -0.06
                     25                     26                     27
                        a                      a                      a 
 Frequencies --  1181.5462              1274.6803              1336.8715
 Red. masses --     3.1563                 4.0028                 8.7262
 Frc consts  --     0.0000                 0.0000                 0.0000
 IR Inten    --   383.4307               166.1669              1097.2216
 Raman Activ --     0.0000                 0.0000                 0.0000
 Depolar     --     0.0000                 0.0000                 0.0000
 Atom AN      X      Y      Z        X      Y      Z        X      Y      Z
   1   6    -0.06  -0.06   0.02    -0.01  -0.07   0.07     0.03   0.18  -0.19
   2   6     0.06   0.05  -0.01     0.10  -0.08   0.18    -0.11   0.01  -0.10
   3   6    -0.08  -0.07   0.01     0.13   0.09   0.00    -0.11  -0.19   0.14
   4   6    -0.10  -0.01  -0.07     0.07   0.24  -0.22    -0.10   0.13  -0.25
   5   6    -0.08  -0.01  -0.05    -0.11  -0.02  -0.07    -0.06   0.06  -0.12
   6   6     0.10   0.03   0.04    -0.07  -0.11   0.06    -0.18  -0.23   0.12
   7   8     0.10   0.11  -0.04    -0.01  -0.01  -0.00    -0.15  -0.15   0.05
   8   1     0.53   0.36   0.03     0.26   0.17   0.03     0.24   0.14   0.04
   9   1     0.21  -0.02   0.21    -0.25   0.03  -0.25     0.21  -0.05   0.24
  10   1    -0.20  -0.15   0.00    -0.42  -0.31   0.00     0.10   0.04   0.04
  11   7    -0.18  -0.05  -0.09    -0.08  -0.02  -0.04     0.40   0.16   0.15
  12   1    -0.32   0.06  -0.34     0.25  -0.07   0.30     0.25  -0.04   0.26
  13   8     0.07  -0.06   0.13     0.04  -0.02   0.06    -0.05   0.03  -0.08
  14   7     0.03  -0.04   0.07     0.07   0.10  -0.06     0.05  -0.03   0.08
  15   1     0.20   0.11   0.04    -0.25  -0.15  -0.04     0.15   0.08   0.03
                     28                     29                     30
                        a                      a                      a 
 Frequencies --  1367.9129              1390.2722              1404.3675
 Red. masses --     8.9832                14.0904                11.3168
 Frc consts  --     0.0000                 0.0000                 0.0000
 IR Inten    --    88.0686               512.0583              2379.6982
 Raman Activ --     0.0000                 0.0000                 0.0000
 Depolar     --     0.0000                 0.0000                 0.0000
 Atom AN      X      Y      Z        X      Y      Z        X      Y      Z
   1   6    -0.09  -0.33   0.31     0.06   0.17  -0.15     0.22   0.03   0.15
   2   6    -0.03   0.15  -0.20     0.06  -0.06   0.12     0.10  -0.01   0.09
   3   6    -0.03   0.01  -0.03     0.03   0.04  -0.03     0.10   0.15  -0.09
   4   6    -0.05  -0.25   0.25    -0.04   0.01  -0.05    -0.56  -0.22  -0.22
   5   6    -0.07   0.14  -0.23     0.02   0.01   0.01     0.04  -0.07   0.11
   6   6    -0.06  -0.01  -0.04    -0.07  -0.07   0.03     0.11   0.08  -0.00
   7   8     0.03   0.04  -0.02     0.20   0.28  -0.16    -0.06  -0.07   0.03
   8   1     0.25   0.19  -0.01    -0.01  -0.01   0.01    -0.03  -0.02   0.00
   9   1     0.02   0.03  -0.03    -0.02  -0.01  -0.01    -0.04   0.02  -0.06
  10   1     0.20   0.15  -0.01    -0.06  -0.04  -0.01    -0.18  -0.11  -0.03
  11   7     0.14  -0.09   0.22    -0.09  -0.53   0.54     0.42   0.17   0.16
  12   1     0.05   0.03   0.01     0.00  -0.00   0.01    -0.16   0.01  -0.16
  13   8    -0.09   0.09  -0.18    -0.11   0.19  -0.31    -0.03   0.01  -0.04
  14   7     0.19   0.18  -0.04    -0.07  -0.06   0.01    -0.19  -0.04  -0.11
  15   1    -0.33  -0.21  -0.03     0.11   0.07   0.01    -0.11  -0.05  -0.04
                     31                     32                     33
                        a                      a                      a 
 Frequencies --  1469.1772              1550.4339              1561.8250
 Red. masses --    11.3834                11.5758                12.0497
 Frc consts  --     0.0000                 0.0000                 0.0000
 IR Inten    --    87.4038                13.1622               114.2438
 Raman Activ --     0.0000                 0.0000                 0.0000
 Depolar     --     0.0000                 0.0000                 0.0000
 Atom AN      X      Y      Z        X      Y      Z        X      Y      Z
   1   6     0.04   0.25  -0.26     0.17   0.03   0.11     0.62   0.19   0.31
   2   6     0.08  -0.13   0.22     0.37   0.10   0.19    -0.15   0.01  -0.14
   3   6     0.14   0.25  -0.18    -0.43  -0.18  -0.16     0.00  -0.03   0.03
   4   6    -0.06  -0.42   0.44     0.06   0.04  -0.00     0.19   0.05   0.10
   5   6    -0.03   0.21  -0.27     0.38   0.09   0.22    -0.20  -0.01  -0.16
   6   6    -0.17  -0.20   0.09    -0.44  -0.17  -0.17     0.05  -0.02   0.07
   7   8    -0.00  -0.03   0.03    -0.00  -0.00   0.00     0.02   0.02  -0.01
   8   1     0.12   0.07   0.02     0.07   0.09  -0.05     0.08   0.03   0.03
   9   1    -0.08  -0.01  -0.06     0.02   0.05  -0.05     0.08  -0.02   0.09
  10   1    -0.06  -0.01  -0.04     0.04   0.07  -0.05     0.04   0.02   0.01
  11   7    -0.00   0.12  -0.14    -0.03   0.03  -0.06    -0.13  -0.05  -0.06
  12   1     0.08   0.03   0.02     0.01   0.05  -0.06     0.04  -0.03   0.07
  13   8    -0.00  -0.04   0.04     0.01  -0.01   0.02     0.01  -0.01   0.02
  14   7    -0.04  -0.06   0.04    -0.09   0.01  -0.09    -0.43  -0.14  -0.19
  15   1     0.13   0.08   0.02    -0.08  -0.03  -0.03    -0.09  -0.02  -0.05
                     34                     35                     36
                        a                      a                      a 
 Frequencies --  1621.2923              3044.1124              3074.3713
 Red. masses --    11.6108                 1.7888                 1.8498
 Frc consts  --     0.0000                 0.0000                 0.0000
 IR Inten    --   125.9709               105.6706               107.1114
 Raman Activ --     0.0000                 0.0000                 0.0000
 Depolar     --     0.0000                 0.0000                 0.0000
 Atom AN      X      Y      Z        X      Y      Z        X      Y      Z
   1   6    -0.07  -0.00  -0.06    -0.01   0.00  -0.01    -0.00  -0.00   0.00
   2   6     0.42   0.08   0.26     0.01   0.01  -0.00     0.00  -0.00   0.00
   3   6    -0.43  -0.18  -0.16     0.00   0.00  -0.00    -0.02   0.02  -0.04
   4   6     0.06   0.02   0.04    -0.00  -0.00   0.00     0.01   0.00  -0.00
   5   6    -0.39  -0.07  -0.25    -0.03  -0.04   0.02     0.15   0.19  -0.09
   6   6     0.40   0.15   0.17    -0.09   0.12  -0.21    -0.03   0.03  -0.06
   7   8    -0.02  -0.03   0.01    -0.00  -0.00  -0.00    -0.00  -0.00   0.00
   8   1    -0.05  -0.07   0.05     0.29  -0.44   0.77     0.07  -0.10   0.18
   9   1    -0.02   0.06  -0.08    -0.02  -0.02   0.01     0.00   0.01  -0.00
  10   1     0.05   0.08  -0.05     0.00  -0.00   0.01     0.06  -0.09   0.15
  11   7     0.09   0.03   0.04     0.00   0.00   0.00     0.00   0.00  -0.00
  12   1     0.02  -0.05   0.08     0.13   0.17  -0.08    -0.52  -0.67   0.34
  13   8    -0.02   0.01  -0.03    -0.00   0.00  -0.00    -0.00   0.00  -0.00
  14   7    -0.05  -0.02  -0.01     0.00  -0.00   0.00     0.00   0.00   0.00
  15   1     0.02   0.02  -0.00     0.00   0.00  -0.00    -0.00   0.00  -0.00
                     37                     38                     39
                        a                      a                      a 
 Frequencies --  3080.0751              3102.0760              3307.9147
 Red. masses --     1.7898                 1.8613                 1.8487
 Frc consts  --     0.0000                 0.0000                 0.0000
 IR Inten    --    19.2734                73.5771               148.7449
 Raman Activ --     0.0000                 0.0000                 0.0000
 Depolar     --     0.0000                 0.0000                 0.0000
 Atom AN      X      Y      Z        X      Y      Z        X      Y      Z
   1   6     0.00   0.00  -0.00    -0.01  -0.00  -0.00     0.01   0.01  -0.01
   2   6     0.04   0.05  -0.03    -0.15  -0.19   0.09     0.00  -0.00   0.00
   3   6     0.09  -0.11   0.21     0.03  -0.04   0.07     0.00   0.00   0.00
   4   6     0.01  -0.00   0.01     0.00   0.00  -0.00    -0.00  -0.00   0.00
   5   6     0.03   0.04  -0.02     0.01   0.01  -0.00     0.00   0.00  -0.00
   6   6    -0.01   0.01  -0.01    -0.00   0.01  -0.01     0.00  -0.00   0.00
   7   8    -0.00  -0.00   0.00    -0.00  -0.00   0.00    -0.00  -0.00   0.00
   8   1     0.01  -0.02   0.03     0.01  -0.02   0.03    -0.00  -0.00   0.00
   9   1    -0.16  -0.21   0.11     0.52   0.67  -0.35    -0.00  -0.01   0.00
  10   1    -0.30   0.41  -0.74    -0.09   0.13  -0.23    -0.00   0.00  -0.00
  11   7     0.00  -0.00   0.00     0.00  -0.00   0.00     0.00   0.00   0.00
  12   1    -0.10  -0.13   0.07    -0.02  -0.03   0.01    -0.00  -0.00   0.00
  13   8     0.00   0.00  -0.00    -0.00   0.00  -0.00    -0.00   0.00  -0.00
  14   7     0.00  -0.00   0.00     0.00   0.00  -0.00    -0.07   0.12  -0.21
  15   1    -0.00   0.00  -0.01     0.00  -0.00   0.00     0.25  -0.49   0.79
