      -----------------------------------------------------------      
     |                   =====================                   |     
     |                           x T B                           |     
     |                   =====================                   |     
     |                         S. Grimme                         |     
     |          Mulliken Center for Theoretical Chemistry        |     
     |                    University of Bonn                     |     
      -----------------------------------------------------------      

   * xtb version 6.7.1 (edcfbbe) compiled by 'albert@albert-system' on 2024-07-22

   xtb is free software: you can redistribute it and/or modify it under
   the terms of the GNU Lesser General Public License as published by
   the Free Software Foundation, either version 3 of the License, or
   (at your option) any later version.
   
   xtb is distributed in the hope that it will be useful,
   but WITHOUT ANY WARRANTY; without even the implied warranty of
   MERCHANTABILITY or FITNESS FOR A PARTICULAR PURPOSE.  See the
   GNU Lesser General Public License for more details.
   
   Cite this work as:
   * C. Bannwarth, E. Caldeweyher, S. Ehlert, A. Hansen, P. Pracht,
     J. Seibert, S. Spicher, S. Grimme, WIREs Comput. Mol. Sci., 2020, 11,
     e01493. DOI: 10.1002/wcms.1493
   
   for GFN2-xTB:
   * C. Bannwarth, S. Ehlert and S. Grimme., J. Chem. Theory Comput., 2019,
     15, 1652-1671. DOI: 10.1021/acs.jctc.8b01176
   for GFN1-xTB:
   * S. Grimme, C. Bannwarth, P. Shushkov, J. Chem. Theory Comput., 2017,
     13, 1989-2009. DOI: 10.1021/acs.jctc.7b00118
   for GFN0-xTB:
   * P. Pracht, E. Caldeweyher, S. Ehlert, S. Grimme, ChemRxiv, 2019, preprint.
     DOI: 10.26434/chemrxiv.8326202.v1
   for GFN-FF:
   * S. Spicher and S. Grimme, Angew. Chem. Int. Ed., 2020, 59, 15665-15673.
     DOI: 10.1002/anie.202004239
   
   for ALPB and GBSA implicit solvation:
   * S. Ehlert, M. Stahn, S. Spicher, S. Grimme, J. Chem. Theory Comput.,
     2021, 17, 4250-4261. DOI: 10.1021/acs.jctc.1c00471
   
   for ddCOSMO and CPCM-X implicit solvation:
   * M. Stahn, S. Ehlert, S. Grimme, J. Phys. Chem. A,
     2023, XX, XXXX-XXXX. DOI: 10.1021/acs.jpca.3c04382
   
   for DFT-D4:
   * E. Caldeweyher, C. Bannwarth and S. Grimme, J. Chem. Phys., 2017,
     147, 034112. DOI: 10.1063/1.4993215
   * E. Caldeweyher, S. Ehlert, A. Hansen, H. Neugebauer, S. Spicher,
     C. Bannwarth and S. Grimme, J. Chem. Phys., 2019, 150, 154122.
     DOI: 10.1063/1.5090222
   * E. Caldeweyher, J.-M. Mewes, S. Ehlert and S. Grimme, Phys. Chem. Chem. Phys.
     2020, 22, 8499-8512. DOI: 10.1039/D0CP00502A
   
   for sTDA-xTB:
   * S. Grimme and C. Bannwarth, J. Chem. Phys., 2016, 145, 054103.
     DOI: 10.1063/1.4959605
   
   in the mass-spec context:
   * V. Asgeirsson, C. Bauer and S. Grimme, Chem. Sci., 2017, 8, 4879.
     DOI: 10.1039/c7sc00601b
   * J. Koopman and S. Grimme, ACS Omega 2019, 4, 12, 15120-15133.
     DOI: 10.1021/acsomega.9b02011
   
   for metadynamics refer to:
   * S. Grimme, J. Chem. Theory Comput., 2019, 155, 2847-2862
     DOI: 10.1021/acs.jctc.9b00143
   
   for SPH calculations refer to:
   * S. Spicher and S. Grimme, J. Chem. Theory Comput., 2021, 17, 1701-1714
     DOI: 10.1021/acs.jctc.0c01306
   
   for ONIOM refer to:
   * C. Plett, A. Katbashev, S. Ehlert, S. Grimme, M. Bursch,
     Phys. Chem. Chem. Phys., 2023, 25, 17860-17868. DOI: 10.1039/D3CP02178E
   
   for DIPRO refer to:
   * J. Kohn, N. Gildemeister, S. Grimme, D. Fazzi, A. Hansen,
     J. Chem. Phys., 2023, just accepted.
   
   for PTB refer to:
   * S. Grimme, M. Mueller, A. Hansen, J. Chem. Phys., 2023, 158, 124111.
     DOI: 10.1063/5.0137838
   
   with help from (in alphabetical order)
   P. Atkinson, C. Bannwarth, F. Bohle, G. Brandenburg, E. Caldeweyher
   M. Checinski, S. Dohm, S. Ehlert, S. Ehrlich, I. Gerasimov, C. Hölzer
   A. Katbashev, J. Kohn, J. Koopman, C. Lavigne, S. Lehtola, F. März, M. Müller,
   F. Musil, H. Neugebauer, J. Pisarek, C. Plett, P. Pracht, F. Pultar,
   J. Seibert, P. Shushkov, S. Spicher, M. Stahn, M. Steiner, T. Strunk,
   J. Stückrath, T. Rose, and J. Unsleber
   
 * started run on 2025/10/18 at 04:56:53.979     
   ID    Z sym.   atoms
    1    6 C      1-6
    2    8 O      7, 13
    3    1 H      8-10, 12, 15
    4    7 N      11, 14

           -------------------------------------------------
          |                Calculation Setup                |
           -------------------------------------------------

          program call               : xtb xyz.xyz --alpb water --charge -1 --ohess
          hostname                   : m003
          coordinate file            : xyz.xyz
          omp threads                :                     2


           -------------------------------------------------
          |                 G F N 2 - x T B                 |
           -------------------------------------------------

        Reference                      10.1021/acs.jctc.8b01176
      * Hamiltonian:
        H0-scaling (s, p, d)           1.850000    2.230000    2.230000
        zeta-weighting                 0.500000
      * Dispersion:
        s8                             2.700000
        a1                             0.520000
        a2                             5.000000
        s9                             5.000000
      * Repulsion:
        kExp                           1.500000    1.000000
        rExp                           1.000000
      * Coulomb:
        alpha                          2.000000
        third order                    shell-resolved
        anisotropic                    true
        a3                             3.000000
        a5                             4.000000
        cn-shift                       1.200000
        cn-exp                         4.000000
        max-rad                        5.000000

      * Solvation model:               ALPB
        Solvent                        water
        Parameter file                 internal GFN2-xTB/ALPB
        Dielectric constant                8.0200E+01
        Reference state                gsolv [1 M gas/solution]
        Free energy shift                  1.0808E-03 Eh       6.7819E-01 kcal/mol
        Temperature                        2.9815E+02 K
        Density                            1.0000E+00 kg/L
        Solvent mass                       1.8000E+01 g/mol
        Interaction kernel             P16
        Born radius scaling (c1)           1.4744E+00
        Born radii integrator          GBOBC
        Born offset                        0.0000E+00 a0       0.0000E+00 AA
        H-bond correction              true
        Ion screening                  false
        Surface tension                    1.0000E-05 Eh       1.5569E+01 dyn/cm
        Grid points                               230 per atom

          ...................................................
          :                      SETUP                      :
          :.................................................:
          :  # basis functions                  45          :
          :  # atomic orbitals                  45          :
          :  # shells                           25          :
          :  # electrons                        52          :
          :  max. iterations                   250          :
          :  Hamiltonian                  GFN2-xTB          :
          :  restarted?                      false          :
          :  GBSA solvation                   true          :
          :  PC potential                    false          :
          :  electronic temp.          300.0000000     K    :
          :  accuracy                    1.0000000          :
          :  -> integral cutoff          0.2500000E+02      :
          :  -> integral neglect         0.1000000E-07      :
          :  -> SCF convergence          0.1000000E-05 Eh   :
          :  -> wf. convergence          0.1000000E-03 e    :
          :  Broyden damping             0.4000000          :
          :  net charge                         -1          :
          :  unpaired electrons                  0          :
          ...................................................

 iter      E             dE          RMSdq      gap      omega  full diag
   1    -29.8238928 -0.298239E+02  0.518E+00    1.12       0.0  T
   2    -29.8892006 -0.653078E-01  0.299E+00    0.41       1.0  T
   3    -29.8872846  0.191599E-02  0.177E+00    1.03       1.0  T
   4    -29.9074727 -0.201881E-01  0.884E-01    0.50       1.0  T
   5    -29.9110392 -0.356646E-02  0.307E-01    0.47       1.0  T
   6    -29.9116423 -0.603060E-03  0.816E-02    0.48       1.0  T
   7    -29.9116644 -0.221750E-04  0.401E-02    0.51       1.0  T
   8    -29.9116700 -0.557370E-05  0.197E-02    0.51       1.3  T
   9    -29.9116740 -0.402598E-05  0.594E-03    0.50       4.4  T
  10    -29.9116743 -0.230915E-06  0.270E-03    0.50       9.5  T
  11    -29.9116743 -0.362717E-07  0.918E-04    0.50      28.1  T
  12    -29.9116743 -0.464571E-08  0.309E-04    0.50      83.7  T

   *** convergence criteria satisfied after 12 iterations ***

         #    Occupation            Energy/Eh            Energy/eV
      -------------------------------------------------------------
         1        2.0000           -0.7175192             -19.5247
       ...           ...                  ...                  ...
        20        2.0000           -0.4301134             -11.7040
        21        2.0000           -0.4187776             -11.3955
        22        2.0000           -0.4129008             -11.2356
        23        2.0000           -0.3958368             -10.7713
        24        2.0000           -0.3842127             -10.4550
        25        2.0000           -0.3220306              -8.7629
        26        1.9999           -0.2863283              -7.7914 (HOMO)
        27        0.0001           -0.2678074              -7.2874 (LUMO)
        28                         -0.2053721              -5.5885
        29                         -0.1400647              -3.8114
        30                         -0.0259718              -0.7067
        31                         -0.0015430              -0.0420
       ...                                ...                  ...
        45                          1.4393336              39.1663
      -------------------------------------------------------------
                  HL-Gap            0.0185209 Eh            0.5040 eV
             Fermi-level           -0.2770678 Eh           -7.5394 eV

 SCC (total)                   0 d,  0 h,  0 min,  0.033 sec
 SCC setup                      ...        0 min,  0.000 sec (  1.139%)
 Dispersion                     ...        0 min,  0.000 sec (  0.430%)
 classical contributions        ...        0 min,  0.000 sec (  0.075%)
 integral evaluation            ...        0 min,  0.001 sec (  4.063%)
 iterations                     ...        0 min,  0.029 sec ( 86.090%)
 molecular gradient             ...        0 min,  0.003 sec (  7.852%)
 printout                       ...        0 min,  0.000 sec (  0.279%)

         :::::::::::::::::::::::::::::::::::::::::::::::::::::
         ::                     SUMMARY                     ::
         :::::::::::::::::::::::::::::::::::::::::::::::::::::
         :: total energy             -29.461808021264 Eh    ::
         :: total w/o Gsasa/hb       -29.460230228153 Eh    ::
         :: gradient norm              0.533231658220 Eh/a0 ::
         :: HOMO-LUMO gap              0.503979474627 eV    ::
         ::.................................................::
         :: SCC energy               -29.911665442337 Eh    ::
         :: -> isotropic ES            0.189651905268 Eh    ::
         :: -> anisotropic ES          0.010037173234 Eh    ::
         :: -> anisotropic XC          0.007949465561 Eh    ::
         :: -> dispersion             -0.013723135790 Eh    ::
         :: -> Gsolv                  -0.089026814371 Eh    ::
         ::    -> Gelec               -0.087449021260 Eh    ::
         ::    -> Gsasa                0.001383635094 Eh    ::
         ::    -> Ghb                 -0.004042187903 Eh    ::
         ::    -> Gshift               0.001080759698 Eh    ::
         :: repulsion energy           0.449857421074 Eh    ::
         :: add. restraining           0.000000000000 Eh    ::
         :: total charge              -1.000000000000 e     ::
         :::::::::::::::::::::::::::::::::::::::::::::::::::::

      ----------------------------------------------------------- 
     |                   =====================                   |
     |                        A N C O P T                        |
     |                   =====================                   |
     |               Approximate Normal Coordinate               |
     |                Rational Function Optimizer                |
      ----------------------------------------------------------- 
      ----------------------------------------------------------- 
     |                   =====================                   |
     |                        A N C O P T                        |
     |                   =====================                   |
     |               Approximate Normal Coordinate               |
     |                Rational Function Optimizer                |
      ----------------------------------------------------------- 

          ...................................................
          :                      SETUP                      :
          :.................................................:
          :   optimization level            normal          :
          :   max. optcycles                   200          :
          :   ANC micro-cycles                  20          :
          :   degrees of freedom                39          :
          :.................................................:
          :   RF solver                   davidson          :
          :   write xtbopt.log                true          :
          :   linear?                        false          :
          :   energy convergence         0.5000000E-05 Eh   :
          :   grad. convergence          0.1000000E-02 Eh/α :
          :   maxmium RF displ.          1.0000000          :
          :   Hlow (freq-cutoff)         0.1000000E-01      :
          :   Hmax (freq-cutoff)         5.0000000          :
          :   S6 in model hess.         20.0000000          :
          ...................................................

generating ANC from exact Hessian ...
Using Lindh-Hessian (1995)
 Shifting diagonal of input Hessian by   8.823427509898188E-003
 Lowest  eigenvalues of input Hessian
    0.000000    0.000000    0.000000    0.000000    0.000000    0.000000
    0.010000    0.014842    0.020550    0.024801    0.027343    0.029936
    0.038486    0.064097    0.064263    0.075986    0.088525    0.098925
 Highest eigenvalues
    1.813821    1.898751    2.046742    2.331946    2.449628    3.080771
 

........................................................................
.............................. CYCLE    1 ..............................
........................................................................

 iter      E             dE          RMSdq      gap      omega  full diag
   1    -29.9116743 -0.299117E+02  0.140E-04    0.50       0.0  T
   2    -29.9116743  0.519975E-10  0.141E-04    0.50     183.1  T
   3    -29.9116743 -0.240021E-09  0.528E-05    0.50     489.1  T
     SCC iter.                  ...        0 min,  0.002 sec
     gradient                   ...        0 min,  0.003 sec
 * total energy  :   -29.4618080 Eh     change       -0.4758434E-09 Eh
   gradient norm :     0.5332316 Eh/α   predicted     0.0000000E+00 (-100.00%)
   displ. norm   :     0.3413322 α      lambda       -0.1339939E+00
   maximum displ.:     0.1627980 α      in ANC's #20, #13, #39, ...

........................................................................
.............................. CYCLE    2 ..............................
........................................................................

 iter      E             dE          RMSdq      gap      omega  full diag
   1    -29.9054247 -0.299054E+02  0.596E-01    0.86       0.0  T
   2    -29.9086613 -0.323662E-02  0.441E-01    0.55       1.0  T
   3    -29.9089742 -0.312849E-03  0.238E-01    0.61       1.0  T
   4    -29.9087727  0.201495E-03  0.164E-01    0.53       1.0  T
   5    -29.9090213 -0.248642E-03  0.201E-02    0.55       1.3  T
   6    -29.9090222 -0.892497E-06  0.111E-02    0.55       2.3  T
   7    -29.9090225 -0.280456E-06  0.396E-03    0.55       6.5  T
   8    -29.9090226 -0.823544E-07  0.170E-03    0.55      15.2  T
   9    -29.9090226 -0.107661E-07  0.973E-04    0.55      26.5  T
  10    -29.9090226 -0.238138E-08  0.396E-04    0.55      65.2  T
     SCC iter.                  ...        0 min,  0.004 sec
     gradient                   ...        0 min,  0.003 sec
 * total energy  :   -29.5324593 Eh     change       -0.7065124E-01 Eh
   gradient norm :     0.1134472 Eh/α   predicted    -0.7480258E-01 (   5.88%)
   displ. norm   :     0.1790784 α      lambda       -0.1142391E-01
   maximum displ.:     0.0980221 α      in ANC's #13, #10, #5, ...

........................................................................
.............................. CYCLE    3 ..............................
........................................................................

 iter      E             dE          RMSdq      gap      omega  full diag
   1    -29.9148660 -0.299149E+02  0.340E-01    0.60       0.0  T
   2    -29.9152286 -0.362598E-03  0.184E-01    0.71       1.0  T
   3    -29.9153944 -0.165856E-03  0.117E-01    0.64       1.0  T
   4    -29.9154214 -0.270009E-04  0.344E-02    0.66       1.0  T
   5    -29.9154325 -0.110209E-04  0.118E-02    0.65       2.2  T
   6    -29.9154334 -0.968399E-06  0.419E-03    0.65       6.2  T
   7    -29.9154335 -0.576323E-07  0.255E-03    0.65      10.1  T
   8    -29.9154335 -0.150145E-07  0.117E-03    0.65      22.1  T
   9    -29.9154335 -0.761879E-08  0.485E-04    0.65      53.3  T
  10    -29.9154335 -0.458606E-09  0.167E-04    0.65     154.5  T
     SCC iter.                  ...        0 min,  0.004 sec
     gradient                   ...        0 min,  0.002 sec
 * total energy  :   -29.5402686 Eh     change       -0.7809363E-02 Eh
   gradient norm :     0.0522956 Eh/α   predicted    -0.5895128E-02 ( -24.51%)
   displ. norm   :     0.1280777 α      lambda       -0.3275486E-02
   maximum displ.:     0.0734134 α      in ANC's #13, #12, #5, ...

........................................................................
.............................. CYCLE    4 ..............................
........................................................................

 iter      E             dE          RMSdq      gap      omega  full diag
   1    -29.9149035 -0.299149E+02  0.279E-01    0.66       0.0  T
   2    -29.9151386 -0.235105E-03  0.149E-01    0.77       1.0  T
   3    -29.9152448 -0.106124E-03  0.923E-02    0.72       1.0  T
   4    -29.9152633 -0.185159E-04  0.289E-02    0.73       1.0  T
   5    -29.9152703 -0.702970E-05  0.733E-03    0.73       3.5  T
   6    -29.9152707 -0.347718E-06  0.303E-03    0.73       8.5  T
   7    -29.9152707 -0.267779E-07  0.181E-03    0.73      14.3  T
   8    -29.9152707 -0.691076E-08  0.785E-04    0.73      32.9  T
   9    -29.9152707 -0.357421E-08  0.325E-04    0.73      79.4  T
     SCC iter.                  ...        0 min,  0.003 sec
     gradient                   ...        0 min,  0.002 sec
 * total energy  :   -29.5420629 Eh     change       -0.1794271E-02 Eh
   gradient norm :     0.0205160 Eh/α   predicted    -0.1664609E-02 (  -7.23%)
   displ. norm   :     0.0402771 α      lambda       -0.3159184E-03
   maximum displ.:     0.0195905 α      in ANC's #14, #10, #5, ...

........................................................................
.............................. CYCLE    5 ..............................
........................................................................

 iter      E             dE          RMSdq      gap      omega  full diag
   1    -29.9144116 -0.299144E+02  0.676E-02    0.72       0.0  T
   2    -29.9144339 -0.223203E-04  0.438E-02    0.76       1.0  T
   3    -29.9144445 -0.105845E-04  0.220E-02    0.75       1.2  T
   4    -29.9144449 -0.403633E-06  0.970E-03    0.75       2.7  T
   5    -29.9144455 -0.560546E-06  0.145E-03    0.75      17.8  T
   6    -29.9144455 -0.157892E-07  0.792E-04    0.75      32.6  T
   7    -29.9144455 -0.177957E-08  0.288E-04    0.75      89.7  T
     SCC iter.                  ...        0 min,  0.003 sec
     gradient                   ...        0 min,  0.002 sec
 * total energy  :   -29.5422844 Eh     change       -0.2215451E-03 Eh
   gradient norm :     0.0113936 Eh/α   predicted    -0.1582173E-03 ( -28.58%)
   displ. norm   :     0.0273945 α      lambda       -0.1404852E-03
   maximum displ.:     0.0156062 α      in ANC's #14, #5, #9, ...

........................................................................
.............................. CYCLE    6 ..............................
........................................................................

 iter      E             dE          RMSdq      gap      omega  full diag
   1    -29.9150963 -0.299151E+02  0.450E-02    0.74       0.0  T
   2    -29.9151104 -0.140749E-04  0.306E-02    0.78       1.0  T
   3    -29.9151154 -0.502420E-05  0.143E-02    0.77       1.8  T
   4    -29.9151154  0.244003E-07  0.766E-03    0.77       3.4  T
   5    -29.9151157 -0.338429E-06  0.119E-03    0.77      21.7  T
   6    -29.9151157 -0.724858E-08  0.708E-04    0.77      36.5  T
   7    -29.9151157 -0.145733E-08  0.192E-04    0.77     134.7  T
     SCC iter.                  ...        0 min,  0.003 sec
     gradient                   ...        0 min,  0.002 sec
 * total energy  :   -29.5423740 Eh     change       -0.8956197E-04 Eh
   gradient norm :     0.0061272 Eh/α   predicted    -0.7029481E-04 ( -21.51%)
   displ. norm   :     0.0236479 α      lambda       -0.7349094E-04
   maximum displ.:     0.0144181 α      in ANC's #9, #23, #14, ...

........................................................................
.............................. CYCLE    7 ..............................
........................................................................

 iter      E             dE          RMSdq      gap      omega  full diag
   1    -29.9158698 -0.299159E+02  0.339E-02    0.77       0.0  T
   2    -29.9158743 -0.449417E-05  0.202E-02    0.79       1.3  T
   3    -29.9158752 -0.877525E-06  0.112E-02    0.78       2.3  T
   4    -29.9158754 -0.223486E-06  0.459E-03    0.79       5.6  T
   5    -29.9158756 -0.182957E-06  0.118E-03    0.79      21.9  T
   6    -29.9158756 -0.183415E-08  0.690E-04    0.79      37.4  T
   7    -29.9158756 -0.219841E-08  0.187E-04    0.79     138.1  T
     SCC iter.                  ...        0 min,  0.003 sec
     gradient                   ...        0 min,  0.002 sec
 * total energy  :   -29.5424457 Eh     change       -0.7166867E-04 Eh
   gradient norm :     0.0101221 Eh/α   predicted    -0.3676503E-04 ( -48.70%)
   displ. norm   :     0.8748634 α      lambda       -0.2825092E-02
   maximum displ.:     0.5399583 α      in ANC's #9, #23, #14, ...

........................................................................
.............................. CYCLE    8 ..............................
........................................................................

 iter      E             dE          RMSdq      gap      omega  full diag
   1    -29.9156411 -0.299156E+02  0.121E+00    1.19       0.0  T
   2    -29.9212531 -0.561197E-02  0.582E-01    1.73       1.0  T
   3    -29.9215940 -0.340916E-03  0.364E-01    1.63       1.0  T
   4    -29.9220091 -0.415107E-03  0.161E-01    1.67       1.0  T
   5    -29.9221583 -0.149198E-03  0.336E-02    1.66       1.0  T
   6    -29.9221625 -0.415663E-05  0.207E-02    1.66       1.2  T
   7    -29.9221637 -0.120527E-05  0.643E-03    1.66       4.0  T
   8    -29.9221638 -0.157316E-06  0.381E-03    1.66       6.8  T
   9    -29.9221639 -0.330408E-07  0.123E-03    1.66      20.9  T
  10    -29.9221639 -0.552393E-08  0.485E-04    1.66      53.3  T
  11    -29.9221639 -0.182049E-08  0.217E-04    1.66     119.1  T
     SCC iter.                  ...        0 min,  0.004 sec
     gradient                   ...        0 min,  0.002 sec
 * total energy  :   -29.5238440 Eh     change        0.1860163E-01 Eh
   gradient norm :     0.3888646 Eh/α   predicted    -0.2493775E-02 (-113.41%)
   displ. norm   :     0.4825611 α      lambda       -0.4502461E-01
   maximum displ.:     0.2739871 α      in ANC's #9, #23, #29, ...

........................................................................
.............................. CYCLE    9 ..............................
........................................................................

 iter      E             dE          RMSdq      gap      omega  full diag
   1    -29.9198243 -0.299198E+02  0.834E-01    1.45       0.0  T
   2    -29.9232171 -0.339274E-02  0.404E-01    0.99       1.0  T
   3    -29.9236129 -0.395781E-03  0.253E-01    1.09       1.0  T
   4    -29.9237559 -0.143062E-03  0.119E-01    1.04       1.0  T
   5    -29.9238369 -0.809294E-04  0.212E-02    1.04       1.2  T
   6    -29.9238378 -0.977371E-06  0.135E-02    1.04       1.9  T
   7    -29.9238386 -0.739132E-06  0.353E-03    1.04       7.3  T
   8    -29.9238386 -0.345294E-07  0.189E-03    1.04      13.7  T
   9    -29.9238386 -0.874915E-08  0.798E-04    1.04      32.4  T
  10    -29.9238386 -0.415582E-08  0.342E-04    1.04      75.5  T
     SCC iter.                  ...        0 min,  0.004 sec
     gradient                   ...        0 min,  0.002 sec
 * total energy  :   -29.5436764 Eh     change       -0.1983233E-01 Eh
   gradient norm :     0.0976028 Eh/α   predicted    -0.2775462E-01 (  39.95%)
   displ. norm   :     0.0819006 α      lambda       -0.1386981E-02
   maximum displ.:     0.0344906 α      in ANC's #8, #5, #2, ...

........................................................................
.............................. CYCLE   10 ..............................
........................................................................

 iter      E             dE          RMSdq      gap      omega  full diag
   1    -29.9276035 -0.299276E+02  0.821E-02    1.08       0.0  T
   2    -29.9276150 -0.114931E-04  0.472E-02    1.08       1.0  T
   3    -29.9276145  0.462259E-06  0.258E-02    1.08       1.0  T
   4    -29.9276172 -0.266681E-05  0.766E-03    1.08       3.4  T
   5    -29.9276177 -0.519779E-06  0.285E-03    1.08       9.0  T
   6    -29.9276178 -0.251607E-07  0.134E-03    1.08      19.3  T
   7    -29.9276178 -0.663190E-08  0.454E-04    1.08      56.9  T
   8    -29.9276178 -0.378968E-09  0.274E-04    1.08      94.1  T
     SCC iter.                  ...        0 min,  0.003 sec
     gradient                   ...        0 min,  0.003 sec
 * total energy  :   -29.5447929 Eh     change       -0.1116542E-02 Eh
   gradient norm :     0.1074877 Eh/α   predicted    -0.6981424E-03 ( -37.47%)
   displ. norm   :     0.3259278 α      lambda       -0.6683786E-02
   maximum displ.:     0.1258701 α      in ANC's #5, #23, #14, ...

........................................................................
.............................. CYCLE   11 ..............................
........................................................................

 iter      E             dE          RMSdq      gap      omega  full diag
   1    -29.9375633 -0.299376E+02  0.449E-01    1.31       0.0  T
   2    -29.9377314 -0.168149E-03  0.244E-01    1.35       1.0  T
   3    -29.9377155  0.159234E-04  0.993E-02    1.33       1.0  T
   4    -29.9377642 -0.487165E-04  0.278E-02    1.33       1.0  T
   5    -29.9377685 -0.428791E-05  0.147E-02    1.34       1.8  T
   6    -29.9377692 -0.729879E-06  0.616E-03    1.34       4.2  T
   7    -29.9377694 -0.127897E-06  0.275E-03    1.34       9.4  T
   8    -29.9377694 -0.162363E-07  0.175E-03    1.34      14.8  T
   9    -29.9377694 -0.133674E-07  0.626E-04    1.34      41.3  T
  10    -29.9377694 -0.177556E-08  0.218E-04    1.34     118.4  T
     SCC iter.                  ...        0 min,  0.004 sec
     gradient                   ...        0 min,  0.002 sec
 * total energy  :   -29.5513730 Eh     change       -0.6580038E-02 Eh
   gradient norm :     0.1554981 Eh/α   predicted    -0.3696901E-02 ( -43.82%)
   displ. norm   :     0.8578168 α      lambda       -0.2302107E-01
   maximum displ.:     0.3816636 α      in ANC's #23, #29, #14, ...

........................................................................
.............................. CYCLE   12 ..............................
........................................................................

 iter      E             dE          RMSdq      gap      omega  full diag
   1    -29.8940624 -0.298941E+02  0.145E+00    1.71       0.0  T
   2    -29.8954369 -0.137443E-02  0.781E-01    1.74       1.0  T
   3    -29.8950921  0.344755E-03  0.389E-01    1.72       1.0  T
   4    -29.8959244 -0.832251E-03  0.655E-02    1.74       1.0  T
   5    -29.8959332 -0.884687E-05  0.435E-02    1.74       1.0  T
   6    -29.8959446 -0.113288E-04  0.204E-02    1.74       1.3  T
   7    -29.8959455 -0.927804E-06  0.926E-03    1.74       2.8  T
   8    -29.8959459 -0.435190E-06  0.502E-03    1.74       5.1  T
   9    -29.8959460 -0.628850E-07  0.125E-03    1.74      20.6  T
  10    -29.8959460 -0.841506E-08  0.506E-04    1.74      51.0  T
  11    -29.8959460 -0.285596E-09  0.166E-04    1.74     156.0  T
     SCC iter.                  ...        0 min,  0.004 sec
     gradient                   ...        0 min,  0.002 sec
 * total energy  :   -29.5421661 Eh     change        0.9206832E-02 Eh
   gradient norm :     0.1871795 Eh/α   predicted    -0.1998063E-01 (-317.02%)
   displ. norm   :     0.4401516 α      lambda       -0.4133291E-01
   maximum displ.:     0.2009144 α      in ANC's #23, #29, #1, ...

........................................................................
.............................. CYCLE   13 ..............................
........................................................................

 iter      E             dE          RMSdq      gap      omega  full diag
   1    -29.9383076 -0.299383E+02  0.859E-01    1.82       0.0  T
   2    -29.9388778 -0.570286E-03  0.454E-01    1.72       1.0  T
   3    -29.9387771  0.100719E-03  0.231E-01    1.76       1.0  T
   4    -29.9390008 -0.223705E-03  0.535E-02    1.71       1.0  T
   5    -29.9390245 -0.237045E-04  0.234E-02    1.71       1.1  T
   6    -29.9390265 -0.195028E-05  0.118E-02    1.71       2.2  T
   7    -29.9390269 -0.457034E-06  0.452E-03    1.71       5.7  T
   8    -29.9390270 -0.840020E-07  0.273E-03    1.71       9.5  T
   9    -29.9390270 -0.212225E-07  0.639E-04    1.71      40.4  T
  10    -29.9390270 -0.154257E-08  0.278E-04    1.71      92.8  T
     SCC iter.                  ...        0 min,  0.004 sec
     gradient                   ...        0 min,  0.002 sec
 * total energy  :   -29.5627499 Eh     change       -0.2058378E-01 Eh
   gradient norm :     0.1355341 Eh/α   predicted    -0.2467024E-01 (  19.85%)
   displ. norm   :     0.2596888 α      lambda       -0.4678157E-02
   maximum displ.:     0.1467280 α      in ANC's #5, #2, #3, ...

........................................................................
.............................. CYCLE   14 ..............................
........................................................................

 iter      E             dE          RMSdq      gap      omega  full diag
   1    -29.9413877 -0.299414E+02  0.298E-01    1.81       0.0  T
   2    -29.9414451 -0.574454E-04  0.167E-01    1.77       1.0  T
   3    -29.9414139  0.312037E-04  0.683E-02    1.78       1.0  T
   4    -29.9414578 -0.439013E-04  0.209E-02    1.77       1.2  T
   5    -29.9414612 -0.339723E-05  0.764E-03    1.77       3.4  T
   6    -29.9414613 -0.311425E-07  0.243E-03    1.77      10.6  T
   7    -29.9414613 -0.396417E-07  0.906E-04    1.77      28.5  T
   8    -29.9414613 -0.651384E-08  0.386E-04    1.77      66.9  T
     SCC iter.                  ...        0 min,  0.003 sec
     gradient                   ...        0 min,  0.003 sec
 * total energy  :   -29.5668101 Eh     change       -0.4060217E-02 Eh
   gradient norm :     0.1216871 Eh/α   predicted    -0.2496827E-02 ( -38.51%)
   displ. norm   :     0.4485262 α      lambda       -0.1554892E-01
   maximum displ.:     0.1596513 α      in ANC's #5, #15, #9, ...

........................................................................
.............................. CYCLE   15 ..............................
........................................................................

 iter      E             dE          RMSdq      gap      omega  full diag
   1    -29.9361285 -0.299361E+02  0.707E-01    1.74       0.0  T
   2    -29.9369258 -0.797294E-03  0.413E-01    1.69       1.0  T
   3    -29.9368599  0.658636E-04  0.185E-01    1.75       1.0  T
   4    -29.9370181 -0.158194E-03  0.720E-02    1.72       1.0  T
   5    -29.9370701 -0.519690E-04  0.177E-02    1.73       1.5  T
   6    -29.9370704 -0.280117E-06  0.494E-03    1.73       5.2  T
   7    -29.9370704 -0.659030E-07  0.148E-03    1.73      17.4  T
   8    -29.9370704 -0.167857E-07  0.740E-04    1.73      34.9  T
   9    -29.9370704 -0.573330E-09  0.280E-04    1.73      92.2  T
     SCC iter.                  ...        0 min,  0.003 sec
     gradient                   ...        0 min,  0.002 sec
 * total energy  :   -29.5748531 Eh     change       -0.8042961E-02 Eh
   gradient norm :     0.0385323 Eh/α   predicted    -0.9338492E-02 (  16.11%)
   displ. norm   :     0.2372490 α      lambda       -0.4018070E-02
   maximum displ.:     0.1301782 α      in ANC's #9, #7, #2, ...

........................................................................
.............................. CYCLE   16 ..............................
........................................................................

 iter      E             dE          RMSdq      gap      omega  full diag
   1    -29.9306889 -0.299307E+02  0.305E-01    1.69       0.0  T
   2    -29.9307174 -0.285116E-04  0.170E-01    1.71       1.0  T
   3    -29.9306998  0.175362E-04  0.590E-02    1.70       1.0  T
   4    -29.9307278 -0.279378E-04  0.138E-02    1.71       1.9  T
   5    -29.9307281 -0.300823E-06  0.763E-03    1.71       3.4  T
   6    -29.9307284 -0.331868E-06  0.268E-03    1.71       9.6  T
   7    -29.9307284 -0.353429E-07  0.125E-03    1.71      20.6  T
   8    -29.9307284 -0.288927E-08  0.738E-04    1.71      35.0  T
   9    -29.9307284 -0.179747E-08  0.251E-04    1.71     102.9  T
     SCC iter.                  ...        0 min,  0.003 sec
     gradient                   ...        0 min,  0.002 sec
 * total energy  :   -29.5763250 Eh     change       -0.1471885E-02 Eh
   gradient norm :     0.0519279 Eh/α   predicted    -0.2122117E-02 (  44.18%)
   displ. norm   :     0.4416011 α      lambda       -0.8357007E-02
   maximum displ.:     0.3171526 α      in ANC's #1, #9, #7, ...

........................................................................
.............................. CYCLE   17 ..............................
........................................................................

 iter      E             dE          RMSdq      gap      omega  full diag
   1    -29.9340536 -0.299341E+02  0.474E-01    1.73       0.0  T
   2    -29.9341316 -0.779888E-04  0.265E-01    1.72       1.0  T
   3    -29.9340830  0.486099E-04  0.920E-02    1.74       1.0  T
   4    -29.9341624 -0.794194E-04  0.217E-02    1.73       1.2  T
   5    -29.9341628 -0.431714E-06  0.107E-02    1.73       2.4  T
   6    -29.9341634 -0.612411E-06  0.309E-03    1.73       8.4  T
   7    -29.9341635 -0.892930E-07  0.149E-03    1.73      17.4  T
   8    -29.9341635 -0.724891E-08  0.863E-04    1.73      29.9  T
   9    -29.9341635 -0.196111E-08  0.302E-04    1.73      85.6  T
     SCC iter.                  ...        0 min,  0.003 sec
     gradient                   ...        0 min,  0.002 sec
 * total energy  :   -29.5800106 Eh     change       -0.3685681E-02 Eh
   gradient norm :     0.0382645 Eh/α   predicted    -0.4993366E-02 (  35.48%)
   displ. norm   :     0.1784423 α      lambda       -0.2814888E-02
   maximum displ.:     0.1141764 α      in ANC's #7, #9, #4, ...

........................................................................
.............................. CYCLE   18 ..............................
........................................................................

 iter      E             dE          RMSdq      gap      omega  full diag
   1    -29.9389684 -0.299390E+02  0.214E-01    1.74       0.0  T
   2    -29.9389877 -0.193680E-04  0.125E-01    1.75       1.0  T
   3    -29.9389712  0.165457E-04  0.538E-02    1.74       1.0  T
   4    -29.9389928 -0.215742E-04  0.102E-02    1.75       2.5  T
   5    -29.9389937 -0.910220E-06  0.436E-03    1.75       5.9  T
   6    -29.9389937 -0.685602E-07  0.181E-03    1.75      14.3  T
   7    -29.9389938 -0.140497E-07  0.634E-04    1.75      40.7  T
   8    -29.9389938 -0.989818E-09  0.357E-04    1.75      72.4  T
     SCC iter.                  ...        0 min,  0.003 sec
     gradient                   ...        0 min,  0.002 sec
 * total energy  :   -29.5820587 Eh     change       -0.2048082E-02 Eh
   gradient norm :     0.0254060 Eh/α   predicted    -0.1452258E-02 ( -29.09%)
   displ. norm   :     0.2091521 α      lambda       -0.2214145E-02
   maximum displ.:     0.1134222 α      in ANC's #9, #5, #7, ...

........................................................................
.............................. CYCLE   19 ..............................
........................................................................

 iter      E             dE          RMSdq      gap      omega  full diag
   1    -29.9405963 -0.299406E+02  0.168E-01    1.74       0.0  T
   2    -29.9406138 -0.175241E-04  0.989E-02    1.75       1.0  T
   3    -29.9406099  0.393466E-05  0.316E-02    1.74       1.0  T
   4    -29.9406171 -0.725930E-05  0.583E-03    1.75       4.4  T
   5    -29.9406172 -0.122787E-06  0.327E-03    1.75       7.9  T
   6    -29.9406172 -0.970285E-08  0.123E-03    1.75      21.0  T
   7    -29.9406173 -0.829304E-08  0.638E-04    1.75      40.5  T
   8    -29.9406173 -0.147679E-08  0.361E-04    1.75      71.6  T
     SCC iter.                  ...        0 min,  0.003 sec
     gradient                   ...        0 min,  0.002 sec
 * total energy  :   -29.5835213 Eh     change       -0.1462571E-02 Eh
   gradient norm :     0.0212520 Eh/α   predicted    -0.1155504E-02 ( -21.00%)
   displ. norm   :     0.1517583 α      lambda       -0.9421920E-03
   maximum displ.:     0.0795207 α      in ANC's #9, #7, #3, ...

........................................................................
.............................. CYCLE   20 ..............................
........................................................................

 iter      E             dE          RMSdq      gap      omega  full diag
   1    -29.9418429 -0.299418E+02  0.110E-01    1.75       0.0  T
   2    -29.9418457 -0.280674E-05  0.639E-02    1.74       1.0  T
   3    -29.9418410  0.470378E-05  0.227E-02    1.75       1.1  T
   4    -29.9418472 -0.621234E-05  0.480E-03    1.75       5.4  T
   5    -29.9418473 -0.458943E-07  0.268E-03    1.75       9.6  T
   6    -29.9418473 -0.143967E-07  0.110E-03    1.75      23.6  T
   7    -29.9418473 -0.678226E-08  0.470E-04    1.75      55.0  T
   8    -29.9418473 -0.424841E-09  0.238E-04    1.75     108.5  T
     SCC iter.                  ...        0 min,  0.003 sec
     gradient                   ...        0 min,  0.002 sec
 * total energy  :   -29.5841792 Eh     change       -0.6579181E-03 Eh
   gradient norm :     0.0157295 Eh/α   predicted    -0.4819475E-03 ( -26.75%)
   displ. norm   :     0.1409413 α      lambda       -0.5837573E-03
   maximum displ.:     0.0858273 α      in ANC's #9, #5, #4, ...
 * RMSD in coord.:     0.4360003 α      energy gain  -0.1223712E+00 Eh

generating ANC from exact Hessian ...
Using Lindh-Hessian (1995)
 Shifting diagonal of input Hessian by   5.529639278491186E-003
 Lowest  eigenvalues of input Hessian
    0.000000    0.000000    0.000000    0.000000    0.000000    0.000000
    0.010000    0.018412    0.021035    0.023827    0.026724    0.027899
    0.044475    0.045108    0.067226    0.075739    0.080952    0.093075
 Highest eigenvalues
    1.750500    1.878450    1.910180    2.085543    2.302280    2.404870
 

........................................................................
.............................. CYCLE   21 ..............................
........................................................................

 iter      E             dE          RMSdq      gap      omega  full diag
   1    -29.9417488 -0.299417E+02  0.911E-02    1.74       0.0  T
   2    -29.9417529 -0.410487E-05  0.533E-02    1.74       1.0  T
   3    -29.9417482  0.469270E-05  0.282E-02    1.74       1.0  T
   4    -29.9417550 -0.678908E-05  0.505E-03    1.74       5.1  T
   5    -29.9417551 -0.140144E-06  0.256E-03    1.74      10.1  T
   6    -29.9417551 -0.744160E-08  0.119E-03    1.74      21.8  T
   7    -29.9417551 -0.812954E-08  0.413E-04    1.74      62.5  T
   8    -29.9417551 -0.759496E-09  0.214E-04    1.74     120.9  T
     SCC iter.                  ...        0 min,  0.003 sec
     gradient                   ...        0 min,  0.002 sec
 * total energy  :   -29.5845452 Eh     change       -0.3660008E-03 Eh
   gradient norm :     0.0113360 Eh/α   predicted     0.0000000E+00 (-100.00%)
   displ. norm   :     0.0471886 α      lambda       -0.1636601E-03
   maximum displ.:     0.0298563 α      in ANC's #7, #2, #1, ...

........................................................................
.............................. CYCLE   22 ..............................
........................................................................

 iter      E             dE          RMSdq      gap      omega  full diag
   1    -29.9431363 -0.299431E+02  0.589E-02    1.75       0.0  T
   2    -29.9431394 -0.312518E-05  0.346E-02    1.75       1.0  T
   3    -29.9431392  0.187069E-06  0.950E-03    1.75       2.7  T
   4    -29.9431398 -0.570250E-06  0.298E-03    1.75       8.7  T
   5    -29.9431398 -0.515951E-07  0.140E-03    1.75      18.4  T
   6    -29.9431398 -0.519304E-08  0.478E-04    1.75      54.0  T
   7    -29.9431398 -0.124658E-08  0.175E-04    1.75     147.2  T
     SCC iter.                  ...        0 min,  0.003 sec
     gradient                   ...        0 min,  0.002 sec
 * total energy  :   -29.5846509 Eh     change       -0.1057048E-03 Eh
   gradient norm :     0.0046814 Eh/α   predicted    -0.8201294E-04 ( -22.41%)
   displ. norm   :     0.0338641 α      lambda       -0.5181224E-04
   maximum displ.:     0.0178085 α      in ANC's #2, #7, #3, ...

........................................................................
.............................. CYCLE   23 ..............................
........................................................................

 iter      E             dE          RMSdq      gap      omega  full diag
   1    -29.9438532 -0.299439E+02  0.415E-02    1.76       0.0  T
   2    -29.9438546 -0.138236E-05  0.243E-02    1.76       1.1  T
   3    -29.9438544  0.253502E-06  0.864E-03    1.76       3.0  T
   4    -29.9438548 -0.399944E-06  0.238E-03    1.76      10.8  T
   5    -29.9438548 -0.550781E-07  0.854E-04    1.76      30.2  T
   6    -29.9438548 -0.205306E-08  0.392E-04    1.76      65.9  T
     SCC iter.                  ...        0 min,  0.002 sec
     gradient                   ...        0 min,  0.002 sec
 * total energy  :   -29.5846734 Eh     change       -0.2249394E-04 Eh
   gradient norm :     0.0016766 Eh/α   predicted    -0.2593719E-04 (  15.31%)
   displ. norm   :     0.0198297 α      lambda       -0.1074807E-04
   maximum displ.:     0.0108610 α      in ANC's #3, #9, #1, ...

........................................................................
.............................. CYCLE   24 ..............................
........................................................................

 iter      E             dE          RMSdq      gap      omega  full diag
   1    -29.9437458 -0.299437E+02  0.172E-02    1.76       0.0  T
   2    -29.9437459 -0.603054E-07  0.104E-02    1.76       2.5  T
   3    -29.9437457  0.179616E-06  0.408E-03    1.76       6.3  T
   4    -29.9437459 -0.220285E-06  0.732E-04    1.76      35.3  T
   5    -29.9437459 -0.142222E-08  0.406E-04    1.76      63.6  T
     SCC iter.                  ...        0 min,  0.002 sec
     gradient                   ...        0 min,  0.002 sec
 * total energy  :   -29.5846736 Eh     change       -0.1952662E-06 Eh
   gradient norm :     0.0015773 Eh/α   predicted    -0.5373654E-05 (2651.96%)
   displ. norm   :     0.0107123 α      lambda       -0.7188590E-05
   maximum displ.:     0.0059687 α      in ANC's #9, #4, #1, ...

........................................................................
.............................. CYCLE   25 ..............................
........................................................................

 iter      E             dE          RMSdq      gap      omega  full diag
   1    -29.9436099 -0.299436E+02  0.111E-02    1.75       0.0  T
   2    -29.9436099 -0.412961E-07  0.661E-03    1.76       3.9  T
   3    -29.9436099  0.405742E-08  0.109E-03    1.76      23.6  T
   4    -29.9436099 -0.104711E-07  0.321E-04    1.76      80.3  T
   5    -29.9436099 -0.227931E-09  0.180E-04    1.76     143.7  T
     SCC iter.                  ...        0 min,  0.002 sec
     gradient                   ...        0 min,  0.002 sec
 * total energy  :   -29.5846786 Eh     change       -0.4959598E-05 Eh
   gradient norm :     0.0004306 Eh/α   predicted    -0.3594150E-05 ( -27.53%)
   displ. norm   :     0.0042715 α      lambda       -0.6884351E-06
   maximum displ.:     0.0022624 α      in ANC's #8, #11, #3, ...

   *** GEOMETRY OPTIMIZATION CONVERGED AFTER 25 ITERATIONS ***

------------------------------------------------------------------------
 total energy gain   :        -0.1228705 Eh      -77.1024 kcal/mol
 total RMSD          :         0.4415224 a0        0.2336 Å
 total power (kW/mol):       -12.9038633 (step)-1765.1746 (real)
------------------------------------------------------------------------

 ANCopt (total)                0 d,  0 h,  0 min,  0.183 sec
 optimizer setup                ...        0 min,  0.000 sec (  0.181%)
 model hessian                  ...        0 min,  0.004 sec (  2.362%)
 ANC generation                 ...        0 min,  0.001 sec (  0.345%)
 coordinate transformation      ...        0 min,  0.000 sec (  0.094%)
 single point calculation       ...        0 min,  0.172 sec ( 94.313%)
 optimization log               ...        0 min,  0.001 sec (  0.761%)
 hessian update                 ...        0 min,  0.000 sec (  0.094%)
 rational function              ...        0 min,  0.002 sec (  1.351%)

================
 final structure:
================
15
 xtb: 6.7.1 (edcfbbe)
C           -2.05035515835761       -2.82093121897456        1.55885528784601
C           -2.54218247186881       -2.16615521975655        0.37267710743243
C           -3.70976395141500       -2.52165158493828       -0.20454904537135
C           -4.50380594939286       -3.56545894503798        0.34172231074632
C           -4.04905940443219       -4.23001814799481        1.50953527691392
C           -2.88170943954670       -3.87711883617354        2.09038487294640
O           -6.37274651140061       -4.85185215303521        0.25228418209859
H           -2.53905704116789       -4.38757057154675        2.98146069891558
H           -1.93399489755082       -1.37468809325943       -0.03551093149135
H           -4.07931370992518       -2.03065999854154       -1.09301970455255
N           -5.67372171306523       -3.92089843112213       -0.23938634601914
H           -4.67020093759375       -5.01983998244732        1.90785252903456
O           -6.07699848394518       -3.32574109031912       -1.27774761013566
N           -0.91975542094881       -2.43662354205677        2.06655945069947
H           -0.67579290938937       -2.97207218479600        2.89986392093677
 
 Bond Distances (Angstroems)
 ---------------------------
C1-C2=1.4414         C1-C6=1.4454         C1-N14=1.2976        C2-C1=1.4414         C2-C3=1.3501         C2-H9=1.0784         
C3-C2=1.3501         C3-C4=1.4207         C3-H10=1.0803        C4-C3=1.4207         C4-C5=1.4185         C4-N11=1.3538        
C5-C4=1.4185         C5-C6=1.3508         C5-H12=1.0809        C6-C1=1.4454         C6-C5=1.3508         C6-H8=1.0826         
O7-N11=1.2637        H8-C6=1.0826         H9-C2=1.0784         H10-C3=1.0803        N11-C4=1.3538        N11-O7=1.2637        
N11-O13=1.2629       H12-C5=1.0809        O13-N11=1.2629       N14-C1=1.2976        N14-H15=1.0201       H15-N14=1.0201       
 C  H  Rav=1.0805 sigma=0.0015  Rmin=1.0784  Rmax=1.0826     4
 C  C  Rav=1.4045 sigma=0.0394  Rmin=1.3501  Rmax=1.4454     6
 N  H  Rav=1.0201 sigma=0.0000  Rmin=1.0201  Rmax=1.0201     1
 N  C  Rav=1.3257 sigma=0.0281  Rmin=1.2976  Rmax=1.3538     2
 O  N  Rav=1.2633 sigma=0.0004  Rmin=1.2629  Rmax=1.2637     2
 
 selected bond angles (degree)
 --------------------
C6-C1-C2=116.00                N14-C1-C2=119.00               N14-C1-C6=125.01               C3-C2-C1=121.82                
H9-C2-C1=116.90                H9-C2-C3=121.28                C4-C3-C2=120.82                H10-C3-C2=121.86               
H10-C3-C4=117.32               C5-C4-C3=118.79                N11-C4-C3=120.72               N11-C4-C5=120.49               
C6-C5-C4=120.57                H12-C5-C4=117.48               H12-C5-C6=121.94               C5-C6-C1=121.99                
H8-C6-C1=117.72                H8-C6-C5=120.28                
 
 selected dihedral angles (degree)
 ---------------------------------
C3-C2-C1-C6=359.97            C3-C2-C1-N14=179.88           H9-C2-C1-C6=179.91            H9-C2-C1-N14=359.82           
C4-C3-C2-C1=359.97            C4-C3-C2-H9=180.03            H10-C3-C2-C1=179.94           H10-C3-C2-H9=  0.00           
C5-C4-C3-C2=  0.08            C5-C4-C3-H10=180.10           N11-C4-C3-C2=180.05           N11-C4-C3-H10=  0.07          
C6-C5-C4-C3=359.94            C6-C5-C4-N11=179.97           H12-C5-C4-C3=179.92           H12-C5-C4-N11=359.95          
C5-C6-C1-C2=  0.05            C5-C6-C1-N14=180.15           H8-C6-C1-C2=180.03            H8-C6-C1-N14=  0.13           
C1-C6-C5-C4=  0.00            C1-C6-C5-H12=180.01           H8-C6-C5-C4=180.01            H8-C6-C5-H12=  0.03           
           -------------------------------------------------
          |                Final Singlepoint                |
           -------------------------------------------------

          ...................................................
          :                      SETUP                      :
          :.................................................:
          :  # basis functions                  45          :
          :  # atomic orbitals                  45          :
          :  # shells                           25          :
          :  # electrons                        52          :
          :  max. iterations                   250          :
          :  Hamiltonian                  GFN2-xTB          :
          :  restarted?                      false          :
          :  GBSA solvation                   true          :
          :  PC potential                    false          :
          :  electronic temp.          300.0000000     K    :
          :  accuracy                    1.0000000          :
          :  -> integral cutoff          0.2500000E+02      :
          :  -> integral neglect         0.1000000E-07      :
          :  -> SCF convergence          0.1000000E-05 Eh   :
          :  -> wf. convergence          0.1000000E-03 e    :
          :  Broyden damping             0.4000000          :
          :  net charge                         -1          :
          :  unpaired electrons                  0          :
          ...................................................

 iter      E             dE          RMSdq      gap      omega  full diag
   1    -29.9436099 -0.299436E+02  0.563E-05    1.76       0.0  T
   2    -29.9436099 -0.102709E-10  0.370E-05    1.76     698.2  T
   3    -29.9436099 -0.902389E-11  0.205E-05    1.76    1257.4  T

   *** convergence criteria satisfied after 3 iterations ***

         #    Occupation            Energy/Eh            Energy/eV
      -------------------------------------------------------------
         1        2.0000           -0.7165393             -19.4980
       ...           ...                  ...                  ...
        20        2.0000           -0.4294626             -11.6863
        21        2.0000           -0.4196381             -11.4189
        22        2.0000           -0.4096726             -11.1478
        23        2.0000           -0.4071203             -11.0783
        24        2.0000           -0.4065372             -11.0624
        25        2.0000           -0.3562745              -9.6947
        26        2.0000           -0.3465216              -9.4293 (HOMO)
        27                         -0.2820239              -7.6743 (LUMO)
        28                         -0.2123782              -5.7791
        29                         -0.1772027              -4.8219
        30                         -0.0763249              -2.0769
        31                          0.0421784               1.1477
       ...                                ...                  ...
        45                          0.7016284              19.0923
      -------------------------------------------------------------
                  HL-Gap            0.0644977 Eh            1.7551 eV
             Fermi-level           -0.3142727 Eh           -8.5518 eV

 SCC (total)                   0 d,  0 h,  0 min,  0.005 sec
 SCC setup                      ...        0 min,  0.000 sec (  4.072%)
 Dispersion                     ...        0 min,  0.000 sec (  0.999%)
 classical contributions        ...        0 min,  0.000 sec (  0.233%)
 integral evaluation            ...        0 min,  0.001 sec ( 19.859%)
 iterations                     ...        0 min,  0.001 sec ( 24.384%)
 molecular gradient             ...        0 min,  0.002 sec ( 48.515%)
 printout                       ...        0 min,  0.000 sec (  1.429%)

         :::::::::::::::::::::::::::::::::::::::::::::::::::::
         ::                     SUMMARY                     ::
         :::::::::::::::::::::::::::::::::::::::::::::::::::::
         :: total energy             -29.584678570757 Eh    ::
         :: total w/o Gsasa/hb       -29.582461622989 Eh    ::
         :: gradient norm              0.000430907584 Eh/a0 ::
         :: HOMO-LUMO gap              1.755072665587 eV    ::
         ::.................................................::
         :: SCC energy               -29.943599996137 Eh    ::
         :: -> isotropic ES            0.194168484256 Eh    ::
         :: -> anisotropic ES          0.005600905477 Eh    ::
         :: -> anisotropic XC          0.007953256252 Eh    ::
         :: -> dispersion             -0.013618699041 Eh    ::
         :: -> Gsolv                  -0.089604315476 Eh    ::
         ::    -> Gelec               -0.087387367708 Eh    ::
         ::    -> Gsasa                0.000195581651 Eh    ::
         ::    -> Ghb                 -0.003493289117 Eh    ::
         ::    -> Gshift               0.001080759698 Eh    ::
         :: repulsion energy           0.358921425380 Eh    ::
         :: add. restraining           0.000000000000 Eh    ::
         :: total charge              -1.000000000000 e     ::
         :::::::::::::::::::::::::::::::::::::::::::::::::::::

           ------------------------------------------------- 
          |                Numerical Hessian                |
           ------------------------------------------------- 
step length          :   0.00500
SCC accuracy         :   0.30000
Hessian scale factor :   1.00000
frozen atoms in %    :   0.00000    0
RMS gradient         :   0.00043
estimated CPU  time      0.03 min
estimated wall time      0.01 min

writing file <hessian>.

 projected vibrational frequencies (cm⁻¹)
eigval :       -0.00    -0.00    -0.00     0.00     0.00     0.00
eigval :       84.80   107.72   212.04   238.07   353.22   373.16
eigval :      401.60   426.72   542.84   599.99   608.95   636.43
eigval :      685.43   747.06   768.00   819.78   841.12   847.86
eigval :      919.58   922.68   964.33  1097.32  1123.15  1158.46
eigval :     1181.55  1274.68  1336.87  1367.91  1390.27  1404.37
eigval :     1469.18  1550.43  1561.82  1621.29  3044.11  3074.37
eigval :     3080.08  3102.08  3307.91
           -------------------------------------------------
          |                Property Printout                |
           -------------------------------------------------

    * Orbital Energies and Occupations

         #    Occupation            Energy/Eh            Energy/eV
      -------------------------------------------------------------
         1        2.0000           -0.7165393             -19.4980
       ...           ...                  ...                  ...
        14        2.0000           -0.4874082             -13.2631
        15        2.0000           -0.4784823             -13.0202
        16        2.0000           -0.4776256             -12.9969
        17        2.0000           -0.4758598             -12.9488
        18        2.0000           -0.4455995             -12.1254
        19        2.0000           -0.4302465             -11.7076
        20        2.0000           -0.4294626             -11.6863
        21        2.0000           -0.4196381             -11.4189
        22        2.0000           -0.4096726             -11.1478
        23        2.0000           -0.4071202             -11.0783
        24        2.0000           -0.4065372             -11.0624
        25        2.0000           -0.3562746              -9.6947
        26        2.0000           -0.3465216              -9.4293 (HOMO)
        27                         -0.2820238              -7.6743 (LUMO)
        28                         -0.2123782              -5.7791
        29                         -0.1772026              -4.8219
        30                         -0.0763249              -2.0769
        31                          0.0421784               1.1477
        32                          0.1079570               2.9377
        33                          0.1328494               3.6150
        34                          0.1597443               4.3469
        35                          0.1621149               4.4114
        36                          0.1971305               5.3642
        37                          0.2126008               5.7852
       ...                                ...                  ...
        45                          0.7016284              19.0923
      -------------------------------------------------------------
                  HL-Gap            0.0644978 Eh            1.7551 eV
             Fermi-level           -0.3142727 Eh           -8.5518 eV

     #   Z          covCN         q      C6AA      α(0)
     1   6 C        2.888     0.108    25.607     8.296
     2   6 C        2.920    -0.061    29.523     8.910
     3   6 C        2.910    -0.034    28.843     8.806
     4   6 C        2.911    -0.014    28.358     8.732
     5   6 C        2.909    -0.032    28.806     8.801
     6   6 C        2.913    -0.071    29.767     8.947
     7   8 O        0.929    -0.583    25.664     6.794
     8   1 H        0.925     0.025     2.657     2.549
     9   1 H        0.926     0.049     2.336     2.390
    10   1 H        0.926     0.041     2.432     2.439
    11   7 N        2.765     0.439    14.739     5.702
    12   1 H        0.926     0.036     2.496     2.471
    13   8 O        0.929    -0.581    25.603     6.786
    14   7 N        1.784    -0.448    32.723     8.472
    15   1 H        0.860     0.125     1.583     1.971

 Mol. C6AA /au·bohr⁶  :       3493.513963
 Mol. C8AA /au·bohr⁸  :      83028.125350
 Mol. α(0) /au        :         92.066142


Wiberg/Mayer (AO) data.
largest (>0.10) Wiberg bond orders for each atom

 ---------------------------------------------------------------------------
     #   Z sym  total        # sym  WBO       # sym  WBO       # sym  WBO
 ---------------------------------------------------------------------------
     1   6 C    3.979 --    14 N    1.623     2 C    1.144     6 C    1.135
     2   6 C    3.988 --     3 C    1.675     1 C    1.144     9 H    0.968
     3   6 C    3.990 --     2 C    1.675     4 C    1.207    10 H    0.965
     4   6 C    3.940 --     5 C    1.213    11 N    1.209     3 C    1.207
                            13 O    0.109     7 O    0.108
     5   6 C    3.990 --     6 C    1.667     4 C    1.213    12 H    0.965
     6   6 C    3.986 --     5 C    1.667     1 C    1.135     8 H    0.967
     7   8 O    1.652 --    11 N    1.253    13 O    0.195     4 C    0.108
     8   1 H    0.999 --     6 C    0.967
     9   1 H    0.997 --     2 C    0.968
    10   1 H    0.998 --     3 C    0.965
    11   7 N    3.813 --    13 O    1.255     7 O    1.253     4 C    1.209
    12   1 H    0.999 --     5 C    0.965
    13   8 O    1.655 --    11 N    1.255     7 O    0.195     4 C    0.109
    14   7 N    2.788 --     1 C    1.623    15 H    0.958
    15   1 H    0.984 --    14 N    0.958
 ---------------------------------------------------------------------------

Topologies differ in total number of bonds
Writing topology from bond orders to xtbtopo.mol

molecular dipole:
                 x           y           z       tot (Debye)
 q only:        9.531       6.971      -0.045
   full:        9.218       6.644       0.074      28.881
molecular quadrupole (traceless):
                xx          xy          yy          xz          yz          zz
 q only:      -82.693    -111.148       5.967     -12.666      -2.120      76.726
  q+dip:      -82.999    -107.085       7.558     -13.939      -5.708      75.441
   full:      -83.715    -108.530       8.089     -15.106      -4.458      75.627

           -------------------------------------------------
          |                Geometry Summary                 |
           -------------------------------------------------

      molecular mass/u    :      137.1163354
   center of mass at/Å    :       -3.9572726      -3.3998408       0.6125199
  moments of inertia/u·Å² :        0.1292823E+03   0.5846430E+03   0.7139248E+03
rotational constants/cm⁻¹ :        0.1303940E+00   0.2883406E-01   0.2361262E-01

 * 10 selected distances

     #   Z          #   Z                                           value/Å
     2   6 C        3   6 C                                       1.3501165
     3   6 C        4   6 C                                       1.4207214 (max)
     4   6 C        5   6 C                                       1.4185277
     5   6 C        6   6 C                                       1.3507888
     6   6 C        8   1 H                                       1.0825839
     2   6 C        9   1 H                                       1.0783923 (min)
     3   6 C       10   1 H                                       1.0802870
     4   6 C       11   7 N                                       1.3537827
     5   6 C       12   1 H                                       1.0808757
     1   6 C       14   7 N                                       1.2975793

 * 3 distinct bonds (by element types)

   Z      Z             #   av. dist./Å        max./Å        min./Å
   1 H    6 C           4     1.0805347     1.0825839     1.0783923
   6 C    6 C           4     1.3850386     1.4207214     1.3501165
   6 C    7 N           2     1.3256810     1.3537827     1.2975793

           -------------------------------------------------
          |               Frequency Printout                |
           -------------------------------------------------
 projected vibrational frequencies (cm⁻¹)
eigval :       -0.00    -0.00    -0.00     0.00     0.00     0.00
eigval :       84.80   107.72   212.04   238.07   353.22   373.16
eigval :      401.60   426.72   542.84   599.99   608.95   636.43
eigval :      685.43   747.06   768.00   819.78   841.12   847.86
eigval :      919.58   922.68   964.33  1097.32  1123.15  1158.46
eigval :     1181.55  1274.68  1336.87  1367.91  1390.27  1404.37
eigval :     1469.18  1550.43  1561.82  1621.29  3044.11  3074.37
eigval :     3080.08  3102.08  3307.91
 reduced masses (amu)
   1: 12.97   2: 13.64   3: 12.34   4: 12.85   5: 13.24   6: 12.59   7: 12.45   8: 14.01
   9: 13.63  10: 11.40  11: 13.79  12:  9.38  13: 10.98  14:  8.83  15: 13.24  16: 11.53
  17: 13.29  18: 12.59  19: 11.90  20:  2.74  21: 13.51  22:  5.84  23:  3.55  24: 11.72
  25:  2.79  26:  3.31  27:  8.79  28:  4.94  29: 10.44  30:  3.03  31:  3.16  32:  4.00
  33:  8.73  34:  8.98  35: 14.09  36: 11.32  37: 11.38  38: 11.58  39: 12.05  40: 11.61
  41:  1.79  42:  1.85  43:  1.79  44:  1.86  45:  1.85
 IR intensities (km·mol⁻¹)
   1:  5.31   2:  6.19   3:  3.37   4:  5.19   5:  3.96   6:  0.89   7: 16.66   8:  0.25
   9: 14.00  10:  1.80  11:  0.66  12:  2.35  13: 18.69  14:  0.01  15:  4.46  16:  8.63
  17: 81.50  18: 38.47  19: 15.71  20: 55.58  21: 41.61  22: 47.21  23:  4.68  24: 89.35
  25:  0.71  26:  0.13  27:  2.81  28: 24.73  29:543.00  30:311.64  31:383.43  32:166.17
  33:******  34: 88.07  35:512.06  36:******  37: 87.40  38: 13.16  39:114.24  40:125.97
  41:105.67  42:107.11  43: 19.27  44: 73.58  45:148.74
 Raman intensities (Ä⁴*amu⁻¹)
   1:  0.00   2:  0.00   3:  0.00   4:  0.00   5:  0.00   6:  0.00   7:  0.00   8:  0.00
   9:  0.00  10:  0.00  11:  0.00  12:  0.00  13:  0.00  14:  0.00  15:  0.00  16:  0.00
  17:  0.00  18:  0.00  19:  0.00  20:  0.00  21:  0.00  22:  0.00  23:  0.00  24:  0.00
  25:  0.00  26:  0.00  27:  0.00  28:  0.00  29:  0.00  30:  0.00  31:  0.00  32:  0.00
  33:  0.00  34:  0.00  35:  0.00  36:  0.00  37:  0.00  38:  0.00  39:  0.00  40:  0.00
  41:  0.00  42:  0.00  43:  0.00  44:  0.00  45:  0.00
 output can be read by thermo (or use thermo option).
 writing <g98.out> molden fake output.
 recommended (thermochemical) frequency scaling factor: 1.0
           -------------------------------------------------
          |             Thermodynamic Functions             |
           -------------------------------------------------

Molecule has the following symmetry elements: (sigma) 
It seems to be the Cs point group
cs  symmetry found (for desy threshold:  0.10E+00) used in thermo

          ...................................................
          :                      SETUP                      :
          :.................................................:
          :  # frequencies                          39      :
          :  # imaginary freq.                       0      :
          :  linear?                             false      :
          :  only rotor calc.                    false      :
          :  symmetry                               cs      :
          :  rotational number                       1      :
          :  scaling factor                  1.0000000      :
          :  rotor cutoff                   50.0000000 cm⁻¹ :
          :  imag. cutoff                  -20.0000000 cm⁻¹ :
          :.................................................:

    mode    ω/cm⁻¹     T·S(HO)/kcal·mol⁻¹    T·S(FR)/kcal·mol⁻¹   T·S(vib)
   ------------------------------------------------------------------------
       1     84.80    -1.12598 ( 89.22%)    -0.89992 ( 10.78%)    -1.10160
       2    107.72    -0.98678 ( 95.56%)    -0.82910 (  4.44%)    -0.97978
       3    212.04    -0.60407 ( 99.69%)    -0.62851 (  0.31%)    -0.60415
       4    238.07    -0.54182 ( 99.81%)    -0.59421 (  0.19%)    -0.54192
   ------------------------------------------------------------------------

   temp. (K)  partition function   enthalpy   heat capacity  entropy
                                   cal/mol     cal/K/mol   cal/K/mol   J/K/mol
 298.15  VIB   51.0                 3303.066     24.806     18.787
         ROT  0.561E+06              888.752      2.981     29.288
         INT  0.286E+08             4191.818     27.787     48.075
         TR   0.155E+28             1481.254      4.968     40.640
         TOT                        5673.0722    32.7548    88.7151   371.1841

       T/K    H(0)-H(T)+PV         H(T)/Eh          T*S/Eh         G(T)/Eh
   ------------------------------------------------------------------------
    298.15    0.904062E-02    0.112121E+00    0.421514E-01    0.699700E-01
   ------------------------------------------------------------------------

         :::::::::::::::::::::::::::::::::::::::::::::::::::::
         ::                  THERMODYNAMIC                  ::
         :::::::::::::::::::::::::::::::::::::::::::::::::::::
         :: total free energy         -29.514708587480 Eh   ::
         ::.................................................::
         :: total energy              -29.584678570566 Eh   ::
         :: zero point energy           0.103080783757 Eh   ::
         :: G(RRHO) w/o ZPVE           -0.033110800671 Eh   ::
         :: G(RRHO) contrib.            0.069969983086 Eh   ::
         :::::::::::::::::::::::::::::::::::::::::::::::::::::

optimized geometry written to: xtbopt.xyz


           -------------------------------------------------
          | TOTAL ENERGY              -29.584678570566 Eh   |
          | TOTAL ENTHALPY            -29.472557170781 Eh   |
          | TOTAL FREE ENERGY         -29.514708587480 Eh   |
          | GRADIENT NORM               0.000430884361 Eh/α |
          | HOMO-LUMO GAP               1.755074130276 eV   |
           -------------------------------------------------

------------------------------------------------------------------------
 * finished run on 2025/10/18 at 04:56:54.955     
------------------------------------------------------------------------
 total:
 * wall-time:     0 d,  0 h,  0 min,  0.976 sec
 *  cpu-time:     0 d,  0 h,  0 min,  1.606 sec
 * ratio c/w:     1.646 speedup
 SCF:
 * wall-time:     0 d,  0 h,  0 min,  0.033 sec
 *  cpu-time:     0 d,  0 h,  0 min,  0.046 sec
 * ratio c/w:     1.385 speedup
 ANC optimizer:
 * wall-time:     0 d,  0 h,  0 min,  0.338 sec
 *  cpu-time:     0 d,  0 h,  0 min,  0.527 sec
 * ratio c/w:     1.558 speedup
 analytical hessian:
 * wall-time:     0 d,  0 h,  0 min,  0.462 sec
 *  cpu-time:     0 d,  0 h,  0 min,  0.886 sec
 * ratio c/w:     1.915 speedup

