15
 energy: -29.584678570757 gnorm: 0.000430907584 xtb: 6.7.1 (edcfbbe)
C           -2.05036448721543       -2.82091776260984        1.55886736837758
C           -2.54219251287556       -2.16614125844982        0.37268976197453
C           -3.70977786867574       -2.52163251762294       -0.20453169473844
C           -4.50382342514233       -3.56543476669917        0.34174425489205
C           -4.04907628336353       -4.22999431249643        1.50955679356048
C           -2.88172244317394       -3.87710009914748        2.09040169884296
O           -6.37277103484310       -4.85181834502426        0.25231489525797
H           -2.53906960706829       -4.38755207343227        2.98147721962920
H           -1.93400221931104       -1.37467802884251       -0.03550178129200
H           -4.07932815771144       -2.03064054693326       -1.09300192088284
N           -5.67374307832335       -3.92086914132860       -0.23935969773364
H           -4.67022056161229       -5.01981219945998        1.90787759237021
O           -6.07702035753646       -3.32571150124574       -1.27772059288628
N           -0.91976096537458       -2.43661511940265        2.06656691394616
H           -0.67579834863030       -2.97206358514300        2.89987146712148
