15
 energy: -29.461808021740 gnorm: 0.533231620465 xtb: 6.7.1 (edcfbbe)
C           -2.09689400000000       -2.89183400000000        1.60173700000000
C           -2.48236100000000       -2.22819400000000        0.49645300000000
C           -3.73725800000000       -2.57729100000000       -0.16288000000000
C           -4.50022500000000       -3.56712000000000        0.34686300000000
C           -4.08140900000000       -4.28609800000000        1.54533900000000
C           -2.92169200000000       -3.95653000000000        2.14652500000000
O           -6.43908900000000       -4.80998000000000        0.15201700000000
H           -2.58567600000000       -4.47463300000000        3.03928000000000
H           -1.88561600000000       -1.42875200000000        0.06818200000000
H           -4.00423900000000       -2.01261800000000       -1.05141000000000
N           -5.75495800000000       -3.89787500000000       -0.33380700000000
H           -4.70831500000000       -5.07909200000000        1.94038400000000
O           -6.06390000000000       -3.25586200000000       -1.34861900000000
N           -1.14193100000000       -2.63379000000000        2.11240200000000
H           -0.27489500000000       -2.40161100000000        2.57851600000000
15
 energy: -29.532459265810 gnorm: 0.113447219113 xtb: 6.7.1 (edcfbbe)
C           -2.11133786634051       -2.90170674871055        1.60113720172155
C           -2.53154654074336       -2.22375751952801        0.44923767051597
C           -3.72774491543163       -2.56343797921094       -0.17098325279052
C           -4.51564635240602       -3.57677586820360        0.34506334488913
C           -4.10724672471363       -4.29335785240806        1.53175907049997
C           -2.95491070129491       -3.97173607535470        2.13602331435483
O           -6.44001278824615       -4.81577943721527        0.15801789554114
H           -2.60316223098866       -4.47809284539113        3.02824751668866
H           -1.91126518174250       -1.43176668473978        0.04946621373858
H           -4.01160593583699       -2.01372622434526       -1.05629924719890
N           -5.73136929801805       -3.89794440448057       -0.31348072665830
H           -4.73149946759713       -5.08266064714883        1.92473159711696
O           -6.05423175256529       -3.25663858115408       -1.33944057628063
N           -1.03697233141882       -2.60777062476695        2.17183284071992
H           -0.20990591265636       -2.38612850734226        2.61566913714164
15
 energy: -29.540268629271 gnorm: 0.052295596262 xtb: 6.7.1 (edcfbbe)
C           -2.10223094496804       -2.90394466434999        1.61141827618215
C           -2.54873918378222       -2.22476302250918        0.43585211448108
C           -3.71548422491376       -2.55472507198701       -0.17073605839645
C           -4.52396469087732       -3.58036217811087        0.34215818205959
C           -4.11957241108163       -4.28700894673480        1.51390794948090
C           -2.96307675085805       -3.96900884390678        2.12599805711234
O           -6.42719353478806       -4.82092776814288        0.17530970894374
H           -2.62125326511549       -4.47948098399521        3.01461238074844
H           -1.92867233889358       -1.43528006706515        0.03917269799591
H           -4.02477412171620       -2.02141201576413       -1.05851354057950
N           -5.70366551920200       -3.89946735927000       -0.28834460297200
H           -4.75828889294709       -5.07321654612762        1.89073799839559
O           -6.04322676480417       -3.26403529441384       -1.32172104929003
N           -1.01570406389616       -2.60493751534921        2.18658341312323
H           -0.18261129215622       -2.38270972227332        2.63454647271501
15
 energy: -29.542062900662 gnorm: 0.020516026489 xtb: 6.7.1 (edcfbbe)
C           -2.08641843428972       -2.90363339969579        1.62429595486373
C           -2.55148576156809       -2.22190857775023        0.43039964816153
C           -3.71001839993514       -2.54752966547939       -0.17456810876546
C           -4.53455222363141       -3.58352941435467        0.33671884520565
C           -4.12113915875924       -4.27879020701223        1.50294176537618
C           -2.96298366915760       -3.96354258229115        2.11966921290340
O           -6.42527272209550       -4.82619077354343        0.18370520470382
H           -2.63739512965457       -4.48423845947908        3.00678986182371
H           -1.92972894684331       -1.43248360205113        0.03598402531099
H           -4.04649601509544       -2.03131732585022       -1.06519899328464
N           -5.69055392809094       -3.90144051589046       -0.27483666593381
H           -4.77055528224303       -5.06299300585435        1.86842243691597
O           -6.05079159476433       -3.27511557392012       -1.31626559074218
N           -0.99854226029577       -2.60408093221973        2.19969083265068
H           -0.16252447357591       -2.38448596460800        2.65323357081043
15
 energy: -29.542284445796 gnorm: 0.011393661191 xtb: 6.7.1 (edcfbbe)
C           -2.07991554789331       -2.90261404755625        1.62860700759662
C           -2.54898203787272       -2.21958024347886        0.43009557467625
C           -3.70795371297672       -2.54456114650847       -0.17608255316534
C           -4.53566093951309       -3.58287031252058        0.33486814502777
C           -4.11739597677101       -4.27610297721944        1.50313524083308
C           -2.96028064946351       -3.96113737730005        2.11928192116283
O           -6.42930746472901       -4.82827720036734        0.18318786525066
H           -2.64277760928495       -4.48779973911531        3.00659768916804
H           -1.92731268136418       -1.42970920028585        0.03522111706510
H           -4.05119027627002       -2.03332106970610       -1.06656791245271
N           -5.69255828718039       -3.90278188430141       -0.27564508031768
H           -4.76841881742221       -5.06020362962712        1.86706951810320
O           -6.06098103273162       -3.28048138903796       -1.31916303629671
N           -0.99559332764445       -2.60410744162635        2.20160249774471
H           -0.16012963888281       -2.38773234134890        2.65877400560417
15
 energy: -29.542374007763 gnorm: 0.006127606262 xtb: 6.7.1 (edcfbbe)
C           -2.07571871140410       -2.90155663627368        1.63065602261717
C           -2.54773064785440       -2.21768309558714        0.42908937868795
C           -3.70660371325608       -2.54264768943233       -0.17700448885388
C           -4.53537888931361       -3.58184182312882        0.33415456118213
C           -4.11457146044532       -4.27475881978428        1.50405811383627
C           -2.95833214910264       -3.95927056840394        2.11876324697003
O           -6.43033150328599       -4.82937424003220        0.18304935241737
H           -2.64739973810772       -4.49082210509045        3.00651203963192
H           -1.92621587925127       -1.42733147840325        0.03386406795433
H           -4.05380696366471       -2.03446116608795       -1.06690015588578
N           -5.69334254471996       -3.90249042858900       -0.27564116220174
H           -4.76565488117277       -5.05887613006924        1.86827982863373
O           -6.06617127011386       -3.28399947027616       -1.32084576995766
N           -0.99518627170943       -2.60344490435984        2.19979903321854
H           -0.16201337659814       -2.39272144448170        2.66314793174962
15
 energy: -29.542445676431 gnorm: 0.010122456502 xtb: 6.7.1 (edcfbbe)
C           -2.07351534668618       -2.90024227543340        1.63083334247320
C           -2.54756926472657       -2.21614522758195        0.42781647178567
C           -3.70653515391503       -2.54174838463396       -0.17749592501903
C           -4.53486302266506       -3.58157144536833        0.33376247571942
C           -4.11334536764230       -4.27403549077865        1.50474310941212
C           -2.95724209962289       -3.95765578975807        2.11816986896259
O           -6.43044462522599       -4.82921009995698        0.18412350050529
H           -2.64943059881989       -4.49182578965230        3.00602294817024
H           -1.92584657021672       -1.42575041323604        0.03253678023412
H           -4.05556553575830       -2.03516696922414       -1.06721122942495
N           -5.69221976076846       -3.90354062759555       -0.27649123264743
H           -4.76356458527059       -5.05844015999991        1.86973351507689
O           -6.06832630348090       -3.28510275658007       -1.32061098865275
N           -0.99478283110106       -2.60166377877811        2.19585077594325
H           -0.16520693410005       -2.39918079142254        2.66919858746137
15
 energy: -29.523844046588 gnorm: 0.388923913878 xtb: 6.7.1 (edcfbbe)
C           -1.99441613488298       -2.85047624159760        1.63551900487315
C           -2.54366199796814       -2.16217973497623        0.38014109589509
C           -3.70536393011875       -2.51214032109387       -0.19512855666941
C           -4.51846621958408       -3.57124086067693        0.32295769888150
C           -4.06860213193543       -4.25006660697122        1.52996156596402
C           -2.91621536189274       -3.89947609013911        2.09675663223066
O           -6.43219100923543       -4.82770357309801        0.21604704608176
H           -2.71786577408830       -4.52470514115416        2.98928509475063
H           -1.91478591142918       -1.37020454650307       -0.01593803354346
H           -4.11921904173356       -2.06116101918252       -1.07740097068932
N           -5.65885479947520       -3.93096554443391       -0.29921871108839
H           -4.68854720556776       -5.04368024505988        1.92377125696276
O           -6.13895036723258       -3.32655296690595       -1.31561003643465
N           -0.97810089691820       -2.52669401458114        2.04345200572046
H           -0.28321721793768       -2.64403309362639        2.89638690706522
15
 energy: -29.543676371745 gnorm: 0.097603568328 xtb: 6.7.1 (edcfbbe)
C           -2.04741751989710       -2.87824392721043        1.63183891630763
C           -2.54469927334306       -2.18562497984689        0.40660481072970
C           -3.70664727909018       -2.52204230716821       -0.18710154201292
C           -4.52541078393976       -3.57436639606614        0.32475598125927
C           -4.09386496954943       -4.25530108084916        1.51327953516483
C           -2.94316760532034       -3.92667727545586        2.11036939570935
O           -6.42493047731365       -4.82884344355041        0.20734502174567
H           -2.68400223523998       -4.50442035164935        2.99528585108724
H           -1.91725006950442       -1.39449896628590        0.00912471238802
H           -4.09044759598562       -2.04369522070248       -1.07503806767523
N           -5.67108214111368       -3.92588997386819       -0.29227037806725
H           -4.71982681722479       -5.04731422028265        1.89725711109102
O           -6.10614513207160       -3.30944052697125       -1.31783140775159
N           -0.97819375180454       -2.58729878580180        2.14262210204257
H           -0.22537234860186       -2.51762254429126        2.76473995798167
15
 energy: -29.544792914023 gnorm: 0.107488647530 xtb: 6.7.1 (edcfbbe)
C           -2.04624925194757       -2.87752934077302        1.63276414945850
C           -2.54695533438355       -2.18895234576780        0.40812854742737
C           -3.70921875049058       -2.52369583826751       -0.18196873450432
C           -4.52915434029609       -3.57137682918104        0.33237966199587
C           -4.09577486606809       -4.25815771827445        1.51825397982953
C           -2.94288538272921       -3.92427576905932        2.11596751349162
O           -6.42035906533414       -4.83724744743560        0.19090820411335
H           -2.67945417023360       -4.49847732397541        3.00180301506402
H           -1.92121117818329       -1.39849889329978        0.01176283649504
H           -4.08802147584999       -2.04152941860035       -1.06716180435169
N           -5.67916753377301       -3.91185716455931       -0.28465501641177
H           -4.72416503344162       -5.05153232504109        1.89774926105876
O           -6.09158699550224       -3.31185744937065       -1.32531971895971
N           -0.97479452307303       -2.58317701235616        2.12562640908229
H           -0.22946009869397       -2.52311512403851        2.75474369621114
15
 energy: -29.551372951827 gnorm: 0.155511321079 xtb: 6.7.1 (edcfbbe)
C           -2.04408100849139       -2.86646127654426        1.63990910080279
C           -2.56285423913437       -2.19763231098923        0.41828943195188
C           -3.72303384783112       -2.52805907080410       -0.15978669788323
C           -4.53716119981127       -3.56923904601588        0.35598111374602
C           -4.10454760016492       -4.26594558488525        1.54184425329268
C           -2.94578033530517       -3.90410066114097        2.14630190630956
O           -6.41510107562210       -4.85294039363324        0.14387096740962
H           -2.65666790174245       -4.47069767032437        3.02968813081514
H           -1.93629058880762       -1.41686279799219        0.02653110518569
H           -4.07630581624151       -2.03362978981977       -1.03828097595736
N           -5.68123681367525       -3.89681479972905       -0.28737142227827
H           -4.73932126943709       -5.07223639182630        1.89294890936774
O           -6.04660340535371       -3.30328632155971       -1.33690576755393
N           -0.94311441702118       -2.55826998097960        2.01960172135877
H           -0.26635848136082       -2.56510390375612        2.73836022343287
15
 energy: -29.542166119940 gnorm: 0.187382373161 xtb: 6.7.1 (edcfbbe)
C           -2.04297978776217       -2.82410672896630        1.67290799308367
C           -2.59754355853253       -2.22418257649868        0.44636313263143
C           -3.74156121185650       -2.55153058397020       -0.12546817644970
C           -4.54592249313409       -3.56890451605786        0.39815699564912
C           -4.11666509503169       -4.29319655092721        1.57746091575741
C           -2.94900429220170       -3.85534092776305        2.21695969354799
O           -6.40222505778057       -4.87939092397662        0.07209311129169
H           -2.59452051758380       -4.41313013558559        3.08684960151534
H           -1.96706690646404       -1.46356305914016        0.07989378328105
H           -4.02597276693004       -2.01681082769570       -0.98539264413323
N           -5.69504670171139       -3.85644575764686       -0.27787108992483
H           -4.78214581970945       -5.11878953639048        1.85675664851348
O           -5.95841097041292       -3.28984656334595       -1.34780037762896
N           -0.85241871325926       -2.45623499335397        1.72010168034889
H           -0.40697410762980       -2.68980631868145        2.73997073251658
15
 energy: -29.562749900668 gnorm: 0.135580057858 xtb: 6.7.1 (edcfbbe)
C           -2.06387779319516       -2.84495323845031        1.65355718047734
C           -2.58820213151043       -2.21203826929856        0.44927792251069
C           -3.73983567898126       -2.54340816310697       -0.13690399243354
C           -4.54412218105870       -3.57334058927876        0.38323782720491
C           -4.11682042178833       -4.27426319816936        1.55714123148680
C           -2.95439307680005       -3.88020638366495        2.18985726864274
O           -6.40270963477289       -4.86951243322565        0.10378840256975
H           -2.60937199835104       -4.41362662654863        3.07086685512451
H           -1.96183884290558       -1.43898398712168        0.06993911188664
H           -4.04329395939695       -2.01538594955192       -1.01308273501260
N           -5.68302458601889       -3.89030422281377       -0.28709079590698
H           -4.76551985454070       -5.09337817789588        1.86474785586140
O           -5.97592824549668       -3.29410236199340       -1.34438011396607
N           -0.91285477364033       -2.48811594415365        1.88645919380307
H           -0.31666482154296       -2.66966045472660        2.68356678775122
15
 energy: -29.566810117955 gnorm: 0.121726819172 xtb: 6.7.1 (edcfbbe)
C           -2.06641159742718       -2.84824453981718        1.65175746545063
C           -2.58446037582857       -2.20804762195485        0.45243519328472
C           -3.72142889897874       -2.55033969571337       -0.16297575246946
C           -4.53316828928232       -3.57893759977593        0.35932919863023
C           -4.10708264123646       -4.27485450376205        1.52583206633502
C           -2.94105147516495       -3.90401114937744        2.16178964965883
O           -6.40353284917104       -4.85482248354832        0.16054205713775
H           -2.60529222907906       -4.42575527107321        3.04870452194623
H           -1.96582980025383       -1.41886994022039        0.08599286159592
H           -4.02280444624320       -2.02280636467800       -1.04487314738308
N           -5.68990291333190       -3.89655425005016       -0.27049220015535
H           -4.77443955624162       -5.06381540899147        1.85816538663777
O           -6.00407537577361       -3.31211499649345       -1.33066019158477
N           -0.93367256416554       -2.44448072770592        1.92848479380460
H           -0.32530498782195       -2.69762544683835        2.70695009711086
15
 energy: -29.574853079300 gnorm: 0.038547657035 xtb: 6.7.1 (edcfbbe)
C           -2.04879656956793       -2.91312763647260        1.59106005594170
C           -2.58926825950831       -2.19816925019760        0.45297782613299
C           -3.71475902362996       -2.53342038919831       -0.18345260139955
C           -4.52857394456250       -3.57938858530679        0.33926963710294
C           -4.09575238085771       -4.24041004188884        1.50473879486992
C           -2.90023371790790       -3.96583794636732        2.10486271584030
O           -6.40986297328260       -4.83550956258824        0.22099245920064
H           -2.58985615740578       -4.44268671822779        3.01870227124427
H           -1.97794506154486       -1.38560182847943        0.09001405073733
H           -4.01202850892350       -2.03364697094478       -1.09483539337441
N           -5.69331503702247       -3.91425937950924       -0.25409271051625
H           -4.76226050923113       -5.00079747360735        1.88810379317364
O           -6.02652446609228       -3.33527712108499       -1.32587114061339
N           -0.95104501349155       -2.37796592694679        2.00887508282057
H           -0.37823637697151       -2.74518116917998        2.76963715883923
15
 energy: -29.576324964615 gnorm: 0.052022139205 xtb: 6.7.1 (edcfbbe)
C           -2.06626217588092       -2.87895954814959        1.60113053104318
C           -2.58085794828581       -2.19478631703582        0.43650486745535
C           -3.71259225721324       -2.54146414489385       -0.19440767344065
C           -4.51891010269410       -3.58713325711322        0.33480248957048
C           -4.08118682927794       -4.24588547909630        1.50827856960969
C           -2.89359257925840       -3.95330936338197        2.10491281894992
O           -6.41662640264937       -4.82934736125140        0.21953894768147
H           -2.57534281525477       -4.44781208342921        3.00836492955839
H           -1.96261884666951       -1.39360747304476        0.06605114261342
H           -4.03324546782937       -2.02762523194049       -1.08594713608879
N           -5.68991355180784       -3.91725187184430       -0.26069536960757
H           -4.74190010636686       -5.00517658350860        1.90841068673882
O           -6.02941074917653       -3.32995882251614       -1.32417282024650
N           -0.97626759761188       -2.32687561784210        2.03191738445254
H           -0.39973057002343       -2.82208684495234        2.77629263171019
15
 energy: -29.580010645609 gnorm: 0.038300940413 xtb: 6.7.1 (edcfbbe)
C           -2.08019501148941       -2.84833843965154        1.59012099169790
C           -2.54635487513316       -2.19946004953881        0.39320313234418
C           -3.71393758354591       -2.54651776473545       -0.20642576476655
C           -4.50939162042108       -3.58745908460602        0.33552757921082
C           -4.06252717722178       -4.25362705709333        1.51402793721804
C           -2.87945648737033       -3.94286794900764        2.08951526960119
O           -6.42605551585852       -4.81593974461738        0.22345834654074
H           -2.53845416988565       -4.47951614439297        2.96541661106507
H           -1.91193136105225       -1.42783467996169       -0.00019810884217
H           -4.08376763288686       -2.00817134614191       -1.06261568140855
N           -5.68998713617600       -3.91280327342765       -0.26138604457963
H           -4.71942513006641       -5.00147629913650        1.95080362071480
O           -6.04302225330087       -3.31514015740934       -1.31397939216712
N           -0.95690137903126       -2.38118474794510        2.03095908340746
H           -0.51705066656053       -2.78094326233464        2.88255441996384
15
 energy: -29.582058727228 gnorm: 0.025444760465 xtb: 6.7.1 (edcfbbe)
C           -2.06963141728147       -2.85545887491683        1.57393051248262
C           -2.54500347845758       -2.19764672698927        0.38265173332957
C           -3.72199977473051       -2.52869217252437       -0.19222035627545
C           -4.51804529112888       -3.57154322685969        0.35189084587848
C           -4.06634798448341       -4.24014218524516        1.52324577754473
C           -2.88765321147591       -3.91859363780343        2.10022392265959
O           -6.41226240850269       -4.82482811091565        0.21922631334654
H           -2.54728945295614       -4.45510167387879        2.97705666818195
H           -1.91684752494392       -1.41788488877239       -0.00893454913690
H           -4.09052911106358       -2.01974030428198       -1.06820201301421
N           -5.68002652821271       -3.91279746064290       -0.25588081095908
H           -4.69491005103575       -5.02257780189075        1.92798025671755
O           -6.03959834652941       -3.31795059757188       -1.31178320901234
N           -0.94130707889048       -2.40083804675999        2.02505011819769
H           -0.54700634030758       -2.81748429094688        2.88674679005927
15
 energy: -29.583521298161 gnorm: 0.021272460646 xtb: 6.7.1 (edcfbbe)
C           -2.06139368588184       -2.84911601470411        1.56340592982353
C           -2.53940027571504       -2.19204735012755        0.37170841621524
C           -3.71484961969215       -2.52322687691149       -0.19411039585069
C           -4.51451909248732       -3.56382374392759        0.35442471190629
C           -4.05936832019708       -4.23880391383224        1.51404373044372
C           -2.89133584681538       -3.89582003008604        2.10320617953711
O           -6.39793514922159       -4.82954907021168        0.23765515128068
H           -2.55250019980697       -4.42665509917557        2.98370850373095
H           -1.91758689156135       -1.40478849534023       -0.02203137386819
H           -4.09165022115068       -2.03139611017106       -1.08145624441590
N           -5.67311518318848       -3.91338254248212       -0.24354366747744
H           -4.67557893299454       -5.03921424357250        1.89904788987383
O           -6.05679771189772       -3.31492845929272       -1.29261605549864
N           -0.92741484577429       -2.41053439964850        2.03562713235066
H           -0.60501202361561       -2.86799365051658        2.90191209194887
15
 energy: -29.584179216272 gnorm: 0.015733872311 xtb: 6.7.1 (edcfbbe)
C           -2.05953949851991       -2.83516122148688        1.56353413902250
C           -2.54129723915645       -2.18040776519017        0.37268812353193
C           -3.71455836810191       -2.51885505199944       -0.19369970022018
C           -4.51144706992812       -3.56068428959719        0.35460688248427
C           -4.05568291631394       -4.23601309292570        1.51364119855829
C           -2.89429300171603       -3.87726799626640        2.10852199519477
O           -6.38327304284670       -4.84318149187856        0.23748888144173
H           -2.55351964422140       -4.40065078483520        2.99283479818361
H           -1.92071008539748       -1.39556727331712       -0.03045839456646
H           -4.08926653904843       -2.03553934979628       -1.08630514116444
N           -5.67125623316946       -3.91488839114216       -0.24062180703346
H           -4.66458919820168       -5.04637388887122        1.88764529887387
O           -6.06576760255932       -3.31343694567782       -1.28336758072519
N           -0.91603061864469       -2.42721818253753        2.03924882680346
H           -0.63722694217447       -2.91603427447831        2.89522447961532
15
 energy: -29.584545217056 gnorm: 0.011335974491 xtb: 6.7.1 (edcfbbe)
C           -2.05545233557806       -2.82476679755139        1.56099454490055
C           -2.54085547419437       -2.16892263269604        0.37266122850132
C           -3.70928102762066       -2.52033594392244       -0.20375759530044
C           -4.50375353412533       -3.56373470301388        0.34417140985201
C           -4.04798466487436       -4.23468669511409        1.50645032811870
C           -2.88873149529203       -3.87245465714230        2.09964104892645
O           -6.37243189481057       -4.85241974936373        0.24883357252962
H           -2.55020880065217       -4.38407818936955        2.99117952563769
H           -1.92593780193176       -1.38141506420766       -0.03510432156532
H           -4.08339735630174       -2.03594030387553       -1.09468236258841
N           -5.67313265877744       -3.91869668005168       -0.23745137478009
H           -4.66169321067644       -5.03519599795250        1.89096885900218
O           -6.08286446924852       -3.31461670336691       -1.27126766901090
N           -0.91331205251574       -2.43680068015153        2.05577052111164
H           -0.66942122340084       -2.95721520222078        2.90257428466499
15
 energy: -29.584650921851 gnorm: 0.004681404657 xtb: 6.7.1 (edcfbbe)
C           -2.05434759163629       -2.82162837255032        1.56128064710391
C           -2.54163584185298       -2.16733134335925        0.37298989808022
C           -3.70874527314062       -2.52150416252707       -0.20534100559681
C           -4.50281667153111       -3.56521934082274        0.34222312106899
C           -4.04756379064473       -4.23286711285622        1.50747756799686
C           -2.88410481055400       -3.87505723973857        2.09496342467428
O           -6.37125945856358       -4.85353822734539        0.24905522851199
H           -2.54444627582114       -4.38516405635637        2.98710654194635
H           -1.92896105832835       -1.37890004254237       -0.03428752154304
H           -4.08209087631124       -2.03297052069135       -1.09375893563109
N           -5.67369536887779       -3.91894574349452       -0.23757131483649
H           -4.66720308042525       -5.02582677379598        1.90130680798301
O           -6.07994608352556       -3.31970260803950       -1.27384334055085
N           -0.91896243594548       -2.43553309022070        2.06147052414593
H           -0.67267938284189       -2.96709136565964        2.89791035664674
15
 energy: -29.584673415787 gnorm: 0.001676745841 xtb: 6.7.1 (edcfbbe)
C           -2.05057478196085       -2.82210779538861        1.55863546305589
C           -2.54275528753888       -2.16550818732061        0.37346164160260
C           -3.70947181297620       -2.52135417779301       -0.20521063892691
C           -4.50252370222655       -3.56641999511905        0.34074698355987
C           -4.04857928104829       -4.23022006976909        1.50931219103087
C           -2.88123242588780       -3.87704590264612        2.09102021093550
O           -6.37221502473462       -4.85220424495901        0.25154629372954
H           -2.53987810142475       -4.38678173639584        2.98291682566725
H           -1.93292796476049       -1.37522051579954       -0.03370790957082
H           -4.07932273699270       -2.03220902661970       -1.09440332890915
N           -5.67242161850100       -3.92202212100532       -0.24021161419559
H           -4.67030822125057       -5.02005263790952        1.90775355986568
O           -6.07888366434711       -3.32250515132064       -1.27482862677401
N           -0.92072964864675       -2.43656827021232        2.06528065334092
H           -0.67663372770346       -2.97106016774161        2.89867029558835
15
 energy: -29.584673611053 gnorm: 0.001577401946 xtb: 6.7.1 (edcfbbe)
C           -2.04924878133952       -2.82190975099884        1.55784150043621
C           -2.54234907784015       -2.16599717455581        0.37262941278366
C           -3.70991789240272       -2.52143807903755       -0.20464973851060
C           -4.50428323579254       -3.56476806244499        0.34220730198592
C           -4.04939532432378       -4.22926450463654        1.51005849853479
C           -2.88097940111831       -3.87769625253089        2.08964179498653
O           -6.37141783297736       -4.85361184700623        0.25092963470960
H           -2.53858814575274       -4.38772291396316        2.98107516778086
H           -1.93459855448979       -1.37388920761822       -0.03470658374431
H           -4.07905128752455       -2.03069980991053       -1.09332446695282
N           -5.67510194396497       -3.91913274240510       -0.23776948942804
H           -4.67112235783212       -5.01843159496360        1.90925822583330
O           -6.07614163744112       -3.32704845725135       -1.27859659194954
N           -0.91980720672106       -2.43726172350314        2.06658411226220
H           -0.67645532047929       -2.97240787917405        2.89980322127223
15
 energy: -29.584678570651 gnorm: 0.000431021105 xtb: 6.7.1 (edcfbbe)
C           -2.05035515835761       -2.82093121897456        1.55885528784601