 Entering Gaussian System
 *********************************************
 Gaussian 98:
 frequency output generated by the xtb code
 *********************************************
                         Standard orientation:
 --------------------------------------------------------------------
  Center     Atomic     Atomic              Coordinates (Angstroms)
  Number     Number      Type              X           Y           Z
 --------------------------------------------------------------------
    1          6             0       -4.079030   -1.948300    1.934878
    2          6             0       -3.792028   -2.420185    0.695272
    3          7             0       -7.184085   -3.869005    2.612745
    4          6             0       -5.228115   -2.379727    2.693217
    5          1             0       -3.451358   -1.215571    2.420772
    6          6             0       -4.620213   -3.376589    0.073052
    7          1             0       -2.917473   -2.061389    0.172729
    8          6             0       -5.722517   -3.829402    0.729895
    9          1             0       -4.379462   -3.741822   -0.911514
   10          6             0       -6.055504   -3.362858    2.020421
   11          1             0       -6.384914   -4.561149    0.291417
   12          8             0       -5.455599   -1.917758    3.834796
   13          8             0       -7.871180   -4.719389    1.997207
   14          8             0       -7.543474   -3.506908    3.748384
 --------------------------------------------------------------------
     1 basis functions        1 primitive gaussians
     1 alpha electrons        1 beta electrons
 
 Harmonic frequencies (cm**-1), IR intensities (km*mol⁻¹),
 Raman scattering activities (A**4/amu), Raman depolarization ratios,
 reduced masses (AMU), force constants (mDyne/A) and normal coordinates:
                      1                      2                      3
                        a                      a                      a 
 Frequencies --    46.4794                96.3976               212.6924
 Red. masses --    15.6092                11.8544                11.5743
 Frc consts  --     0.0000                 0.0000                 0.0000
 IR Inten    --     2.5312                 0.0089                11.6975
 Raman Activ --     0.0000                 0.0000                 0.0000
 Depolar     --     0.0000                 0.0000                 0.0000
 Atom AN      X      Y      Z        X      Y      Z        X      Y      Z
   1   6    -0.04   0.05  -0.03     0.21  -0.29   0.16     0.20  -0.27   0.15
   2   6     0.03  -0.04   0.02     0.19  -0.25   0.14    -0.13   0.17  -0.09
   3   7     0.02  -0.03   0.02     0.02  -0.03   0.02     0.06  -0.08   0.05
   4   6    -0.04   0.06  -0.03    -0.06   0.07  -0.04     0.13  -0.18   0.10
   5   1    -0.02   0.03  -0.02     0.11  -0.15   0.09     0.08  -0.11   0.06
   6   6     0.08  -0.11   0.06    -0.10   0.14  -0.08    -0.20   0.28  -0.15
   7   1     0.01  -0.02   0.01     0.11  -0.15   0.08    -0.08   0.12  -0.06
   8   6     0.07  -0.09   0.05    -0.22   0.30  -0.17     0.14  -0.18   0.10
   9   1     0.04  -0.05   0.03    -0.06   0.08  -0.04    -0.13   0.18  -0.10
  10   6     0.03  -0.04   0.02    -0.12   0.16  -0.09     0.26  -0.35   0.19
  11   1     0.03  -0.05   0.03    -0.11   0.15  -0.08     0.05  -0.07   0.04
  12   8    -0.19   0.25  -0.14    -0.24   0.32  -0.18    -0.21   0.27  -0.15
  13   8    -0.33   0.44  -0.25     0.17  -0.22   0.12    -0.07   0.09  -0.05
  14   8     0.36  -0.49   0.27     0.12  -0.16   0.09    -0.11   0.15  -0.08
                      4                      5                      6
                        a                      a                      a 
 Frequencies --   231.6400               361.9856               380.1287
 Red. masses --    14.6279                14.0076                10.1375
 Frc consts  --     0.0000                 0.0000                 0.0000
 IR Inten    --     2.8342                 2.0518                 2.1114
 Raman Activ --     0.0000                 0.0000                 0.0000
 Depolar     --     0.0000                 0.0000                 0.0000
 Atom AN      X      Y      Z        X      Y      Z        X      Y      Z
   1   6    -0.07   0.01   0.10    -0.08  -0.04   0.04     0.22  -0.30   0.16
   2   6     0.05   0.09   0.10    -0.29  -0.20   0.02    -0.20   0.27  -0.15
   3   7     0.07   0.05   0.01     0.25   0.16  -0.05    -0.13   0.18  -0.10
   4   6    -0.12  -0.13  -0.09    -0.02   0.08   0.16    -0.03   0.04  -0.02
   5   1    -0.04   0.00   0.06     0.03  -0.01  -0.06     0.13  -0.18   0.10
   6   6     0.15   0.08  -0.04    -0.21  -0.20  -0.07     0.03  -0.03   0.02
   7   1     0.02   0.04   0.06    -0.08  -0.06  -0.00    -0.10   0.14  -0.08
   8   6     0.08  -0.05  -0.21    -0.15  -0.10   0.02     0.17  -0.23   0.13
   9   1     0.08   0.05  -0.01    -0.06  -0.05  -0.02     0.07  -0.09   0.05
  10   6    -0.00  -0.12  -0.22     0.16   0.12  -0.00    -0.30   0.41  -0.23
  11   1     0.04  -0.02  -0.09    -0.08  -0.03   0.07     0.16  -0.21   0.12
  12   8    -0.39  -0.33  -0.08    -0.34  -0.13   0.22     0.02  -0.02   0.01
  13   8    -0.21   0.04   0.35     0.45   0.20  -0.25     0.05  -0.07   0.04
  14   8     0.43   0.34   0.03     0.21   0.11  -0.08     0.08  -0.11   0.06
                      7                      8                      9
                        a                      a                      a 
 Frequencies --   425.6757               479.6730               538.6900
 Red. masses --    14.8510                 9.3057                12.1901
 Frc consts  --     0.0000                 0.0000                 0.0000
 IR Inten    --    13.4752                 1.3395                 9.8575
 Raman Activ --     0.0000                 0.0000                 0.0000
 Depolar     --     0.0000                 0.0000                 0.0000
 Atom AN      X      Y      Z        X      Y      Z        X      Y      Z
   1   6    -0.21  -0.09   0.12     0.08  -0.11   0.06     0.23   0.28   0.19
   2   6    -0.17  -0.05   0.13    -0.16   0.22  -0.12    -0.09   0.08   0.26
   3   7    -0.01  -0.16  -0.27    -0.05   0.07  -0.04     0.01  -0.03  -0.07
   4   6    -0.13   0.03   0.22     0.24  -0.32   0.18     0.13  -0.03  -0.24
   5   1    -0.05  -0.03   0.03    -0.10   0.14  -0.08     0.03   0.08   0.10
   6   6    -0.03  -0.04  -0.04     0.26  -0.35   0.19    -0.26   0.05   0.44
   7   1    -0.04   0.01   0.07    -0.19   0.26  -0.14    -0.05  -0.05  -0.02
   8   6    -0.01  -0.03  -0.04    -0.21   0.29  -0.16    -0.33  -0.23   0.03
   9   1     0.02   0.01  -0.01     0.09  -0.12   0.07    -0.02   0.05   0.12
  10   6    -0.01  -0.03  -0.04     0.03  -0.04   0.02    -0.06  -0.07  -0.05
  11   1    -0.02  -0.01   0.01    -0.15   0.21  -0.11    -0.07  -0.06  -0.02
  12   8     0.35   0.39   0.24    -0.11   0.14  -0.08     0.16  -0.06  -0.31
  13   8    -0.24  -0.19  -0.03     0.03  -0.04   0.02     0.03  -0.05  -0.13
  14   8     0.41   0.15  -0.29     0.01  -0.01   0.01     0.15   0.06  -0.08
                     10                     11                     12
                        a                      a                      a 
 Frequencies --   579.3014               640.7121               653.7625
 Red. masses --    12.8419                12.7798                11.6695
 Frc consts  --     0.0000                 0.0000                 0.0000
 IR Inten    --    22.0127                44.7065                17.0128
 Raman Activ --     0.0000                 0.0000                 0.0000
 Depolar     --     0.0000                 0.0000                 0.0000
 Atom AN      X      Y      Z        X      Y      Z        X      Y      Z
   1   6    -0.34  -0.19   0.11     0.12   0.19   0.19    -0.10   0.14  -0.08
   2   6    -0.06   0.04   0.16    -0.23  -0.06   0.20     0.16  -0.21   0.12
   3   7     0.02   0.13   0.20     0.15   0.10  -0.01    -0.33   0.44  -0.25
   4   6    -0.26  -0.25  -0.10     0.13   0.13   0.06     0.23  -0.32   0.17
   5   1    -0.17  -0.06   0.12     0.08   0.05  -0.01    -0.15   0.21  -0.11
   6   6     0.08   0.04  -0.03     0.04  -0.09  -0.21    -0.12   0.17  -0.09
   7   1     0.00   0.06   0.11    -0.06  -0.02   0.05    -0.03   0.04  -0.02
   8   6     0.02  -0.10  -0.20    -0.03  -0.24  -0.39     0.14  -0.20   0.11
   9   1     0.08   0.05  -0.01     0.13   0.06  -0.06    -0.11   0.15  -0.08
  10   6    -0.12  -0.14  -0.10     0.19   0.01  -0.24    -0.04   0.05  -0.03
  11   1     0.04  -0.03  -0.11    -0.03  -0.07  -0.08    -0.03   0.03  -0.02
  12   8     0.31   0.13  -0.17     0.08   0.11   0.10    -0.05   0.07  -0.04
  13   8     0.37   0.19  -0.15    -0.10   0.10   0.32     0.10  -0.14   0.08
  14   8    -0.09   0.07   0.25    -0.33  -0.26  -0.03     0.10  -0.14   0.08
                     13                     14                     15
                        a                      a                      a 
 Frequencies --   727.5746               771.2619               793.3222
 Red. masses --    12.5280                 4.7527                13.7318
 Frc consts  --     0.0000                 0.0000                 0.0000
 IR Inten    --    67.4063                25.1318                 5.2553
 Raman Activ --     0.0000                 0.0000                 0.0000
 Depolar     --     0.0000                 0.0000                 0.0000
 Atom AN      X      Y      Z        X      Y      Z        X      Y      Z
   1   6    -0.09   0.12  -0.07    -0.10   0.14  -0.08    -0.25  -0.19  -0.01
   2   6     0.08  -0.10   0.06    -0.08   0.11  -0.06    -0.01   0.01   0.03
   3   7     0.30  -0.41   0.22    -0.12   0.17  -0.09     0.30   0.12  -0.18
   4   6     0.28  -0.38   0.21     0.15  -0.20   0.11    -0.08  -0.13  -0.12
   5   1    -0.05   0.06  -0.03     0.17  -0.23   0.13    -0.13  -0.06   0.07
   6   6    -0.08   0.11  -0.06    -0.09   0.13  -0.07    -0.06   0.05   0.17
   7   1     0.00  -0.00   0.00     0.21  -0.28   0.16     0.00   0.03   0.04
   8   6     0.03  -0.04   0.02    -0.13   0.17  -0.09     0.02   0.15   0.25
   9   1     0.05  -0.07   0.04     0.30  -0.41   0.23    -0.08  -0.03   0.05
  10   6    -0.27   0.37  -0.21     0.11  -0.16   0.09     0.14   0.12   0.04
  11   1     0.07  -0.09   0.05     0.18  -0.25   0.14    -0.03   0.05   0.12
  12   8    -0.08   0.10  -0.06    -0.04   0.06  -0.03     0.06  -0.07  -0.21
  13   8    -0.08   0.11  -0.06     0.04  -0.06   0.03    -0.00   0.22   0.40
  14   8    -0.09   0.12  -0.07     0.02  -0.03   0.02    -0.08  -0.28  -0.40
                     16                     17                     18
                        a                      a                      a 
 Frequencies --   846.1822               856.8247               903.1113
 Red. masses --    11.9135                 4.3162                 3.1645
 Frc consts  --     0.0000                 0.0000                 0.0000
 IR Inten    --    12.5433                 2.2390                 0.0094
 Raman Activ --     0.0000                 0.0000                 0.0000
 Depolar     --     0.0000                 0.0000                 0.0000
 Atom AN      X      Y      Z        X      Y      Z        X      Y      Z
   1   6    -0.00  -0.11  -0.20     0.18  -0.24   0.13     0.01  -0.01   0.00
   2   6     0.42   0.16  -0.26     0.10  -0.14   0.08     0.03  -0.04   0.02
   3   7     0.10   0.05  -0.03     0.01  -0.01   0.01    -0.02   0.02  -0.01
   4   6    -0.13   0.01   0.18    -0.11   0.15  -0.08     0.02  -0.03   0.02
   5   1    -0.03  -0.02  -0.02    -0.33   0.45  -0.25    -0.06   0.09  -0.05
   6   6    -0.08   0.13   0.34    -0.17   0.23  -0.13     0.12  -0.17   0.09
   7   1     0.10  -0.00  -0.14    -0.13   0.18  -0.10    -0.01   0.01  -0.01
   8   6    -0.26  -0.31  -0.22    -0.06   0.08  -0.04    -0.20   0.27  -0.15
   9   1    -0.03   0.02   0.09     0.25  -0.34   0.19    -0.26   0.35  -0.20
  10   6    -0.03  -0.09  -0.13     0.04  -0.06   0.03     0.01  -0.01   0.01
  11   1    -0.01  -0.09  -0.15     0.13  -0.17   0.10     0.41  -0.55   0.30
  12   8    -0.06   0.14   0.33     0.03  -0.04   0.02    -0.00   0.00  -0.00
  13   8     0.06   0.10   0.09    -0.01   0.01  -0.00     0.00  -0.01   0.00
  14   8    -0.03  -0.07  -0.08    -0.00   0.01  -0.00     0.00  -0.00   0.00
                     19                     20                     21
                        a                      a                      a 
 Frequencies --   918.8260              1060.7249              1091.0967
 Red. masses --     3.3887                 7.8445                 9.5173
 Frc consts  --     0.0000                 0.0000                 0.0000
 IR Inten    --     0.0139                 2.8598                77.8552
 Raman Activ --     0.0000                 0.0000                 0.0000
 Depolar     --     0.0000                 0.0000                 0.0000
 Atom AN      X      Y      Z        X      Y      Z        X      Y      Z
   1   6     0.13  -0.17   0.10    -0.20  -0.25  -0.18     0.27   0.21   0.02
   2   6    -0.20   0.28  -0.15    -0.30  -0.21   0.03    -0.16  -0.12  -0.01
   3   7     0.01  -0.01   0.01    -0.02  -0.01   0.01    -0.05  -0.04   0.00
   4   6     0.03  -0.04   0.02     0.22   0.16  -0.01    -0.27  -0.18   0.04
   5   1    -0.26   0.36  -0.20     0.18  -0.07  -0.37     0.15   0.06  -0.10
   6   6     0.03  -0.04   0.02     0.10   0.28   0.38     0.01   0.01   0.00
   7   1     0.39  -0.53   0.29    -0.09  -0.07   0.01    -0.11  -0.23  -0.26
   8   6     0.05  -0.07   0.04     0.09   0.06  -0.01     0.19   0.17   0.05
   9   1    -0.07   0.09  -0.05     0.19   0.20   0.11    -0.06  -0.04   0.01
  10   6    -0.04   0.05  -0.03     0.08   0.01  -0.09    -0.36  -0.24   0.04
  11   1    -0.05   0.07  -0.04     0.20   0.01  -0.25     0.24   0.04  -0.25
  12   8    -0.00   0.00  -0.00    -0.02  -0.03  -0.02     0.02   0.06   0.09
  13   8    -0.00   0.00  -0.00    -0.04  -0.05  -0.03     0.19   0.23   0.16
  14   8    -0.00   0.00  -0.00    -0.02   0.02   0.06     0.06  -0.08  -0.22
                     22                     23                     24
                        a                      a                      a 
 Frequencies --  1158.2254              1175.5551              1211.0832
 Red. masses --     2.9425                 5.1852                 6.5233
 Frc consts  --     0.0000                 0.0000                 0.0000
 IR Inten    --     2.8930               106.0821               111.8381
 Raman Activ --     0.0000                 0.0000                 0.0000
 Depolar     --     0.0000                 0.0000                 0.0000
 Atom AN      X      Y      Z        X      Y      Z        X      Y      Z
   1   6     0.04   0.01  -0.04     0.07  -0.01  -0.11     0.09   0.05  -0.03
   2   6    -0.05  -0.06  -0.06     0.04   0.05   0.03     0.03   0.09   0.12
   3   7     0.03   0.02  -0.01    -0.13  -0.07   0.06     0.18   0.09  -0.08
   4   6    -0.18  -0.13   0.01    -0.05  -0.03  -0.00    -0.39  -0.24   0.09
   5   1    -0.18  -0.00   0.24     0.18  -0.00  -0.24     0.37   0.02  -0.47
   6   6     0.03   0.06   0.07     0.08  -0.01  -0.12    -0.03   0.03   0.10
   7   1    -0.15  -0.39  -0.51     0.06   0.15   0.19     0.01   0.03   0.04
   8   6     0.08   0.05  -0.03    -0.16  -0.11   0.02     0.10   0.06  -0.04
   9   1     0.37   0.28   0.01     0.51   0.35  -0.05    -0.17  -0.10   0.03
  10   6     0.19   0.13  -0.03    -0.23  -0.03   0.25     0.13  -0.01  -0.19
  11   1    -0.16   0.02   0.25    -0.23  -0.03   0.27    -0.19   0.03   0.31
  12   8     0.00   0.02   0.02    -0.01  -0.02  -0.02     0.06   0.01  -0.06
  13   8    -0.07  -0.08  -0.06     0.13   0.15   0.09    -0.10  -0.12  -0.08
  14   8    -0.04   0.03   0.11     0.09  -0.05  -0.22    -0.08   0.04   0.19
                     25                     26                     27
                        a                      a                      a 
 Frequencies --  1279.2142              1345.0591              1353.4701
 Red. masses --    10.3612                 9.8697                 9.6053
 Frc consts  --     0.0000                 0.0000                 0.0000
 IR Inten    --  1295.1193               782.3021               308.5699
 Raman Activ --     0.0000                 0.0000                 0.0000
 Depolar     --     0.0000                 0.0000                 0.0000
 Atom AN      X      Y      Z        X      Y      Z        X      Y      Z
   1   6    -0.10  -0.01   0.13    -0.24  -0.09   0.17    -0.20  -0.06   0.16
   2   6    -0.03  -0.06  -0.06     0.08   0.10   0.08     0.15   0.21   0.17
   3   7    -0.43  -0.22   0.17     0.30   0.19  -0.07    -0.28  -0.14   0.13
   4   6     0.17   0.05  -0.15     0.29   0.26   0.09    -0.06  -0.01   0.05
   5   1     0.02  -0.00  -0.02     0.05  -0.02  -0.11     0.16  -0.01  -0.23
   6   6     0.19   0.17   0.06     0.17   0.07  -0.09     0.04  -0.03  -0.11
   7   1    -0.02  -0.05  -0.07    -0.07  -0.21  -0.28    -0.05  -0.19  -0.29
   8   6    -0.01   0.03   0.06    -0.00  -0.04  -0.07    -0.07  -0.16  -0.18
   9   1    -0.19  -0.13   0.02    -0.10  -0.09  -0.02    -0.13  -0.11  -0.03
  10   6     0.12  -0.15  -0.43    -0.45  -0.27   0.11     0.25   0.36   0.32
  11   1    -0.24   0.02   0.35    -0.16  -0.01   0.20     0.07  -0.05  -0.17
  12   8    -0.02   0.07   0.14     0.00  -0.06  -0.10     0.03  -0.08  -0.18
  13   8     0.19   0.19   0.09    -0.05  -0.06  -0.04     0.04   0.05   0.04
  14   8     0.06  -0.03  -0.12    -0.02  -0.01   0.01     0.08  -0.02  -0.15
                     28                     29                     30
                        a                      a                      a 
 Frequencies --  1423.6389              1433.9434              1522.2618
 Red. masses --    13.5633                10.5069                11.8802
 Frc consts  --     0.0000                 0.0000                 0.0000
 IR Inten    --   255.8575                90.5555                43.7390
 Raman Activ --     0.0000                 0.0000                 0.0000
 Depolar     --     0.0000                 0.0000                 0.0000
 Atom AN      X      Y      Z        X      Y      Z        X      Y      Z
   1   6    -0.10  -0.00   0.13    -0.17   0.06   0.32     0.02   0.15   0.25
   2   6     0.13   0.09  -0.02     0.19   0.06  -0.14    -0.13  -0.31  -0.39
   3   7    -0.06  -0.37  -0.59     0.07   0.21   0.28     0.09  -0.01  -0.13
   4   6     0.04   0.09   0.12    -0.00  -0.04  -0.07    -0.17  -0.07   0.10
   5   1     0.05   0.00  -0.07     0.14   0.02  -0.15     0.03   0.04   0.03
   6   6    -0.12  -0.13  -0.08    -0.07  -0.15  -0.17     0.48   0.33  -0.04
   7   1     0.02  -0.03  -0.07     0.04  -0.03  -0.10     0.02   0.05   0.06
   8   6    -0.07   0.05   0.19    -0.22   0.08   0.43    -0.32  -0.17   0.12
   9   1     0.13   0.08  -0.03     0.22   0.13  -0.06    -0.07  -0.06  -0.01
  10   6     0.02  -0.06  -0.14     0.10  -0.10  -0.32     0.04   0.11   0.15
  11   1     0.07   0.01  -0.07     0.16   0.01  -0.19    -0.03  -0.05  -0.05
  12   8     0.02  -0.04  -0.10     0.02   0.04   0.04     0.04  -0.04  -0.12
  13   8     0.17   0.22   0.17    -0.10  -0.14  -0.11    -0.02  -0.02  -0.00
  14   8    -0.11   0.12   0.37     0.02  -0.05  -0.12    -0.02   0.03   0.08
                     31                     32                     33
                        a                      a                      a 
 Frequencies --  1548.5962              1619.0027              3069.8991
 Red. masses --    12.9469                11.4309                 1.7663
 Frc consts  --     0.0000                 0.0000                 0.0000
 IR Inten    --   994.3932               168.9418                30.0407
 Raman Activ --     0.0000                 0.0000                 0.0000
 Depolar     --     0.0000                 0.0000                 0.0000
 Atom AN      X      Y      Z        X      Y      Z        X      Y      Z
   1   6    -0.04  -0.03  -0.00     0.19  -0.12  -0.47    -0.08  -0.09  -0.06
   2   6    -0.01   0.06   0.13    -0.08   0.18   0.44     0.18   0.07  -0.11
   3   7     0.13  -0.02  -0.21     0.01   0.01   0.01    -0.00  -0.00  -0.00
   4   6     0.12  -0.28  -0.67    -0.07   0.04   0.17    -0.00  -0.00  -0.00
   5   1     0.05  -0.02  -0.09    -0.10  -0.04   0.06     0.30   0.35   0.23
   6   6     0.12   0.04  -0.09     0.30   0.10  -0.22    -0.00   0.01   0.02
   7   1    -0.03  -0.05  -0.05    -0.07  -0.09  -0.06    -0.66  -0.27   0.39
   8   6    -0.11  -0.05   0.05    -0.33  -0.06   0.33     0.00   0.01   0.01
   9   1    -0.03  -0.04  -0.03    -0.06  -0.08  -0.06     0.02  -0.03  -0.08
  10   6    -0.03   0.08   0.19     0.06  -0.05  -0.17    -0.00   0.00   0.00
  11   1     0.01  -0.02  -0.04     0.03  -0.03  -0.09    -0.02  -0.02  -0.01
  12   8    -0.10   0.18   0.46     0.00  -0.02  -0.04     0.00   0.00  -0.00
  13   8    -0.03  -0.02   0.01    -0.00  -0.00  -0.01    -0.00  -0.00  -0.00
  14   8    -0.04   0.04   0.12    -0.00  -0.00   0.00     0.00   0.00  -0.00
                     34                     35                     36
                        a                      a                      a 
 Frequencies --  3084.1673              3085.2528              3108.9962
 Red. masses --     1.8693                 1.7973                 1.8826
 Frc consts  --     0.0000                 0.0000                 0.0000
 IR Inten    --   129.3562                21.3636                65.8326
 Raman Activ --     0.0000                 0.0000                 0.0000
 Depolar     --     0.0000                 0.0000                 0.0000
 Atom AN      X      Y      Z        X      Y      Z        X      Y      Z
   1   6    -0.13  -0.16  -0.11    -0.01  -0.01  -0.01    -0.02  -0.02  -0.02
   2   6    -0.12  -0.05   0.07    -0.01  -0.00   0.01    -0.05  -0.02   0.03
   3   7     0.00   0.00  -0.00    -0.00  -0.00  -0.00     0.00   0.00  -0.00
   4   6     0.00  -0.00  -0.01     0.00   0.00   0.00     0.00  -0.00  -0.00
   5   1     0.47   0.55   0.36     0.03   0.04   0.03     0.06   0.07   0.04
   6   6     0.01  -0.01  -0.04    -0.01   0.02   0.05    -0.06   0.09   0.24
   7   1     0.39   0.16  -0.23     0.02   0.01  -0.01     0.14   0.06  -0.08
   8   6     0.00   0.00   0.00    -0.16  -0.18  -0.10     0.05   0.05   0.03
   9   1    -0.04   0.06   0.17     0.05  -0.08  -0.22     0.20  -0.31  -0.83
  10   6    -0.00   0.00   0.00    -0.01  -0.01  -0.00     0.00  -0.00  -0.00
  11   1    -0.01  -0.01  -0.01     0.57   0.63   0.38    -0.15  -0.16  -0.10
  12   8    -0.00   0.00   0.00    -0.00  -0.00  -0.00    -0.00   0.00   0.00
  13   8    -0.00  -0.00  -0.00    -0.00   0.00   0.00    -0.00  -0.00  -0.00
  14   8    -0.00   0.00   0.00     0.00  -0.00  -0.00    -0.00   0.00   0.00
