14
 energy: -30.233455136892 gnorm: 0.000299140806 xtb: 6.7.1 (edcfbbe)
C           -4.07902975577011       -1.94829999018145        1.93487821578043
C           -3.79202725657763       -2.42018516862341        0.69527180350877
N           -7.18408442141753       -3.86900468325531        2.61274499466974
C           -5.22811417625807       -2.37972648694062        2.69321681152831
H           -3.45135750720300       -1.21557074850366        2.42077200579575
C           -4.62021300879448       -3.37658903823881        0.07305188091166
H           -2.91747249523283       -2.06138852597427        0.17272866746524
C           -5.72251600564033       -3.82940169015858        0.72989499960110
H           -4.37946172653470       -3.74182214461095       -0.91151441305380
C           -6.05550366385470       -3.36285760082502        2.02042036497311
H           -6.38491378217204       -4.56114855129988        0.29141665321524
O           -5.45559825354126       -1.91775769355452        3.83479580502801
O           -7.87117931772495       -4.71938807201845        1.99720669224717
O           -7.54347341924236       -3.50690761346679        3.74838411019706
