14
 energy: -30.214468792006 gnorm: 0.168728895186 xtb: 6.7.1 (edcfbbe)
C           -4.09894300000000       -1.94712900000000        1.96325800000000
C           -3.77763000000000       -2.41464000000000        0.68644000000000
N           -7.24502400000000       -3.87744600000000        2.68099700000000
C           -5.23324300000000       -2.41363700000000        2.63751900000000
H           -3.46440700000000       -1.20951400000000        2.44915100000000
C           -4.59494000000000       -3.35895200000000        0.07103300000000
H           -2.89179300000000       -2.04085600000000        0.17700700000000
C           -5.73036500000000       -3.83364900000000        0.73197300000000
H           -4.34948800000000       -3.72692500000000       -0.92395900000000
C           -6.05040200000000       -3.35813500000000        2.02157100000000
H           -6.35486000000000       -4.57234600000000        0.23067400000000
O           -5.43395900000000       -1.96073300000000        3.72639200000000
O           -7.90913500000000       -4.71657800000000        2.05089300000000
O           -7.55060900000000       -3.47993800000000        3.80998400000000
14
 energy: -30.230503667348 gnorm: 0.059020408544 xtb: 6.7.1 (edcfbbe)
C           -4.08544338793272       -1.94845123775782        1.94281766522183
C           -3.78391178852052       -2.41752255898311        0.68961246042430
N           -7.21837272590638       -3.87625693342139        2.64730268650273
C           -5.23306275233324       -2.39743021578923        2.66670480396962
H           -3.45611834944167       -1.21556630705051        2.42715584605387
C           -4.60929871628790       -3.36635361886406        0.07692662208100
H           -2.90425350942294       -2.05043038015820        0.17631765913024
C           -5.72910726309366       -3.83435994305097        0.72909419381304
H           -4.36885421810926       -3.73399176968852       -0.91091535859598
C           -6.05441888237318       -3.36618558941741        2.01256481196228
H           -6.36079104423684       -4.56803146388736        0.24627648346416
O           -5.45226082264721       -1.93087353140318        3.80479627779273
O           -7.89257797644669       -4.71735680971688        2.02746553301296
O           -7.53632656324779       -3.48766764081134        3.77681331516722
14
 energy: -30.233023707553 gnorm: 0.024505496050 xtb: 6.7.1 (edcfbbe)
C           -4.08070552343757       -1.94921961098276        1.93525886655819
C           -3.79153584431970       -2.42065558895488        0.69412124071703
N           -7.19333381113951       -3.87234977949986        2.62129604885657
C           -5.23048256268963       -2.38562506664519        2.68501224921852
H           -3.45393821372311       -1.21732358274818        2.42093926354949
C           -4.61989585852472       -3.37344522198760        0.07830942004666
H           -2.91590556092797       -2.05882068704937        0.17626404998262
C           -5.72695428766799       -3.83119632225914        0.73225655619289
H           -4.38274015693649       -3.74163072936341       -0.90645958798544
C           -6.05432201577574       -3.36475072141273        2.01557654264368
H           -6.37397290033452       -4.56309584148917        0.27292833121446
O           -5.45532954864731       -1.91732474133564        3.83357248510515
O           -7.87151588216257       -4.71611637102251        2.00134708895236
O           -7.53416583371317       -3.49892373524956        3.75251044494782
14
 energy: -30.233363867246 gnorm: 0.011725779523 xtb: 6.7.1 (edcfbbe)
C           -4.07921476726898       -1.94883903884556        1.93413769758821
C           -3.79267778835450       -2.42116837930127        0.69464014778787
N           -7.18577482040380       -3.87038345548551        2.61331572822810
C           -5.22898483567765       -2.38078952012065        2.69200917307273
H           -3.45270847088392       -1.21654901222573        2.42087992549010
C           -4.62115065166252       -3.37623094988441        0.07499778471033
H           -2.91799584808512       -2.06155437110174        0.17378220663363
C           -5.72418355282477       -3.82932859555081        0.73212289776722
H           -4.38347136026249       -3.74367518218346       -0.90937308177990
C           -6.05503988013567       -3.36317932762690        2.01929978157099
H           -6.38129457960951       -4.56116736382939        0.28635672482726
O           -5.45504629060084       -1.91426067915293        3.83908831683056
O           -7.86779206115489       -4.71771615347770        1.99456829654380
O           -7.53946309307535       -3.50563597121394        3.74710740072908
14
 energy: -30.233445658073 gnorm: 0.003691688772 xtb: 6.7.1 (edcfbbe)
C           -4.07890237968333       -1.94845855925234        1.93428399466244
C           -3.79227730050934       -2.42057981104268        0.69479116242634
N           -7.18331911335464       -3.87075404101888        2.61255651168323
C           -5.22817125241135       -2.37937203756948        2.69367983074891
H           -3.45195567786379       -1.21579218614559        2.42101608451864
C           -4.62039522392273       -3.37679117559636        0.07275939394012
H           -2.91771647746984       -2.06160919993127        0.17257738761506
C           -5.72230399930190       -3.82872432068946        0.73084429079506
H           -4.38115718750747       -3.74317401477688       -0.91158520629102
C           -6.05529409115367       -3.36290888501806        2.02103021728551
H           -6.38438470400597       -4.56069905050501        0.29196841434578
O           -5.45459549434211       -1.91550545568714        3.83717851889663
O           -7.87045921681594       -4.71855328086052        1.99482843012341
O           -7.54386588165791       -3.50755598190630        3.74700396924988
14
 energy: -30.233451224881 gnorm: 0.001439041824 xtb: 6.7.1 (edcfbbe)
C           -4.07896730273860       -1.94850885921040        1.93472320676982
C           -3.79185092530285       -2.42036680524760        0.69516086909180
N           -7.18515643602985       -3.86786728949232        2.61168410759145
C           -5.22809379756083       -2.37958666525894        2.69330635947302
H           -3.45156754907227       -1.21581568824534        2.42109370392991
C           -4.61993519384109       -3.37678156866509        0.07263178054877
H           -2.91713422518798       -2.06153119801840        0.17280823587632
C           -5.72211932058361       -3.82900529626091        0.73000842002785
H           -4.37979565354061       -3.74226611689722       -0.91189520115705
C           -6.05583037048178       -3.36238920381715        2.02054783584509
H           -6.38517092036396       -4.56064624426164        0.29212042368717
O           -5.45516974731097       -1.91681877441068        3.83482321424045
O           -7.87066465903534       -4.72046770441560        1.99729697646869
O           -7.54334189895026       -3.50842658579871        3.74862306760671
14
 energy: -30.233449504967 gnorm: 0.002033643255 xtb: 6.7.1 (edcfbbe)
C           -4.07929822755048       -1.94826169845269        1.93492823145430
C           -3.79195806395964       -2.41983989960645        0.69525393608933
N           -7.18241119741633       -3.87139323606052        2.61440161481217
C           -5.22816052001895       -2.38001830396330        2.69280126531904
H           -3.45164516609450       -1.21543134212532        2.42078082965593
C           -4.62004823259714       -3.37635771268291        0.07284359252583
H           -2.91737377432331       -2.06076872411068        0.17275794472366
C           -5.72232122329229       -3.82957673351352        0.72954715237575
H           -4.37893530249136       -3.74157506479132       -0.91163450666163
C           -6.05505457138945       -3.36361003536137        2.02064541450169
H           -6.38477956447750       -4.56157183161517        0.29161764581493
O           -5.45535308973293       -1.91866997398000        3.83371553373950
O           -7.87311744134814       -4.71788764515536        1.99708138034455
O           -7.54434162530799       -3.50551579858139        3.74819296530494
14
 energy: -30.233454662290 gnorm: 0.000582647394 xtb: 6.7.1 (edcfbbe)
C           -4.07916286966894       -1.94832402757375        1.93485036688537
C           -3.79201937544151       -2.42008209934338        0.69522921636416
N           -7.18329277575698       -3.87018748225742        2.61346178916930
C           -5.22818698400644       -2.37988385964191        2.69300181542950
H           -3.45156672396173       -1.21557055887187        2.42080340797615
C           -4.62017454476187       -3.37650010767432        0.07299242628910
H           -2.91744259622194       -2.06113319578825        0.17277457065581
C           -5.72246477294867       -3.82947099831194        0.72980286323688
H           -4.37939196213866       -3.74183064407590       -0.91151637807051
C           -6.05528448306793       -3.36322431686819        2.02049033783032
H           -6.38474967926293       -4.56134833560691        0.29139591619874
O           -5.45545565142084       -1.91799332836653        3.83449452717803
O           -7.87190173117230       -4.71862866872020        1.99695483160562
O           -7.54370385016926       -3.50630037689944        3.74819730925152
14
 energy: -30.233455136718 gnorm: 0.000299032664 xtb: 6.7.1 (edcfbbe)
C           -4.07902630841354       -1.94832472487633        1.93486057683916
C           -3.79201701139907       -2.42020623704995        0.69525434282090
N           -7.18407328341467       -3.86904685903095        2.61271316478248
C           -5.22811111703597       -2.37975856176442        2.69319440853606
H           -3.45135959250950       -1.21559304477396        2.42075783668637
C           -4.62019558392331       -3.37661335703756        0.07302986008515
H           -2.91746230470677       -2.06140410324375        0.17271488577307
C           -5.72249850264084       -3.82943292699622        0.72986834069729
H           -4.37943895252751       -3.74184348444249       -0.91153623093546
C           -6.05549310845111       -3.36289283357871        2.02039335797475
H           -6.38489091716367       -4.56118249113991        0.29138640497845
O           -5.45560159804002       -1.91779295191902        3.83477341423497
O           -7.87116157847746       -4.71943277108041        1.99717097976121
O           -7.54346814129654       -3.50695365306631        3.74835165776560
