 Entering Gaussian System
 *********************************************
 Gaussian 98:
 frequency output generated by the xtb code
 *********************************************
                         Standard orientation:
 --------------------------------------------------------------------
  Center     Atomic     Atomic              Coordinates (Angstroms)
  Number     Number      Type              X           Y           Z
 --------------------------------------------------------------------
    1          6             0       -3.137580    2.374566   -0.000003
    2          8             0       -3.331608    3.587456    0.000007
    3          8             0       -2.090515    1.732371   -0.000002
    4          1             0       -4.112894    1.721878   -0.000015
 --------------------------------------------------------------------
     1 basis functions        1 primitive gaussians
     1 alpha electrons        1 beta electrons
 
 Harmonic frequencies (cm**-1), IR intensities (km*mol⁻¹),
 Raman scattering activities (A**4/amu), Raman depolarization ratios,
 reduced masses (AMU), force constants (mDyne/A) and normal coordinates:
                      1                      2                      3
                        a                      a                      a 
 Frequencies --   686.9006               937.2500              1213.9784
 Red. masses --    14.3238                 7.0161                14.1451
 Frc consts  --     0.0000                 0.0000                 0.0000
 IR Inten    --   171.4408                94.5075               758.7130
 Raman Activ --     0.0000                 0.0000                 0.0000
 Depolar     --     0.0000                 0.0000                 0.0000
 Atom AN      X      Y      Z        X      Y      Z        X      Y      Z
   1   6    -0.52  -0.35  -0.00     0.00   0.00  -0.66     0.48   0.32   0.00
   2   8     0.50  -0.23   0.00    -0.00  -0.00   0.20     0.09  -0.55  -0.00
   3   8    -0.03   0.55   0.00    -0.00  -0.00   0.20    -0.47   0.30  -0.00
   4   1    -0.07  -0.05  -0.00    -0.00  -0.00   0.69    -0.15  -0.10  -0.00
                      4                      5                      6
                        a                      a                      a 
 Frequencies --  1459.5681              1775.3491              2003.2929
 Red. masses --     2.1420                13.1761                 1.9490
 Frc consts  --     0.0000                 0.0000                 0.0000
 IR Inten    --    51.7851              1119.5539              1023.1062
 Raman Activ --     0.0000                 0.0000                 0.0000
 Depolar     --     0.0000                 0.0000                 0.0000
 Atom AN      X      Y      Z        X      Y      Z        X      Y      Z
   1   6     0.04  -0.06  -0.00    -0.46   0.69   0.00    -0.02  -0.01  -0.00
   2   8    -0.09  -0.17  -0.00     0.07  -0.38  -0.00    -0.02  -0.18  -0.00
   3   8     0.19   0.02   0.00     0.33  -0.21   0.00    -0.17   0.05  -0.00
   4   1    -0.53   0.80   0.00     0.03  -0.05  -0.00     0.80   0.54   0.00
