4
 energy: -11.107832777208 gnorm: 0.000293722235 xtb: 6.7.1 (edcfbbe)
C           -3.13757985247886        2.37456600485956       -0.00000291113213
O           -3.33160765529960        3.58745609736861        0.00000675707457
O           -2.09051501504818        1.73237052611600       -0.00000212709360
H           -4.11289323652204        1.72187777180482       -0.00001491747008
