4
 energy: -11.105335136494 gnorm: 0.062889374135 xtb: 6.7.1 (edcfbbe)
C           -3.16079519796804        2.35885132827168       -0.00001013903536
O           -3.33644156581216        3.60894918440611        0.00000210189188
O           -2.07246379360998        1.71978390347331       -0.00000582994533
H           -4.10294450513803        1.72861963039847       -0.00002713303231
4
 energy: -11.107362089420 gnorm: 0.023211435830 xtb: 6.7.1 (edcfbbe)
C           -3.15499413806254        2.36280195406662       -0.00001003279960
O           -3.33030186330928        3.59013630605796        0.00000192361442
O           -2.08745044999843        1.73260408556888       -0.00000587501417
H           -4.09989861115796        1.73066170085613       -0.00002701592176
4
 energy: -11.107682355013 gnorm: 0.009497329224 xtb: 6.7.1 (edcfbbe)
C           -3.14827931120290        2.36737006855978       -0.00000991078443
O           -3.32865191822970        3.58446935374928        0.00000179858795
O           -2.09208704291098        1.73625604593068       -0.00000596148276
H           -4.10362679018463        1.72810857830984       -0.00002692644188
4
 energy: -11.107789459044 gnorm: 0.005173910161 xtb: 6.7.1 (edcfbbe)
C           -3.14307061340219        2.37089227169750       -0.00000981680673
O           -3.32960074957091        3.58503209483656        0.00000166288656
O           -2.09196775941596        1.73514683368686       -0.00000610478035
H           -4.10800594013914        1.72513284632866       -0.00002674142060
4
 energy: -11.107832247676 gnorm: 0.000663538681 xtb: 6.7.1 (edcfbbe)
C           -3.13846274325761        2.37398354593648       -0.00000973414446
O           -3.33126418057494        3.58698553220983        0.00000150470292
O           -2.09081921944909        1.73285985603382       -0.00000628108743
H           -4.11209891924656        1.72237511236946       -0.00002648959216
4
 energy: -11.107832777207 gnorm: 0.000293676259 xtb: 6.7.1 (edcfbbe)
C           -3.13759228560510        2.37454957651790       -0.00000971902448
O           -3.33162643913342        3.58743865306559        0.00000138876603
O           -2.09052408567023        1.73235958019504       -0.00000640086143
H           -4.11290225211946        1.72185623677106       -0.00002626900125
