 Entering Gaussian System
 *********************************************
 Gaussian 98:
 frequency output generated by the xtb code
 *********************************************
                         Standard orientation:
 --------------------------------------------------------------------
  Center     Atomic     Atomic              Coordinates (Angstroms)
  Number     Number      Type              X           Y           Z
 --------------------------------------------------------------------
    1          6             0       -3.802462   -3.337280    0.364695
    2          6             0       -5.267215   -3.643878    0.805201
    3          6             0       -5.548069   -5.117504    0.377237
    4          8             0       -5.471545   -3.434475    2.074817
    5          9             0       -2.879650   -4.097110    0.973858
    6          9             0       -3.577304   -3.484615   -0.962455
    7          9             0       -3.476437   -2.063627    0.635747
    8          9             0       -4.758425   -6.019888    0.979164
    9          9             0       -5.416340   -5.346448   -0.950904
   10          9             0       -6.809663   -5.470320    0.669751
   11          1             0       -5.896302   -3.031971    0.095356
 --------------------------------------------------------------------
     1 basis functions        1 primitive gaussians
     1 alpha electrons        1 beta electrons
 
 Harmonic frequencies (cm**-1), IR intensities (km*mol⁻¹),
 Raman scattering activities (A**4/amu), Raman depolarization ratios,
 reduced masses (AMU), force constants (mDyne/A) and normal coordinates:
                      1                      2                      3
                        a                      a                      a 
 Frequencies --    14.1477                70.9690               128.9359
 Red. masses --    18.9153                17.5980                18.2134
 Frc consts  --     0.0000                 0.0000                 0.0000
 IR Inten    --     0.0734                 5.9492                 0.2663
 Raman Activ --     0.0000                 0.0000                 0.0000
 Depolar     --     0.0000                 0.0000                 0.0000
 Atom AN      X      Y      Z        X      Y      Z        X      Y      Z
   1   6    -0.03   0.02  -0.06     0.00  -0.02   0.01    -0.11  -0.05   0.03
   2   6    -0.00  -0.01   0.00    -0.07   0.07  -0.16    -0.11   0.11   0.16
   3   6     0.02  -0.03   0.06     0.02  -0.00   0.01     0.05   0.11   0.03
   4   8     0.03   0.03   0.00    -0.34   0.33  -0.28    -0.09   0.09   0.18
   5   9    -0.00  -0.20  -0.41    -0.14  -0.30  -0.11    -0.23  -0.20   0.01
   6   9    -0.21   0.39  -0.15     0.05   0.21  -0.01    -0.38  -0.31   0.02
   7   9     0.07  -0.07   0.24     0.19  -0.15   0.32     0.22  -0.11  -0.20
   8   9    -0.20  -0.00   0.41     0.29   0.14  -0.10     0.20   0.23   0.01
   9   9     0.40  -0.20   0.14    -0.21  -0.06  -0.01     0.30   0.38   0.02
  10   9    -0.08   0.07  -0.24     0.16  -0.18   0.31     0.12  -0.22  -0.20
  11   1    -0.01  -0.01   0.00     0.01  -0.01  -0.11    -0.03   0.03   0.05
                      4                      5                      6
                        a                      a                      a 
 Frequencies --   194.7608               198.7673               247.7170
 Red. masses --    17.5417                17.5530                18.2409
 Frc consts  --     0.0000                 0.0000                 0.0000
 IR Inten    --    22.1912                19.6331                 3.0864
 Raman Activ --     0.0000                 0.0000                 0.0000
 Depolar     --     0.0000                 0.0000                 0.0000
 Atom AN      X      Y      Z        X      Y      Z        X      Y      Z
   1   6    -0.08   0.05  -0.07    -0.09  -0.04  -0.14     0.09  -0.19   0.01
   2   6    -0.06   0.06  -0.09    -0.04  -0.02  -0.01    -0.02  -0.02   0.00
   3   6    -0.04   0.11  -0.11    -0.05  -0.06   0.11    -0.19   0.09  -0.01
   4   8     0.30  -0.42   0.08     0.46   0.35   0.01    -0.00   0.00  -0.00
   5   9    -0.42  -0.13   0.12    -0.33  -0.13   0.04     0.49   0.04  -0.19
   6   9     0.18   0.07  -0.05     0.38   0.11  -0.12     0.15  -0.13   0.00
   7   9     0.04   0.00   0.00    -0.29  -0.05   0.02    -0.30  -0.16   0.15
   8   9     0.16   0.51   0.13    -0.08  -0.18  -0.00     0.03   0.49   0.18
   9   9    -0.09  -0.30  -0.08     0.08   0.31   0.10    -0.13   0.15  -0.00
  10   9     0.01   0.05   0.01    -0.04  -0.29  -0.02    -0.16  -0.30  -0.14
  11   1    -0.06   0.07   0.07    -0.06  -0.04   0.01     0.06   0.06  -0.00
                      7                      8                      9
                        a                      a                      a 
 Frequencies --   297.7003               321.3711               421.6593
 Red. masses --    18.4872                17.5686                17.3969
 Frc consts  --     0.0000                 0.0000                 0.0000
 IR Inten    --     3.8987                 2.1793                13.7585
 Raman Activ --     0.0000                 0.0000                 0.0000
 Depolar     --     0.0000                 0.0000                 0.0000
 Atom AN      X      Y      Z        X      Y      Z        X      Y      Z
   1   6    -0.07  -0.15  -0.01    -0.02  -0.01   0.10     0.01  -0.03  -0.08
   2   6     0.05  -0.05  -0.06     0.08   0.09  -0.00     0.09  -0.09  -0.31
   3   6     0.15   0.08  -0.01    -0.01  -0.02  -0.10     0.03  -0.01  -0.08
   4   8    -0.00   0.00  -0.06     0.44   0.45  -0.00     0.18  -0.18  -0.34
   5   9    -0.04  -0.19  -0.09     0.04   0.09   0.16    -0.02   0.24   0.26
   6   9    -0.06  -0.22  -0.00    -0.40  -0.12   0.12    -0.32  -0.05  -0.15
   7   9    -0.56  -0.16   0.15    -0.03  -0.04   0.24     0.09  -0.15   0.23
   8   9     0.19   0.04  -0.09     0.09   0.04  -0.16    -0.23   0.01   0.27
   9   9     0.22   0.07  -0.00    -0.11  -0.41  -0.11     0.04   0.32  -0.15
  10   9     0.15   0.57   0.15    -0.04  -0.03  -0.24     0.16  -0.09   0.23
  11   1     0.02  -0.02  -0.03     0.02   0.02  -0.00     0.02  -0.02  -0.09
                     10                     11                     12
                        a                      a                      a 
 Frequencies --   461.0173               465.1495               478.6961
 Red. masses --    17.8981                18.2092                17.7847
 Frc consts  --     0.0000                 0.0000                 0.0000
 IR Inten    --    41.3211                21.1974                 6.0513
 Raman Activ --     0.0000                 0.0000                 0.0000
 Depolar     --     0.0000                 0.0000                 0.0000
 Atom AN      X      Y      Z        X      Y      Z        X      Y      Z
   1   6     0.10  -0.15   0.07    -0.02   0.22   0.04    -0.12   0.05  -0.18
   2   6     0.17  -0.16   0.00     0.07   0.08   0.00    -0.11  -0.12   0.00
   3   6     0.15  -0.09   0.07     0.22  -0.01  -0.05     0.05  -0.11   0.19
   4   8    -0.02   0.02  -0.06     0.01   0.01   0.00    -0.05  -0.05  -0.00
   5   9     0.04  -0.22   0.29    -0.12  -0.11  -0.35    -0.10   0.37  -0.04
   6   9    -0.14   0.37   0.01     0.09  -0.35   0.19     0.09  -0.20  -0.26
   7   9    -0.13  -0.07  -0.32    -0.05   0.33   0.17     0.20  -0.16   0.31
   8   9     0.22  -0.03   0.29    -0.10  -0.13   0.34     0.38  -0.09   0.04
   9   9    -0.39   0.14   0.01    -0.35   0.07  -0.18    -0.20   0.09   0.26
  10   9     0.07   0.13  -0.33     0.32  -0.04  -0.17    -0.17   0.19  -0.30
  11   1     0.07  -0.07  -0.04    -0.02  -0.02   0.00    -0.09  -0.09   0.00
                     13                     14                     15
                        a                      a                      a 
 Frequencies --   548.3404               608.6268               660.1573
 Red. masses --    16.8974                16.3858                17.1837
 Frc consts  --     0.0000                 0.0000                 0.0000
 IR Inten    --     1.8556                84.5604                16.5653
 Raman Activ --     0.0000                 0.0000                 0.0000
 Depolar     --     0.0000                 0.0000                 0.0000
 Atom AN      X      Y      Z        X      Y      Z        X      Y      Z
   1   6    -0.09  -0.14  -0.12     0.27   0.05  -0.12     0.24   0.08  -0.10
   2   6    -0.12   0.12   0.28     0.22   0.23  -0.00     0.12  -0.11   0.22
   3   6     0.14   0.09  -0.12     0.04   0.27   0.12    -0.08  -0.24  -0.09
   4   8    -0.16   0.16   0.33    -0.12  -0.13   0.00    -0.11   0.11   0.14
   5   9     0.03   0.21   0.10    -0.02  -0.16   0.21    -0.02  -0.17   0.17
   6   9     0.13   0.09  -0.30    -0.09  -0.09  -0.41    -0.04  -0.11  -0.40
   7   9    -0.02  -0.38   0.02    -0.15   0.17   0.16    -0.03   0.33   0.15
   8   9    -0.20  -0.04   0.11    -0.17  -0.03  -0.21     0.18   0.02   0.16
   9   9    -0.09  -0.13  -0.30    -0.08  -0.09   0.41     0.10   0.04  -0.40
  10   9     0.38   0.03   0.01     0.17  -0.15  -0.16    -0.32   0.02   0.16
  11   1    -0.05   0.04   0.11     0.12   0.12  -0.00     0.04  -0.04   0.04
                     16                     17                     18
                        a                      a                      a 
 Frequencies --   771.3724               800.6880               992.4036
 Red. masses --    13.7176                13.6484                13.3590
 Frc consts  --     0.0000                 0.0000                 0.0000
 IR Inten    --    95.8427                63.7539                 8.0272
 Raman Activ --     0.0000                 0.0000                 0.0000
 Depolar     --     0.0000                 0.0000                 0.0000
 Atom AN      X      Y      Z        X      Y      Z        X      Y      Z
   1   6     0.02   0.00  -0.02    -0.01   0.04  -0.02     0.01  -0.08   0.59
   2   6    -0.54   0.53  -0.14    -0.48  -0.49   0.00    -0.09  -0.10   0.00
   3   6    -0.00  -0.02  -0.02     0.04  -0.01   0.02    -0.08   0.00  -0.60
   4   8     0.12  -0.12  -0.07     0.09   0.09  -0.00     0.04   0.05  -0.00
   5   9     0.29  -0.19   0.15     0.22  -0.20   0.14    -0.10   0.07  -0.10
   6   9    -0.03   0.01  -0.05    -0.02  -0.03  -0.12     0.05  -0.02  -0.29
   7   9    -0.04   0.06   0.01     0.08   0.27   0.04     0.02   0.03  -0.03
   8   9     0.20  -0.29   0.15    -0.20   0.21  -0.14     0.08  -0.10   0.10
   9   9    -0.01   0.03  -0.05    -0.03  -0.02   0.12    -0.02   0.06   0.30
  10   9    -0.06   0.04   0.01     0.26   0.09  -0.04     0.03   0.02   0.03
  11   1    -0.16   0.16   0.03    -0.23  -0.24   0.00     0.12   0.12  -0.00
                     19                     20                     21
                        a                      a                      a 
 Frequencies --  1008.6279              1019.6812              1067.1965
 Red. masses --    13.4802                13.3832                13.4491
 Frc consts  --     0.0000                 0.0000                 0.0000
 IR Inten    --   266.3692               630.3906               443.2815
 Raman Activ --     0.0000                 0.0000                 0.0000
 Depolar     --     0.0000                 0.0000                 0.0000
 Atom AN      X      Y      Z        X      Y      Z        X      Y      Z
   1   6    -0.09   0.54   0.14     0.02   0.09   0.61    -0.12   0.60  -0.08
   2   6     0.08   0.08  -0.00    -0.05   0.04  -0.13     0.13  -0.13  -0.03
   3   6     0.54  -0.08  -0.14    -0.09  -0.02   0.60    -0.60   0.11  -0.07
   4   8    -0.01  -0.01   0.00     0.04  -0.04  -0.01    -0.03   0.03   0.02
   5   9     0.13  -0.12   0.07    -0.05   0.04  -0.07     0.13  -0.14   0.09
   6   9     0.02  -0.03  -0.09     0.05  -0.03  -0.29     0.00  -0.03   0.01
   7   9    -0.08  -0.30  -0.06    -0.01  -0.06  -0.05    -0.05  -0.24  -0.04
   8   9    -0.12   0.13  -0.07    -0.04   0.04  -0.07     0.14  -0.13   0.09
   9   9    -0.03   0.02   0.08     0.03  -0.05  -0.29     0.03  -0.00   0.01
  10   9    -0.30  -0.09   0.07     0.07   0.02  -0.05     0.23   0.05  -0.05
  11   1    -0.16  -0.16   0.00     0.03  -0.03  -0.09    -0.02   0.02   0.06
                     22                     23                     24
                        a                      a                      a 
 Frequencies --  1136.1131              1158.1965              1212.7474
 Red. masses --    13.2264                13.5712                13.5536
 Frc consts  --     0.0000                 0.0000                 0.0000
 IR Inten    --   163.4104                80.2925               544.9036
 Raman Activ --     0.0000                 0.0000                 0.0000
 Depolar     --     0.0000                 0.0000                 0.0000
 Atom AN      X      Y      Z        X      Y      Z        X      Y      Z
   1   6    -0.58  -0.10   0.00     0.58   0.13  -0.03    -0.06   0.04   0.03
   2   6     0.23   0.24  -0.00    -0.15   0.15   0.05    -0.07   0.07   0.75
   3   6    -0.09  -0.57   0.00    -0.12  -0.59  -0.03    -0.04   0.06   0.03
   4   8    -0.02  -0.02   0.00     0.01  -0.01   0.00     0.11  -0.11  -0.62
   5   9     0.18  -0.11   0.09    -0.17   0.11  -0.09    -0.02   0.00  -0.01
   6   9     0.06  -0.00  -0.11    -0.06   0.01   0.12     0.02  -0.00  -0.02
   7   9     0.07   0.16   0.03    -0.09  -0.20  -0.03    -0.01  -0.03  -0.01
   8   9    -0.11   0.17  -0.09    -0.11   0.17  -0.08    -0.00   0.02  -0.01
   9   9    -0.00   0.06   0.11    -0.00   0.06   0.12     0.00  -0.02  -0.02
  10   9     0.16   0.07  -0.04     0.19   0.10  -0.04     0.03   0.01  -0.01
  11   1     0.08   0.08  -0.00    -0.03   0.04   0.04     0.05  -0.05  -0.07
                     25                     26                     27
                        a                      a                      a 
 Frequencies --  1222.3674              1290.7611              2518.4984
 Red. masses --     4.2083                 2.7282                 1.5646
 Frc consts  --     0.0000                 0.0000                 0.0000
 IR Inten    --     1.7324                20.0499               310.8944
 Raman Activ --     0.0000                 0.0000                 0.0000
 Depolar     --     0.0000                 0.0000                 0.0000
 Atom AN      X      Y      Z        X      Y      Z        X      Y      Z
   1   6     0.07  -0.21   0.12    -0.01   0.05  -0.08    -0.02   0.01  -0.01
   2   6     0.27   0.27  -0.00    -0.14   0.14   0.04    -0.14   0.13  -0.10
   3   6    -0.21   0.06  -0.11    -0.06   0.01  -0.08    -0.01   0.02  -0.01
   4   8    -0.04  -0.04   0.00     0.06  -0.06   0.25     0.00  -0.00  -0.05
   5   9    -0.01   0.03  -0.02     0.00  -0.01   0.01    -0.00  -0.00   0.00
   6   9     0.00   0.01  -0.03     0.00   0.00   0.01    -0.00  -0.00   0.00
   7   9    -0.01   0.04   0.01    -0.00  -0.01   0.00     0.00  -0.00   0.00
   8   9     0.03  -0.00   0.02     0.01   0.00   0.01     0.00   0.00   0.00
   9   9     0.01   0.00   0.03    -0.00  -0.00   0.01     0.00   0.00   0.00
  10   9     0.04  -0.00  -0.01     0.01   0.01   0.00     0.00  -0.00   0.00
  11   1    -0.59  -0.60   0.01     0.37  -0.37  -0.77     0.57  -0.55   0.57
