11
 energy: -39.722923604731 gnorm: 0.000434238103 xtb: 6.7.1 (edcfbbe)
C           -3.80246134174987       -3.33727994423745        0.36469451827109
C           -5.26721457642053       -3.64387741767275        0.80520109364710
C           -5.54806874600226       -5.11750365568894        0.37723728916395
O           -5.47154410448703       -3.43447459159376        2.07481675705621
F           -2.87965010752940       -4.09710915606859        0.97385759324558
F           -3.57730366981692       -3.48461469455547       -0.96245499762042
F           -3.47643694677157       -2.06362709470304        0.63574738589912
F           -4.75842434185580       -6.01988707634070        0.97916373544260
F           -5.41633994980358       -5.34644777631847       -0.95090350003339
F           -6.80966231861264       -5.47031966627403        0.66975105870902
H           -5.89630109278110       -3.03197109029062        0.09535635568863
