11
 energy: -39.717860372317 gnorm: 0.074199916764 xtb: 6.7.1 (edcfbbe)
C           -3.76021684943202       -3.32497824757424        0.35694142497257
C           -5.25601985160694       -3.65507066297818        0.78356747444959
C           -5.55963611335423       -5.15998888080170        0.36964821218506
O           -5.45516776887801       -3.45055927601962        2.04129361694429
F           -2.88698647457853       -4.09147825365329        0.98531255447255
F           -3.59016537840483       -3.48169602674809       -0.95421236114473
F           -3.50330510495101       -2.05828363312899        0.64744460862051
F           -4.76325220005537       -6.01297454907643        0.98880589326793
F           -5.42096181725681       -5.33264374325173       -0.94323591260303
F           -6.81513848993469       -5.44390917512449        0.68237089377904
H           -5.89233895154754       -3.03581555164323        0.10426759505622
11
 energy: -39.722077705173 gnorm: 0.032328445447 xtb: 6.7.1 (edcfbbe)
C           -3.78520994365500       -3.33511732961429        0.35736152286188
C           -5.26783161439457       -3.64328664054659        0.80729565925823
C           -5.54999016514623       -5.13478235242454        0.36983941307867
O           -5.47077657229160       -3.43519069477571        2.07470404769233
F           -2.88388589842832       -4.09506900152338        0.97730570123915
F           -3.57813476082363       -3.48618969328319       -0.96188480322522
F           -3.48662823537417       -2.06375579078823        0.63507884279360
F           -4.75972644320728       -6.01593262785689        0.98100357702358
F           -5.41616664216792       -5.34477566915183       -0.95082617153972
F           -6.80944205332280       -5.46041662604548        0.67001312038517
H           -5.89539667118846       -3.03288157398986        0.10231309043234
11
 energy: -39.722886595317 gnorm: 0.004487821892 xtb: 6.7.1 (edcfbbe)
C           -3.79964724053366       -3.33544650172330        0.36386516512174
C           -5.27037679610870       -3.64076833226853        0.80886625162929
C           -5.54994341488971       -5.12029647172318        0.37624370976374
O           -5.47201854240265       -3.43406348308589        2.07751325240596
F           -2.87692730544565       -4.09342510003174        0.97379049340904
F           -3.57444738250962       -3.48377400945065       -0.96123153227070
F           -3.47097152550525       -2.06036297163819        0.63203450946885
F           -4.76140678746687       -6.02263596472473        0.97795478172015
F           -5.41825086983788       -5.34876517880318       -0.95006624230940
F           -6.81263558704077       -5.47619106288835        0.66687030683753
H           -5.89656354825923       -3.03166892366226        0.09636330422382
11
 energy: -39.722913098315 gnorm: 0.002833403157 xtb: 6.7.1 (edcfbbe)
C           -3.80179643291407       -3.33738189996287        0.36415446275568
C           -5.26945931167232       -3.64167437182774        0.80792532481267
C           -5.54801560896344       -5.11813830106701        0.37655552634358
O           -5.47202738428612       -3.43407097406816        2.07635892805893
F           -2.87866643421344       -4.09593142915213        0.97407314119588
F           -3.57682985933010       -3.48562245857115       -0.96195073515288
F           -3.47402608169454       -2.06249686640154        0.63321401122883
F           -4.75907046991472       -6.02089512726816        0.97846670014363
F           -5.41620924697376       -5.34647216844661       -0.95071599151925
F           -6.81058223595087       -5.47302841398947        0.66784642938244
H           -5.89650593408659       -3.03168598924516        0.09627620275049
11
 energy: -39.722922087231 gnorm: 0.001408244403 xtb: 6.7.1 (edcfbbe)
C           -3.80235466668519       -3.33723093973048        0.36449560901780
C           -5.26727141812615       -3.64382511117991        0.80630883491319
C           -5.54814206119778       -5.11759851932687        0.37695760167247
O           -5.47130708656676       -3.43476650474950        2.07504516898009
F           -2.87910099033544       -4.09618408546657        0.97426435912638
F           -3.57745266645960       -3.48517940558721       -0.96240280922092
F           -3.47641454917692       -2.06280915320976        0.63475588434454
F           -4.75906225350408       -6.02046275128524        0.97908858348884
F           -5.41624395440444       -5.34605699429299       -0.95102633359198
F           -6.81038223813230       -5.47050783214171        0.66907684928717
H           -5.89545711541131       -3.03277670302975        0.09564025198242
11
 energy: -39.722923604725 gnorm: 0.000433978398 xtb: 6.7.1 (edcfbbe)
C           -3.80244514074168       -3.33730049031650        0.36467542054823
C           -5.26719830770074       -3.64390640199721        0.80517634784623
C           -5.54804326751248       -5.11753336360049        0.37720899106173
O           -5.47153336398854       -3.43450686168443        2.07479166347225
F           -2.87963205446330       -4.09712593350350        0.97384039060714
F           -3.57728206474449       -3.48463174539796       -0.96247356652753
F           -3.47642836075356       -2.06364640682022        0.63573164913730
F           -4.75839623963278       -6.01991370023472        0.97913661878228
F           -5.41630863648185       -5.34647447645401       -0.95093173788274
F           -6.80963601382324       -5.47035649039386        0.66971774102706
H           -5.89628555015732       -3.03200212959708        0.09533048192805
