 Entering Gaussian System
 *********************************************
 Gaussian 98:
 frequency output generated by the xtb code
 *********************************************
                         Standard orientation:
 --------------------------------------------------------------------
  Center     Atomic     Atomic              Coordinates (Angstroms)
  Number     Number      Type              X           Y           Z
 --------------------------------------------------------------------
    1          6             0       -2.086598   -2.839071    1.548058
    2          6             0       -2.514337   -2.181786    0.414985
    3          6             0       -3.704141   -2.518967   -0.201977
    4          6             0       -4.460523   -3.553216    0.364537
    5          6             0       -4.050744   -4.228643    1.503955
    6          6             0       -2.829802   -3.899050    2.157802
    7          8             0       -2.428845   -4.498519    3.202351
    8          1             0       -1.153507   -2.565503    2.020787
    9          1             0       -1.908731   -1.388791    0.001623
   10          1             0       -4.060048   -2.020205   -1.087480
   11          7             0       -5.674600   -3.914543   -0.246401
   12          1             0       -4.663081   -5.020617    1.909345
   13          8             0       -6.041104   -3.317879   -1.259373
   14          8             0       -6.353842   -4.819750    0.238039
 --------------------------------------------------------------------
     1 basis functions        1 primitive gaussians
     1 alpha electrons        1 beta electrons
 
 Harmonic frequencies (cm**-1), IR intensities (km*mol⁻¹),
 Raman scattering activities (A**4/amu), Raman depolarization ratios,
 reduced masses (AMU), force constants (mDyne/A) and normal coordinates:
                      1                      2                      3
                        a                      a                      a 
 Frequencies --    49.5852               142.9813               187.6073
 Red. masses --    15.2724                11.6544                11.3294
 Frc consts  --     0.0000                 0.0000                 0.0000
 IR Inten    --     2.8423                 8.6244                 6.9194
 Raman Activ --     0.0000                 0.0000                 0.0000
 Depolar     --     0.0000                 0.0000                 0.0000
 Atom AN      X      Y      Z        X      Y      Z        X      Y      Z
   1   6     0.05  -0.06  -0.05    -0.16   0.22   0.19     0.21  -0.29  -0.25
   2   6     0.11  -0.15  -0.13    -0.05   0.07   0.06    -0.00   0.00  -0.00
   3   6     0.08  -0.11  -0.09     0.15  -0.21  -0.18    -0.21   0.29   0.25
   4   6     0.01  -0.02  -0.02     0.21  -0.29  -0.25     0.01  -0.01  -0.00
   5   6    -0.04   0.05   0.04     0.25  -0.35  -0.30     0.20  -0.28  -0.23
   6   6    -0.04   0.06   0.05     0.02  -0.03  -0.03     0.06  -0.08  -0.07
   7   8    -0.13   0.18   0.16    -0.09   0.12   0.10    -0.24   0.35   0.29
   8   1     0.02  -0.02  -0.02    -0.11   0.16   0.13     0.10  -0.14  -0.12
   9   1     0.05  -0.07  -0.06    -0.05   0.06   0.05    -0.01   0.01   0.01
  10   1     0.04  -0.05  -0.05     0.05  -0.07  -0.06    -0.14   0.19   0.16
  11   7    -0.00   0.01   0.00     0.01  -0.02  -0.01    -0.00   0.00  -0.00
  12   1    -0.03   0.04   0.03     0.09  -0.13  -0.11     0.09  -0.13  -0.11
  13   8    -0.32   0.44   0.38    -0.14   0.19   0.16     0.02  -0.02  -0.02
  14   8     0.29  -0.40  -0.34    -0.15   0.21   0.18    -0.02   0.02   0.01
                      4                      5                      6
                        a                      a                      a 
 Frequencies --   211.8301               381.6007               382.4895
 Red. masses --    14.3980                 9.8813                13.5920
 Frc consts  --     0.0000                 0.0000                 0.0000
 IR Inten    --     9.7186                 2.2538                 0.5745
 Raman Activ --     0.0000                 0.0000                 0.0000
 Depolar     --     0.0000                 0.0000                 0.0000
 Atom AN      X      Y      Z        X      Y      Z        X      Y      Z
   1   6    -0.04   0.03  -0.06    -0.25   0.24   0.17    -0.27  -0.10  -0.25
   2   6    -0.14  -0.05  -0.06     0.20  -0.32  -0.32    -0.24   0.11  -0.16
   3   6    -0.16  -0.21   0.10    -0.10   0.10   0.05    -0.15  -0.01  -0.17
   4   6    -0.08  -0.22   0.18    -0.17   0.26   0.24     0.13  -0.06   0.04
   5   6     0.01  -0.16   0.20     0.13  -0.25  -0.18    -0.16  -0.08   0.08
   6   6     0.08   0.01   0.06    -0.11   0.08   0.07    -0.17  -0.10  -0.08
   7   8     0.40   0.22   0.07     0.01  -0.06  -0.06    -0.18  -0.04  -0.07
   8   1    -0.01   0.03  -0.03    -0.08   0.09   0.07    -0.07  -0.03  -0.08
   9   1    -0.07  -0.01  -0.05     0.15  -0.22  -0.20    -0.07   0.06  -0.00
  10   1    -0.08  -0.08   0.03    -0.04   0.02   0.02    -0.10  -0.04  -0.05
  11   7    -0.05  -0.00  -0.04    -0.03   0.13   0.14     0.27   0.01   0.15
  12   1     0.03  -0.05   0.08     0.12  -0.20  -0.17    -0.09   0.01   0.02
  13   8     0.33   0.27  -0.03     0.15  -0.03  -0.01     0.46   0.18   0.22
  14   8    -0.38   0.06  -0.39     0.10  -0.05  -0.01     0.29   0.06   0.21
                      7                      8                      9
                        a                      a                      a 
 Frequencies --   428.0539               492.4895               498.2405
 Red. masses --    13.8405                11.1565                12.6330
 Frc consts  --     0.0000                 0.0000                 0.0000
 IR Inten    --     5.1451                 8.8805                 4.8821
 Raman Activ --     0.0000                 0.0000                 0.0000
 Depolar     --     0.0000                 0.0000                 0.0000
 Atom AN      X      Y      Z        X      Y      Z        X      Y      Z
   1   6    -0.28  -0.23   0.03     0.03  -0.03  -0.03    -0.08  -0.04  -0.03
   2   6    -0.01  -0.06   0.07    -0.07   0.12   0.10    -0.31  -0.13  -0.10
   3   6     0.03   0.05  -0.03     0.16  -0.21  -0.16    -0.23   0.09  -0.32
   4   6     0.03   0.07  -0.06    -0.22   0.29   0.26     0.02   0.10  -0.07
   5   6    -0.21  -0.16   0.01     0.06  -0.12  -0.09     0.30   0.22  -0.02
   6   6    -0.20  -0.22   0.09     0.24  -0.34  -0.31     0.27  -0.11   0.32
   7   8     0.52   0.27   0.13    -0.10   0.16   0.10     0.06  -0.31   0.43
   8   1    -0.09  -0.11   0.05    -0.11   0.15   0.14    -0.00   0.11  -0.12
   9   1     0.04  -0.03   0.07    -0.08   0.11   0.10    -0.07  -0.04   0.00
  10   1     0.01   0.02  -0.01     0.08  -0.10  -0.08    -0.06   0.03  -0.09
  11   7     0.05   0.16  -0.15    -0.19   0.25   0.22     0.00   0.07  -0.05
  12   1    -0.12  -0.03  -0.07    -0.09   0.11   0.10     0.05   0.07  -0.03
  13   8    -0.26  -0.03  -0.18     0.08  -0.10  -0.08    -0.06   0.02  -0.09
  14   8     0.29   0.13   0.09     0.07  -0.11  -0.09     0.05   0.06  -0.04
                     10                     11                     12
                        a                      a                      a 
 Frequencies --   557.2645               623.2171               658.3433
 Red. masses --    12.8736                 8.5460                12.8005
 Frc consts  --     0.0000                 0.0000                 0.0000
 IR Inten    --     0.6882                 0.0146                40.8347
 Raman Activ --     0.0000                 0.0000                 0.0000
 Depolar     --     0.0000                 0.0000                 0.0000
 Atom AN      X      Y      Z        X      Y      Z        X      Y      Z
   1   6     0.15   0.14  -0.04     0.11  -0.15  -0.13     0.17  -0.07   0.23
   2   6    -0.10  -0.04  -0.05    -0.18   0.25   0.21    -0.24  -0.41   0.28
   3   6    -0.13  -0.29   0.23     0.17  -0.23  -0.19    -0.16  -0.10  -0.02
   4   6    -0.08  -0.21   0.18    -0.16   0.22   0.19    -0.25  -0.01  -0.20
   5   6     0.03  -0.14   0.19     0.10  -0.14  -0.12     0.01   0.20  -0.22
   6   6     0.11   0.11  -0.04    -0.22   0.31   0.26    -0.00   0.09  -0.10
   7   8    -0.19  -0.09  -0.05     0.04  -0.06  -0.05     0.07   0.19  -0.16
   8   1     0.05   0.07  -0.04     0.18  -0.25  -0.21     0.05  -0.00   0.05
   9   1    -0.10   0.00  -0.09     0.01  -0.02  -0.01    -0.09  -0.11   0.06
  10   1    -0.10  -0.12   0.06     0.12  -0.17  -0.14     0.07   0.06  -0.00
  11   7     0.05   0.22  -0.22    -0.00   0.01   0.01    -0.13  -0.05  -0.05
  12   1     0.10  -0.06   0.15     0.16  -0.22  -0.19     0.03   0.05  -0.04
  13   8    -0.24   0.07  -0.28    -0.00  -0.00   0.00     0.27   0.23  -0.04
  14   8     0.42   0.21   0.11     0.00  -0.00  -0.00     0.16  -0.11   0.26
                     13                     14                     15
                        a                      a                      a 
 Frequencies --   722.6336               774.4681               786.1936
 Red. masses --    11.6637                 5.9353                14.2624
 Frc consts  --     0.0000                 0.0000                 0.0000
 IR Inten    --    87.4019                 7.1330                40.0870
 Raman Activ --     0.0000                 0.0000                 0.0000
 Depolar     --     0.0000                 0.0000                 0.0000
 Atom AN      X      Y      Z        X      Y      Z        X      Y      Z
   1   6     0.06  -0.08  -0.07     0.07  -0.10  -0.08     0.06  -0.06   0.12
   2   6     0.01  -0.01  -0.01     0.06  -0.09  -0.07    -0.22  -0.31   0.18
   3   6     0.06  -0.08  -0.07     0.16  -0.22  -0.19    -0.12  -0.00  -0.09
   4   6     0.18  -0.24  -0.21    -0.15   0.21   0.18     0.17   0.05   0.08
   5   6     0.03  -0.04  -0.03    -0.00   0.00   0.00     0.05   0.02   0.01
   6   6    -0.18   0.24   0.21    -0.07   0.10   0.08    -0.02   0.08  -0.11
   7   8     0.05  -0.08  -0.06     0.02  -0.03  -0.03    -0.07   0.14  -0.23
   8   1    -0.04   0.05   0.04    -0.15   0.21   0.18     0.02  -0.00   0.02
   9   1    -0.07   0.10   0.08    -0.15   0.20   0.18    -0.05  -0.09   0.06
  10   1    -0.16   0.23   0.19    -0.30   0.41   0.35    -0.01  -0.00  -0.03
  11   7    -0.33   0.45   0.38     0.18  -0.24  -0.20     0.36   0.12   0.18
  12   1    -0.03   0.05   0.04     0.02  -0.03  -0.02     0.01   0.01   0.00
  13   8     0.09  -0.13  -0.11    -0.05   0.06   0.06    -0.18  -0.34   0.25
  14   8     0.10  -0.13  -0.11    -0.04   0.06   0.04    -0.02   0.30  -0.37
                     16                     17                     18
                        a                      a                      a 
 Frequencies --   800.8668               866.1602               909.6738
 Red. masses --     5.8319                 3.4093                 3.3535
 Frc consts  --     0.0000                 0.0000                 0.0000
 IR Inten    --    14.8327                 0.0771                 0.5949
 Raman Activ --     0.0000                 0.0000                 0.0000
 Depolar     --     0.0000                 0.0000                 0.0000
 Atom AN      X      Y      Z        X      Y      Z        X      Y      Z
   1   6     0.11  -0.15  -0.13     0.15  -0.21  -0.18     0.11  -0.15  -0.13
   2   6     0.01  -0.01  -0.01     0.07  -0.09  -0.08    -0.18   0.25   0.21
   3   6    -0.10   0.14   0.12    -0.10   0.13   0.11     0.03  -0.04  -0.04
   4   6    -0.04   0.06   0.05     0.02  -0.03  -0.03     0.03  -0.05  -0.04
   5   6     0.20  -0.27  -0.23    -0.11   0.15   0.13    -0.05   0.07   0.06
   6   6    -0.17   0.23   0.20    -0.04   0.05   0.05     0.02  -0.03  -0.02
   7   8     0.05  -0.07  -0.06     0.01  -0.01  -0.01    -0.00   0.00   0.00
   8   1    -0.15   0.20   0.18    -0.25   0.34   0.29    -0.21   0.29   0.25
   9   1     0.00  -0.00  -0.00    -0.15   0.21   0.18     0.36  -0.50  -0.42
  10   1     0.13  -0.18  -0.16     0.20  -0.27  -0.23    -0.08   0.11   0.09
  11   7     0.06  -0.09  -0.08    -0.03   0.04   0.03     0.00  -0.00  -0.00
  12   1    -0.30   0.42   0.36     0.24  -0.33  -0.29     0.05  -0.07  -0.06
  13   8    -0.01   0.02   0.01     0.00  -0.00  -0.00    -0.00   0.00   0.00
  14   8    -0.02   0.02   0.03     0.00  -0.01  -0.01    -0.00   0.00   0.00
                     19                     20                     21
                        a                      a                      a 
 Frequencies --   955.4821               974.8947              1109.0068
 Red. masses --    10.2925                11.0141                 4.5026
 Frc consts  --     0.0000                 0.0000                 0.0000
 IR Inten    --    11.3253                16.3444                 6.8077
 Raman Activ --     0.0000                 0.0000                 0.0000
 Depolar     --     0.0000                 0.0000                 0.0000
 Atom AN      X      Y      Z        X      Y      Z        X      Y      Z
   1   6     0.53   0.29   0.11     0.06  -0.04   0.10    -0.17   0.03  -0.19
   2   6    -0.03   0.01  -0.04    -0.05  -0.12   0.10    -0.08  -0.10   0.05
   3   6    -0.10   0.10  -0.20    -0.02   0.34  -0.41     0.20   0.07   0.10
   4   6    -0.05   0.05  -0.10     0.26   0.02   0.20    -0.24  -0.06  -0.14
   5   6    -0.45  -0.31  -0.03     0.00  -0.30   0.35    -0.14  -0.15   0.06
   6   6    -0.04  -0.08   0.05     0.07   0.10  -0.05     0.11   0.07   0.01
   7   8     0.09  -0.09   0.18    -0.10   0.07  -0.17    -0.00  -0.03   0.04
   8   1     0.16   0.14  -0.03     0.02  -0.00   0.02     0.01   0.31  -0.35
   9   1    -0.12   0.03  -0.14     0.14  -0.06   0.19     0.03  -0.04   0.08
  10   1    -0.00   0.05  -0.06    -0.00   0.09  -0.11     0.53   0.36   0.03
  11   7     0.06   0.01   0.04    -0.12  -0.03  -0.07     0.04   0.02   0.01
  12   1    -0.26  -0.06  -0.15     0.12  -0.10   0.22     0.13  -0.08   0.20
  13   8     0.03  -0.04   0.07    -0.04   0.15  -0.22     0.03  -0.07   0.10
  14   8     0.01   0.03  -0.02    -0.09  -0.17   0.13     0.04   0.07  -0.04
                     22                     23                     24
                        a                      a                      a 
 Frequencies --  1120.2149              1169.2763              1234.2386
 Red. masses --     6.9856                 2.4029                 4.9830
 Frc consts  --     0.0000                 0.0000                 0.0000
 IR Inten    --    10.1347                19.2906                17.3181
 Raman Activ --     0.0000                 0.0000                 0.0000
 Depolar     --     0.0000                 0.0000                 0.0000
 Atom AN      X      Y      Z        X      Y      Z        X      Y      Z
   1   6    -0.07   0.04  -0.11    -0.01  -0.02   0.01     0.06  -0.01   0.06
   2   6    -0.14  -0.18   0.09     0.11   0.02   0.07     0.03  -0.05   0.08
   3   6     0.14  -0.09   0.22    -0.01  -0.01  -0.00     0.11   0.04   0.04
   4   6     0.44   0.14   0.21    -0.13  -0.05  -0.05     0.14   0.18  -0.09
   5   6     0.01   0.02  -0.02    -0.15   0.00  -0.13     0.01   0.08  -0.08
   6   6     0.03  -0.00   0.03     0.10   0.07   0.01    -0.37  -0.26  -0.01
   7   8    -0.05   0.05  -0.10     0.01  -0.00   0.01     0.06   0.03   0.01
   8   1     0.03   0.29  -0.31     0.06   0.30  -0.30     0.08   0.29  -0.27
   9   1    -0.09  -0.04  -0.03     0.45  -0.08   0.47    -0.23   0.04  -0.24
  10   1     0.05  -0.02   0.07    -0.42  -0.30  -0.01    -0.22  -0.17   0.01
  11   7    -0.05  -0.01  -0.03    -0.04  -0.01  -0.02     0.07   0.01   0.05
  12   1    -0.36   0.08  -0.40    -0.02  -0.00  -0.01     0.38  -0.06   0.39
  13   8    -0.05   0.09  -0.16     0.04  -0.04   0.09    -0.02   0.04  -0.07
  14   8    -0.11  -0.15   0.09     0.05   0.07  -0.03    -0.09  -0.09   0.03
                     25                     26                     27
                        a                      a                      a 
 Frequencies --  1287.8040              1294.2134              1355.0452
 Red. masses --    10.4537                13.4614                 9.4303
 Frc consts  --     0.0000                 0.0000                 0.0000
 IR Inten    --   661.2871              1680.8536               159.0610
 Raman Activ --     0.0000                 0.0000                 0.0000
 Depolar     --     0.0000                 0.0000                 0.0000
 Atom AN      X      Y      Z        X      Y      Z        X      Y      Z
   1   6    -0.15  -0.15   0.05    -0.07  -0.15   0.11    -0.08  -0.29   0.27
   2   6    -0.14  -0.09  -0.01    -0.10   0.01  -0.10     0.21   0.12   0.03
   3   6     0.25   0.11   0.09     0.20   0.10   0.05     0.06   0.18  -0.16
   4   6     0.20   0.15  -0.01    -0.23  -0.10  -0.09    -0.25  -0.19   0.01
   5   6    -0.34  -0.10  -0.17    -0.15  -0.03  -0.09     0.15  -0.04   0.17
   6   6     0.36   0.34  -0.08     0.28   0.14   0.08     0.14  -0.09   0.22
   7   8     0.03  -0.08   0.12    -0.03   0.02  -0.04    -0.11   0.16  -0.28
   8   1    -0.06  -0.11   0.08    -0.02  -0.04   0.03     0.04   0.20  -0.20
   9   1    -0.22   0.01  -0.19    -0.06   0.01  -0.05    -0.23   0.10  -0.30
  10   1    -0.18  -0.15   0.02    -0.11  -0.09   0.01    -0.10  -0.02  -0.05
  11   7    -0.28  -0.07  -0.15     0.55   0.17   0.27    -0.14  -0.05  -0.06
  12   1     0.09  -0.06   0.15    -0.03  -0.01  -0.01    -0.16   0.02  -0.16
  13   8     0.08  -0.08   0.17    -0.13   0.14  -0.28     0.05  -0.05   0.10
  14   8     0.08   0.10  -0.04    -0.22  -0.26   0.11     0.12   0.13  -0.05
                     28                     29                     30
                        a                      a                      a 
 Frequencies --  1436.8725              1503.4032              1508.3505
 Red. masses --    10.6626                13.6271                11.3607
 Frc consts  --     0.0000                 0.0000                 0.0000
 IR Inten    --    73.1718               119.0646                 2.7937
 Raman Activ --     0.0000                 0.0000                 0.0000
 Depolar     --     0.0000                 0.0000                 0.0000
 Atom AN      X      Y      Z        X      Y      Z        X      Y      Z
   1   6    -0.12   0.22  -0.36     0.07   0.00   0.06    -0.14  -0.16   0.06
   2   6     0.17  -0.20   0.38    -0.14   0.05  -0.18     0.43   0.14   0.20
   3   6     0.03   0.02   0.01    -0.02  -0.11   0.11    -0.55  -0.33  -0.09
   4   6    -0.16   0.24  -0.42     0.06   0.19  -0.17     0.19   0.19  -0.05
   5   6     0.16  -0.19   0.36    -0.01  -0.06   0.06    -0.18  -0.04  -0.11
   6   6     0.06   0.05  -0.01     0.11  -0.19   0.31     0.22   0.15   0.01
   7   8    -0.04  -0.03   0.01    -0.08   0.13  -0.22    -0.01  -0.01   0.00
   8   1    -0.07  -0.11   0.06     0.02  -0.04   0.06    -0.01   0.08  -0.10
   9   1    -0.12  -0.03  -0.07     0.08  -0.01   0.08    -0.03   0.07  -0.10
  10   1    -0.21  -0.15  -0.00     0.02  -0.01   0.03     0.12   0.11  -0.02
  11   7     0.04   0.01   0.02     0.04   0.42  -0.45     0.10   0.05   0.03
  12   1    -0.11  -0.02  -0.07     0.04  -0.03   0.07     0.05  -0.02   0.07
  13   8     0.02  -0.00   0.02     0.11  -0.17   0.29    -0.02   0.03  -0.05
  14   8    -0.03  -0.02   0.01    -0.17  -0.22   0.12    -0.07  -0.08   0.03
                     31                     32                     33
                        a                      a                      a 
 Frequencies --  1517.1910              1578.6628              3063.3566
 Red. masses --    13.0101                11.6523                 1.7643
 Frc consts  --     0.0000                 0.0000                 0.0000
 IR Inten    --  1118.5288               482.9035                61.4420
 Raman Activ --     0.0000                 0.0000                 0.0000
 Depolar     --     0.0000                 0.0000                 0.0000
 Atom AN      X      Y      Z        X      Y      Z        X      Y      Z
   1   6    -0.06  -0.04  -0.00    -0.04   0.27  -0.36     0.18   0.05   0.10
   2   6     0.13  -0.04   0.16     0.16  -0.14   0.30    -0.09  -0.11   0.06
   3   6     0.02   0.12  -0.13     0.02   0.13  -0.13    -0.00  -0.00  -0.00
   4   6    -0.09  -0.25   0.21    -0.01  -0.28   0.32     0.00   0.00  -0.00
   5   6     0.09   0.07  -0.01    -0.20   0.14  -0.34     0.01   0.01  -0.00
   6   6    -0.18   0.21  -0.41     0.13  -0.21   0.36     0.01  -0.00   0.01
   7   8     0.10  -0.15   0.26    -0.05   0.08  -0.13    -0.00   0.00  -0.00
   8   1    -0.01   0.06  -0.08    -0.05  -0.11   0.09    -0.67  -0.20  -0.34
   9   1    -0.08   0.01  -0.08    -0.07  -0.01  -0.05     0.32   0.42  -0.22
  10   1    -0.03   0.01  -0.04    -0.03   0.01  -0.03     0.01  -0.02   0.03
  11   7     0.12   0.39  -0.35     0.01   0.05  -0.05    -0.00  -0.00  -0.00
  12   1    -0.05   0.04  -0.09     0.09   0.01   0.07    -0.02  -0.02   0.01
  13   8     0.05  -0.12   0.18    -0.00  -0.01   0.01     0.00  -0.00   0.00
  14   8    -0.14  -0.20   0.11     0.00  -0.01   0.01     0.00   0.00  -0.00
                     34                     35                     36
                        a                      a                      a 
 Frequencies --  3077.0326              3088.5745              3118.8988
 Red. masses --     1.8640                 1.8114                 1.8466
 Frc consts  --     0.0000                 0.0000                 0.0000
 IR Inten    --   172.3497                51.9462                19.1319
 Raman Activ --     0.0000                 0.0000                 0.0000
 Depolar     --     0.0000                 0.0000                 0.0000
 Atom AN      X      Y      Z        X      Y      Z        X      Y      Z
   1   6    -0.14  -0.04  -0.07    -0.02  -0.01  -0.01    -0.01  -0.00  -0.01
   2   6    -0.13  -0.16   0.08    -0.01  -0.01   0.01    -0.02  -0.03   0.02
   3   6    -0.01   0.01  -0.02    -0.01   0.00  -0.01     0.09  -0.13   0.22
   4   6    -0.00   0.00  -0.00     0.01   0.00   0.00     0.01   0.00   0.00
   5   6    -0.02  -0.02   0.01     0.15   0.20  -0.10     0.00   0.01  -0.01
   6   6    -0.00   0.00  -0.01    -0.00   0.01  -0.01     0.00   0.00  -0.00
   7   8     0.00  -0.00   0.00     0.00  -0.00   0.00    -0.00  -0.00   0.00
   8   1     0.48   0.14   0.24     0.07   0.02   0.04     0.04   0.01   0.02
   9   1     0.43   0.56  -0.29     0.03   0.04  -0.02     0.06   0.08  -0.04
  10   1     0.04  -0.06   0.10     0.02  -0.02   0.04    -0.31   0.45  -0.78
  11   7     0.00   0.00   0.00     0.00   0.00  -0.00     0.00  -0.00   0.00
  12   1     0.06   0.08  -0.04    -0.54  -0.70   0.36    -0.02  -0.03   0.02
  13   8    -0.00   0.00  -0.00    -0.00   0.00  -0.00     0.00   0.00  -0.00
  14   8    -0.00  -0.00   0.00    -0.00  -0.00   0.00    -0.00  -0.00   0.00
