14
 energy: -30.220418311419 gnorm: 0.000352367839 xtb: 6.7.1 (edcfbbe)
C           -2.08659783770963       -2.83907048028148        1.54805783390535
C           -2.51433629469882       -2.18178595232949        0.41498470538599
C           -3.70414072160318       -2.51896652603727       -0.20197664907285
C           -4.46052238571500       -3.55321577702284        0.36453685224562
C           -4.05074340305715       -4.22864234185072        1.50395468202009
C           -2.82980135730397       -3.89904922500736        2.15780215779695
O           -2.42884476317726       -4.49851879277925        3.20235114202922
H           -1.15350668600799       -2.56550311417114        2.02078688727550
H           -1.90873035134561       -1.38879104432653        0.00162323767183
H           -4.06004746769369       -2.02020509018294       -1.08747944040330
N           -5.67459977156999       -3.91454306777320       -0.24640048196363
H           -4.66308101355657       -5.02061673850071        1.90934441303464
O           -6.04110340549221       -3.31787901477880       -1.25937307880313
O           -6.35384152793695       -4.81974949009537        0.23803863111893
