14
 energy: -30.200854685433 gnorm: 0.146481139335 xtb: 6.7.1 (edcfbbe)
C           -2.07832800000000       -2.84107200000000        1.55808400000000
C           -2.48948100000000       -2.19460700000000        0.45105300000000
C           -3.74248300000000       -2.56420100000000       -0.18265700000000
C           -4.47839700000000       -3.55821000000000        0.35500900000000
C           -4.03107300000000       -4.25335300000000        1.54983300000000
C           -2.86880400000000       -3.92394300000000        2.15337200000000
O           -2.30741800000000       -4.38873200000000        3.17552300000000
H           -1.14014800000000       -2.56578100000000        2.03425900000000
H           -1.89660400000000       -1.39697800000000        0.02161200000000
H           -4.03155000000000       -2.01568900000000       -1.07105700000000
N           -5.73724000000000       -3.91038200000000       -0.30407500000000
H           -4.64028700000000       -5.04985100000000        1.96404300000000
O           -6.06838600000000       -3.27995100000000       -1.32422100000000
O           -6.41949000000000       -4.82407700000000        0.18521000000000
14
 energy: -30.215283196868 gnorm: 0.074410424553 xtb: 6.7.1 (edcfbbe)
C           -2.08786393076214       -2.83549292336439        1.54326519517990
C           -2.50183350743480       -2.18360773438808        0.42765327543037
C           -3.72346371869171       -2.54316591639242       -0.19092146889856
C           -4.46490372845876       -3.55540570332124        0.36334747042968
C           -4.04552875990151       -4.24522015597300        1.52808388136004
C           -2.85430316915400       -3.91925784335004        2.16015263389784
O           -2.34945674578799       -4.44472314327248        3.20533301435104
H           -1.15700652587957       -2.57320998984208        2.02828769299368
H           -1.91458641930336       -1.38750896287226       -0.00485247974830
H           -4.03407867710803       -2.01212184782253       -1.07705485025384
N           -5.70368012085550       -3.91329976132269       -0.27182199041988
H           -4.66570391646388       -5.03731457288186        1.92823724130687
O           -6.04387478663622       -3.29746591300397       -1.28307996218778
O           -6.38340499356252       -4.81903253219296        0.20935834655896
14
 energy: -30.219748058139 gnorm: 0.025782309605 xtb: 6.7.1 (edcfbbe)
C           -2.09283179859981       -2.83610672327403        1.53964108575005
C           -2.51451720831611       -2.18048026140650        0.41321615253738
C           -3.70676449284105       -2.52464732117266       -0.19830668178173
C           -4.45548726261612       -3.55377071177756        0.36915391237408
C           -4.05375919377848       -4.23247566073547        1.50601349405980
C           -2.84004710723700       -3.90583405503269        2.15674130144956
O           -2.39891679061019       -4.48410993858088        3.21010473534078
H           -1.16470723017158       -2.58010029150320        2.02950236257939
H           -1.92288699347393       -1.38608684991936       -0.01357633763901
H           -4.04737580590184       -2.01530841428881       -1.08415020934870
N           -5.67347008145890       -3.91559562115002       -0.24474303474116
H           -4.67680131065657       -5.02229825215382        1.90048833632873
O           -6.02979030406131       -3.31319668852208       -1.25248729994903
O           -6.35233342027710       -4.81681621048291        0.23439018303985
14
 energy: -30.220232646031 gnorm: 0.012575359264 xtb: 6.7.1 (edcfbbe)
C           -2.09045743129854       -2.83798409431164        1.54368364217395
C           -2.51437118129990       -2.18032193781903        0.41303089432510
C           -3.70471586092179       -2.51971606659290       -0.20214101385858
C           -4.45729385766274       -3.55275715854292        0.36709420290449
C           -4.05292784354769       -4.23056304370233        1.50451173694612
C           -2.83395133157179       -3.90127332294721        2.15675876499157
O           -2.41215580505539       -4.49069335572389        3.20668053391113
H           -1.16089784273206       -2.57793190117013        2.02947267904984
H           -1.91539942057606       -1.38637952076886       -0.00707907609685
H           -4.05539628171741       -2.01721343585049       -1.08797658278268
N           -5.67333817638861       -3.91421894552853       -0.24303414595656
H           -4.67277760024698       -5.02094257156359        1.90204155452724
O           -6.03594105262475       -3.31767075916354       -1.25489796703460
O           -6.35006531435628       -4.81916088631493        0.23784277689981
14
 energy: -30.220387475398 gnorm: 0.003980409990 xtb: 6.7.1 (edcfbbe)
C           -2.08762385753945       -2.83904483755825        1.54764002985181
C           -2.51413539783069       -2.18091352057070        0.41431209617797
C           -3.70379331484249       -2.51801256391539       -0.20313618257706
C           -4.45932054155856       -3.55400588453362        0.36437397110049
C           -4.05120491077585       -4.22998587836781        1.50452254690711
C           -2.82935567474507       -3.89826386930908        2.15718369083627
O           -2.42451247001256       -4.49508529167687        3.20269376613038
H           -1.15580970676430       -2.56970860629326        2.02535913529946
H           -1.90838279694111       -1.38767363078203        0.00069043122965
H           -4.06097264567789       -2.02076420594085       -1.08887136653254
N           -5.67136582507613       -3.91798680426447       -0.24870597980502
H           -4.66607596635859       -5.02133536879128        1.90699723885131
O           -6.04282721684042       -3.31600403581778       -1.25697770605657
O           -6.35430867503689       -4.81804250217860        0.23990632858672
14
 energy: -30.220369725096 gnorm: 0.005635166634 xtb: 6.7.1 (edcfbbe)
C           -2.08612124497630       -2.83953234986707        1.54840303843217
C           -2.51395794516000       -2.18178454068081        0.41474530913263
C           -3.70388394209377       -2.51828356215016       -0.20231707932814
C           -4.46186415603998       -3.55222155125243        0.36563570781496
C           -4.05097833268447       -4.22886436792058        1.50501022165051
C           -2.82859337197374       -3.89791628295377        2.15762614396597
O           -2.42879759754896       -4.49832957886642        3.20075157861139
H           -1.15235645537180       -2.56637454292264        2.02062333540040
H           -1.90659879570134       -1.38892427655556        0.00285087464941
H           -4.06251269128314       -2.02106912718316       -1.08730882897842
N           -5.67859715183016       -3.90876698320793       -0.24205347687781
H           -4.66347712756300       -5.02063738460842        1.91009235660806
O           -6.03975205999206       -3.32089769706808       -1.26300098870021
O           -6.35219812778128       -4.82322475476299        0.23492980761909
14
 energy: -30.220416514484 gnorm: 0.001079030179 xtb: 6.7.1 (edcfbbe)
C           -2.08676687701218       -2.83904526532232        1.54788709676554
C           -2.51421921907798       -2.18154863240969        0.41471654008326
C           -3.70398507870026       -2.51881949551392       -0.20216489401245
C           -4.46041707996625       -3.55333894355958        0.36484781659751
C           -4.05093698726103       -4.22913524537476        1.50435496027366
C           -2.82956458052656       -3.89872897563350        2.15758587127140
O           -2.42754164387659       -4.49756043224398        3.20220251124743
H           -1.15385950666970       -2.56658084444998        2.02174636217402
H           -1.90838891693070       -1.38853560602390        0.00148038727231
H           -4.06075877947941       -2.02074615219230       -1.08758566313897
N           -5.67455943136757       -3.91415001208752       -0.24606873740159
H           -4.66407447428220       -5.02084810449872        1.90880131535791
O           -6.04091426682896       -3.31779806883672       -1.25944771218168
O           -6.35370215802060       -4.81999122185310        0.23763214569163
14
 energy: -30.220418311403 gnorm: 0.000352025744 xtb: 6.7.1 (edcfbbe)
C           -2.08658837607129       -2.83908410749688        1.54804559521314
C           -2.51432631941439       -2.18179984159994        0.41497212077552
C           -3.70412682722044       -2.51898556829605       -0.20199397537540
C           -4.46050505350604       -3.55323976841898        0.36451508057520
C           -4.05072651164962       -4.22866617630060        1.50393316191382
C           -2.82978847402439       -3.89906780781122        2.15778547483108
O           -2.42883238725409       -4.49853709925450        3.20233481240079
H           -1.15350030691919       -2.56551268081039        2.02077838315091
H           -1.90872308528108       -1.38880104121558        0.00161415105629
H           -4.06003309382483       -2.02022445047659       -1.08749713855745
N           -5.67457841485812       -3.91457234976396       -0.24642712219854
H           -4.66306139044579       -5.02064448666558        1.90931937321660
O           -6.04108163695735       -3.31790844781426       -1.25939995700838
O           -6.35381712257340       -4.81978317407548        0.23800804000641
