 Entering Gaussian System
 *********************************************
 Gaussian 98:
 frequency output generated by the xtb code
 *********************************************
                         Standard orientation:
 --------------------------------------------------------------------
  Center     Atomic     Atomic              Coordinates (Angstroms)
  Number     Number      Type              X           Y           Z
 --------------------------------------------------------------------
    1          6             0       -7.454541   -3.537819   -3.120109
    2          6             0       -8.240637   -3.436833   -4.260899
    3          7             0       -5.768143   -0.313636   -3.025598
    4          1             0       -6.053786   -2.574196   -1.820921
    5          6             0       -8.200013   -2.259940   -4.994905
    6          1             0       -8.864693   -4.260478   -4.576933
    7          6             0       -7.419348   -1.201570   -4.593990
    8          1             0       -8.789841   -2.170244   -5.901004
    9          6             0       -6.628144   -1.267019   -3.419890
   10          1             0       -7.380017   -0.296528   -5.191527
   11          6             0       -6.665435   -2.490498   -2.709964
   12          1             0       -7.466173   -4.453641   -2.541273
   13          6             0       -5.950971    0.998906   -3.238797
   14          6             0       -7.215424    1.637897   -3.292805
   15          1             0       -4.057149    3.829907   -3.417207
   16          1             0       -3.842718    1.388595   -3.218043
   17          6             0       -7.326920    3.004091   -3.397652
   18          1             0       -8.106635    1.022627   -3.225446
   19          6             0       -6.199429    3.811623   -3.454226
   20          1             0       -8.313069    3.454115   -3.433176
   21          6             0       -4.947679    3.213537   -3.383455
   22          1             0       -6.295206    4.884346   -3.544098
   23          6             0       -4.820462    1.849760   -3.274521
 --------------------------------------------------------------------
     1 basis functions        1 primitive gaussians
     1 alpha electrons        1 beta electrons
 
 Harmonic frequencies (cm**-1), IR intensities (km*mol⁻¹),
 Raman scattering activities (A**4/amu), Raman depolarization ratios,
 reduced masses (AMU), force constants (mDyne/A) and normal coordinates:
                      1                      2                      3
                        a                      a                      a 
 Frequencies --    61.7304                67.0772                86.6882
 Red. masses --    10.6557                10.2086                10.1274
 Frc consts  --     0.0000                 0.0000                 0.0000
 IR Inten    --     6.5281                 0.5030                 0.5555
 Raman Activ --     0.0000                 0.0000                 0.0000
 Depolar     --     0.0000                 0.0000                 0.0000
 Atom AN      X      Y      Z        X      Y      Z        X      Y      Z
   1   6    -0.16   0.14   0.22     0.27  -0.14  -0.05    -0.07   0.01   0.14
   2   6    -0.19   0.05   0.24     0.10  -0.22   0.07     0.18  -0.20  -0.04
   3   7     0.20  -0.02  -0.35    -0.19   0.06  -0.09    -0.16   0.06  -0.11
   4   1     0.01   0.05  -0.00     0.08   0.01  -0.06    -0.11   0.08   0.08
   5   6    -0.04  -0.10   0.02    -0.19  -0.17   0.12     0.20  -0.28  -0.17
   6   1    -0.10   0.02   0.12     0.06  -0.09   0.03     0.09  -0.09  -0.02
   7   6     0.11  -0.13  -0.19    -0.30  -0.06   0.05     0.02  -0.16  -0.14
   8   1    -0.02  -0.05   0.01    -0.10  -0.07   0.06     0.10  -0.13  -0.08
   9   6     0.11  -0.02  -0.19    -0.13   0.01  -0.06    -0.13   0.02  -0.03
  10   1     0.06  -0.07  -0.10    -0.15  -0.01   0.02     0.01  -0.06  -0.06
  11   6     0.01   0.10   0.00     0.15  -0.03  -0.11    -0.22   0.12   0.15
  12   1    -0.08   0.07   0.11     0.15  -0.05  -0.03    -0.04   0.03   0.08
  13   6     0.10  -0.02  -0.19    -0.11   0.07  -0.06    -0.07   0.05  -0.12
  14   6     0.06  -0.11  -0.26    -0.04   0.19  -0.24    -0.03   0.15   0.10
  15   1    -0.03   0.05   0.16     0.06  -0.03   0.14     0.04  -0.02  -0.06
  16   1     0.02   0.05   0.03    -0.02  -0.04   0.09    -0.01  -0.04  -0.15
  17   6    -0.04  -0.10  -0.02     0.11   0.21  -0.18     0.06   0.18   0.32
  18   1     0.03  -0.05  -0.14    -0.03   0.08  -0.12    -0.02   0.06   0.03
  19   6    -0.10   0.01   0.28     0.20   0.11   0.08     0.12   0.10   0.25
  20   1    -0.02  -0.05  -0.02     0.05   0.09  -0.09     0.03   0.08   0.16
  21   6    -0.06   0.10   0.31     0.13  -0.01   0.26     0.08  -0.01  -0.10
  22   1    -0.05   0.01   0.14     0.09   0.04   0.04     0.05   0.03   0.13
  23   6     0.04   0.09   0.07    -0.02  -0.02   0.18    -0.01  -0.04  -0.29
                      4                      5                      6
                        a                      a                      a 
 Frequencies --   203.2172               207.8553               310.2470
 Red. masses --    10.5258                10.4059                10.8700
 Frc consts  --     0.0000                 0.0000                 0.0000
 IR Inten    --    12.0634                 4.3206                 0.7259
 Raman Activ --     0.0000                 0.0000                 0.0000
 Depolar     --     0.0000                 0.0000                 0.0000
 Atom AN      X      Y      Z        X      Y      Z        X      Y      Z
   1   6     0.02  -0.06  -0.07     0.03   0.02  -0.03     0.19   0.24   0.13
   2   6    -0.06   0.14  -0.00     0.28  -0.08  -0.21     0.20   0.21   0.12
   3   7    -0.11   0.03   0.32     0.17  -0.06  -0.12    -0.07   0.03  -0.05
   4   1     0.03  -0.09   0.01    -0.12   0.06   0.09     0.06   0.15  -0.01
   5   6     0.05   0.18   0.07    -0.05   0.08   0.05     0.06   0.13  -0.02
   6   1    -0.05   0.07  -0.01     0.18  -0.07  -0.13     0.07   0.04   0.05
   7   6     0.18   0.04   0.14    -0.32   0.20   0.26    -0.03   0.22  -0.14
   8   1     0.02   0.09   0.02    -0.01   0.03   0.01     0.00  -0.02  -0.00
   9   6     0.08  -0.07   0.20    -0.16   0.11   0.14    -0.05   0.14  -0.14
  10   1     0.09   0.02   0.05    -0.13   0.07   0.10    -0.01   0.06  -0.04
  11   6     0.10  -0.16   0.05    -0.28   0.16   0.21     0.13   0.28   0.01
  12   1    -0.00  -0.04  -0.06     0.03  -0.01  -0.03     0.06   0.08   0.05
  13   6    -0.10  -0.03  -0.20     0.20  -0.06  -0.13    -0.21  -0.05  -0.01
  14   6    -0.08   0.00  -0.42     0.14  -0.18  -0.17    -0.23  -0.13  -0.00
  15   1     0.01  -0.03   0.01    -0.03   0.04   0.06     0.02  -0.10   0.01
  16   1    -0.03  -0.04  -0.16     0.05   0.04  -0.04    -0.06  -0.15   0.01
  17   6    -0.02   0.04  -0.06    -0.01  -0.20  -0.08    -0.06  -0.13   0.01
  18   1    -0.03   0.01  -0.18     0.06  -0.07  -0.05    -0.07  -0.03   0.00
  19   6     0.01   0.03   0.35    -0.09  -0.08   0.10     0.07  -0.30   0.03
  20   1     0.00   0.02  -0.01    -0.02  -0.09  -0.03     0.01   0.01   0.00
  21   6    -0.01  -0.05  -0.01    -0.03   0.04   0.08     0.06  -0.33   0.02
  22   1     0.01   0.02   0.23    -0.06  -0.02   0.07     0.05  -0.08   0.01
  23   6    -0.08  -0.09  -0.37     0.13   0.04  -0.10    -0.08  -0.30   0.02
                      7                      8                      9
                        a                      a                      a 
 Frequencies --   356.7901               375.9652               382.2433
 Red. masses --    11.0288                 9.5136                 9.4639
 Frc consts  --     0.0000                 0.0000                 0.0000
 IR Inten    --    27.9860                11.6798                 0.1101
 Raman Activ --     0.0000                 0.0000                 0.0000
 Depolar     --     0.0000                 0.0000                 0.0000
 Atom AN      X      Y      Z        X      Y      Z        X      Y      Z
   1   6     0.17   0.00  -0.07     0.14  -0.09  -0.12    -0.24   0.11   0.17
   2   6    -0.10  -0.04   0.11     0.06   0.01  -0.05    -0.00  -0.00  -0.01
   3   7    -0.26   0.02   0.44     0.09  -0.00  -0.16     0.02  -0.01   0.03
   4   1     0.01   0.09  -0.05    -0.13   0.03   0.11     0.14  -0.07  -0.11
   5   6    -0.11  -0.11   0.00    -0.19   0.15   0.16     0.24  -0.11  -0.17
   6   1    -0.04  -0.02   0.07     0.03   0.00  -0.03     0.01  -0.00  -0.01
   7   6    -0.01  -0.04  -0.27     0.21  -0.08  -0.06    -0.29   0.14   0.22
   8   1    -0.05  -0.07   0.01    -0.13   0.09   0.10     0.16  -0.07  -0.11
   9   6    -0.19   0.20  -0.10     0.08  -0.08   0.01    -0.01   0.01   0.02
  10   1    -0.00  -0.05  -0.15     0.11  -0.03  -0.03    -0.13   0.06   0.09
  11   6    -0.06   0.17  -0.14    -0.21   0.05   0.22     0.25  -0.12  -0.19
  12   1     0.13  -0.00  -0.03     0.07  -0.05  -0.08    -0.14   0.07   0.10
  13   6     0.23   0.05   0.16    -0.07  -0.03  -0.09     0.02  -0.01  -0.01
  14   6     0.20  -0.12  -0.16    -0.06   0.01  -0.30     0.02  -0.03  -0.32
  15   1    -0.03   0.05  -0.13     0.01  -0.03  -0.15    -0.00  -0.01  -0.15
  16   1     0.08   0.06   0.00    -0.03  -0.00   0.21    -0.00   0.02   0.15
  17   6    -0.02  -0.15   0.08     0.00   0.07   0.34     0.00   0.01   0.25
  18   1     0.09  -0.09  -0.10    -0.03   0.01  -0.15     0.00  -0.01  -0.14
  19   6    -0.07  -0.07   0.12     0.02   0.02  -0.07    -0.01   0.01   0.01
  20   1    -0.02  -0.08   0.04     0.01   0.04   0.22    -0.00   0.00   0.16
  21   6    -0.00   0.05  -0.19     0.00  -0.05  -0.26    -0.00  -0.01  -0.26
  22   1    -0.05  -0.02   0.07     0.02   0.01  -0.03    -0.01   0.00   0.01
  23   6     0.21   0.07   0.04    -0.08   0.00   0.35    -0.00   0.03   0.26
                     10                     11                     12
                        a                      a                      a 
 Frequencies --   456.6118               480.7843               531.5851
 Red. masses --     9.4169                 9.7976                11.7283
 Frc consts  --     0.0000                 0.0000                 0.0000
 IR Inten    --     3.3559                64.3196                 0.1085
 Raman Activ --     0.0000                 0.0000                 0.0000
 Depolar     --     0.0000                 0.0000                 0.0000
 Atom AN      X      Y      Z        X      Y      Z        X      Y      Z
   1   6     0.15  -0.07  -0.10     0.16  -0.08  -0.14    -0.10   0.11  -0.18
   2   6    -0.19   0.16   0.15    -0.22   0.13   0.14    -0.19  -0.24  -0.13
   3   7    -0.17   0.06  -0.08     0.19  -0.02  -0.36     0.13   0.38   0.01
   4   1     0.10  -0.06  -0.05     0.09  -0.06  -0.05    -0.05  -0.06  -0.01
   5   6     0.16  -0.02  -0.12     0.15  -0.05  -0.12    -0.02  -0.14   0.08
   6   1    -0.06   0.05   0.04    -0.05   0.03   0.03    -0.05  -0.07  -0.02
   7   6     0.02  -0.00   0.05    -0.01  -0.02   0.08     0.05  -0.19   0.19
   8   1     0.14  -0.05  -0.10     0.16  -0.06  -0.11     0.02   0.04   0.01
   9   6    -0.30   0.08   0.25    -0.27   0.09   0.23     0.20   0.21   0.13
  10   1     0.12  -0.03  -0.03     0.13  -0.05  -0.04    -0.03  -0.07   0.02
  11   6     0.02  -0.04   0.09    -0.05   0.01   0.10    -0.03   0.09  -0.11
  12   1     0.13  -0.08  -0.12     0.15  -0.08  -0.13     0.01   0.06  -0.01
  13   6     0.07   0.01  -0.42    -0.04   0.01   0.33    -0.07   0.31  -0.03
  14   6     0.05  -0.02  -0.01    -0.06  -0.00   0.04    -0.26  -0.08  -0.00
  15   1    -0.02   0.04   0.21     0.01  -0.02  -0.19     0.03   0.05   0.01
  16   1     0.03   0.02   0.14    -0.01  -0.02  -0.10    -0.00  -0.08   0.02
  17   6    -0.03  -0.03   0.21     0.01  -0.01  -0.18    -0.12  -0.10   0.02
  18   1     0.04  -0.02   0.14    -0.03   0.00  -0.14    -0.04  -0.07   0.01
  19   6    -0.02  -0.08  -0.30     0.01   0.03   0.26     0.06  -0.33   0.01
  20   1    -0.01  -0.00   0.20     0.01  -0.00  -0.18     0.00   0.05   0.00
  21   6     0.00   0.01   0.22     0.02  -0.02  -0.21     0.23  -0.00   0.01
  22   1    -0.01  -0.02  -0.09     0.00   0.01   0.06     0.00  -0.09   0.01
  23   6     0.10  -0.00  -0.03    -0.04   0.01   0.10     0.14   0.04  -0.00
                     13                     14                     15
                        a                      a                      a 
 Frequencies --   568.2561               585.3379               604.6070
 Red. masses --    11.2648                11.2442                11.5726
 Frc consts  --     0.0000                 0.0000                 0.0000
 IR Inten    --     4.2210                 0.8869                 3.3664
 Raman Activ --     0.0000                 0.0000                 0.0000
 Depolar     --     0.0000                 0.0000                 0.0000
 Atom AN      X      Y      Z        X      Y      Z        X      Y      Z
   1   6     0.02  -0.20  -0.02    -0.07  -0.30   0.07     0.12   0.28  -0.21
   2   6    -0.12  -0.11   0.12    -0.02  -0.11   0.09    -0.20  -0.05  -0.02
   3   7     0.28  -0.10   0.17     0.07   0.06  -0.08     0.33  -0.11   0.20
   4   1    -0.03   0.04  -0.09    -0.05   0.01  -0.07     0.00   0.02   0.01
   5   6     0.22  -0.06   0.19     0.25   0.04   0.29    -0.06  -0.16  -0.15
   6   1    -0.04  -0.00  -0.03    -0.04   0.03  -0.07    -0.01  -0.07   0.06
   7   6    -0.01   0.23  -0.03     0.09   0.26  -0.02    -0.10  -0.17   0.13
   8   1     0.09  -0.05   0.03     0.07  -0.01   0.08     0.02  -0.01  -0.06
   9   6     0.01   0.17  -0.09     0.02   0.10  -0.07     0.15   0.09   0.02
  10   1    -0.03   0.01  -0.09    -0.01   0.05  -0.04    -0.03  -0.07   0.00
  11   6    -0.26   0.10  -0.24    -0.21  -0.05  -0.23    -0.00   0.25   0.05
  12   1     0.09  -0.04   0.02     0.02  -0.06   0.05     0.08   0.09  -0.05
  13   6    -0.15  -0.13   0.01     0.10   0.07  -0.02     0.03  -0.15   0.09
  14   6    -0.14  -0.18  -0.06     0.11   0.25  -0.01     0.14   0.16  -0.10
  15   1     0.07  -0.02   0.07    -0.08  -0.03  -0.01    -0.05  -0.10   0.06
  16   1    -0.11   0.00   0.01     0.08  -0.04   0.00    -0.00  -0.02  -0.01
  17   6     0.26  -0.11   0.09    -0.30   0.23  -0.04    -0.07   0.20   0.08
  18   1    -0.09   0.02   0.02     0.06   0.02  -0.00     0.02   0.07  -0.01
  19   6     0.11   0.12  -0.12    -0.11  -0.07   0.02    -0.07   0.14  -0.13
  20   1     0.08  -0.01   0.07    -0.09   0.04  -0.01    -0.04   0.01   0.05
  21   6     0.08   0.16   0.08    -0.17  -0.27   0.00    -0.26  -0.24   0.12
  22   1    -0.04   0.03  -0.01     0.08  -0.01   0.00     0.08   0.05  -0.02
  23   6    -0.34   0.11  -0.11     0.24  -0.20   0.04    -0.07  -0.22  -0.10
                     16                     17                     18
                        a                      a                      a 
 Frequencies --   647.9630               656.5066               735.7522
 Red. masses --    10.3067                10.1665                 4.1678
 Frc consts  --     0.0000                 0.0000                 0.0000
 IR Inten    --    26.7371                 0.9689                54.6270
 Raman Activ --     0.0000                 0.0000                 0.0000
 Depolar     --     0.0000                 0.0000                 0.0000
 Atom AN      X      Y      Z        X      Y      Z        X      Y      Z
   1   6    -0.18   0.06   0.14     0.19  -0.19  -0.08     0.06  -0.05  -0.04
   2   6     0.17  -0.07  -0.11    -0.11   0.17   0.15     0.10  -0.03  -0.06
   3   7     0.05  -0.02  -0.13    -0.11   0.04  -0.05     0.08  -0.01  -0.12
   4   1     0.12  -0.05  -0.09    -0.14   0.05   0.13    -0.14   0.06   0.10
   5   6    -0.17   0.09   0.13     0.17  -0.05  -0.20     0.06  -0.03  -0.06
   6   1     0.09  -0.04  -0.07    -0.10   0.08   0.08    -0.28   0.14   0.21
   7   6     0.15  -0.06  -0.10    -0.20   0.10   0.06     0.08  -0.04  -0.06
   8   1     0.01  -0.01  -0.01    -0.05  -0.00   0.01    -0.15   0.07   0.10
   9   6    -0.26   0.10   0.17     0.25  -0.22  -0.23    -0.19   0.07   0.12
  10   1     0.13  -0.05  -0.08    -0.13   0.08   0.09    -0.14   0.07   0.11
  11   6     0.13  -0.07  -0.11    -0.13  -0.04   0.19     0.07  -0.04  -0.05
  12   1     0.01  -0.01  -0.01    -0.07  -0.03   0.01    -0.15   0.06   0.10
  13   6    -0.00   0.03   0.40     0.00   0.12   0.31    -0.00   0.01   0.29
  14   6    -0.01  -0.01  -0.23    -0.06  -0.00  -0.18    -0.01  -0.01  -0.13
  15   1    -0.00   0.00  -0.02     0.00   0.05  -0.05    -0.01   0.02   0.23
  16   1     0.01  -0.01  -0.19     0.03  -0.01  -0.16    -0.00   0.01   0.22
  17   6    -0.02   0.03   0.28    -0.08   0.01   0.20    -0.01   0.00  -0.11
  18   1    -0.01  -0.01  -0.19    -0.00  -0.03  -0.14    -0.00   0.02   0.23
  19   6    -0.00  -0.03  -0.26     0.00  -0.12  -0.16     0.00  -0.01  -0.14
  20   1    -0.00   0.00  -0.02    -0.01   0.02  -0.04    -0.00   0.02   0.23
  21   6    -0.01   0.02   0.28     0.09   0.08   0.20     0.00  -0.02  -0.10
  22   1     0.00  -0.01  -0.14    -0.01  -0.04  -0.12    -0.00   0.04   0.46
  23   6     0.03  -0.02  -0.22     0.13   0.05  -0.15     0.02  -0.01  -0.12
                     19                     20                     21
                        a                      a                      a 
 Frequencies --   739.3721               801.3131               824.1022
 Red. masses --     4.6060                 9.9552                 4.3018
 Frc consts  --     0.0000                 0.0000                 0.0000
 IR Inten    --     2.6469                26.0874                 8.3009
 Raman Activ --     0.0000                 0.0000                 0.0000
 Depolar     --     0.0000                 0.0000                 0.0000
 Atom AN      X      Y      Z        X      Y      Z        X      Y      Z
   1   6    -0.08  -0.05   0.12    -0.01   0.17  -0.12     0.01  -0.00  -0.02
   2   6    -0.05   0.11   0.10    -0.21  -0.07   0.02    -0.18   0.09   0.13
   3   7     0.08  -0.03   0.06    -0.43   0.15  -0.25     0.01   0.01  -0.06
   4   1     0.18  -0.08  -0.11    -0.07   0.02   0.05    -0.19   0.08   0.14
   5   6    -0.17   0.04  -0.05     0.18   0.02   0.24     0.03  -0.01  -0.00
   6   1     0.36  -0.15  -0.24     0.18  -0.12  -0.19     0.30  -0.14  -0.22
   7   6    -0.11   0.03  -0.04     0.10   0.01   0.15     0.13  -0.06  -0.08
   8   1     0.14  -0.12  -0.15     0.10   0.07   0.04    -0.02   0.01   0.02
   9   6     0.16  -0.12  -0.15     0.11  -0.05  -0.08    -0.08   0.03   0.05
  10   1     0.15  -0.06  -0.11    -0.01   0.01   0.06    -0.20   0.10   0.14
  11   6    -0.08  -0.03   0.11     0.05   0.07  -0.03     0.11  -0.05  -0.09
  12   1     0.15  -0.12  -0.13     0.05   0.06  -0.01    -0.01   0.01   0.01
  13   6    -0.01   0.07   0.19    -0.01   0.01   0.14    -0.00   0.00   0.14
  14   6    -0.09   0.05  -0.05     0.16  -0.10   0.01     0.00  -0.02  -0.19
  15   1     0.00   0.06   0.18    -0.02  -0.07   0.03    -0.00  -0.00   0.04
  16   1     0.01   0.01   0.18     0.01   0.01  -0.10    -0.01   0.02   0.32
  17   6    -0.12   0.06  -0.10     0.25  -0.17   0.02     0.02  -0.01  -0.03
  18   1    -0.01   0.01   0.15     0.04  -0.02  -0.05     0.01   0.02   0.31
  19   6     0.01  -0.10  -0.10    -0.02   0.16  -0.16    -0.01   0.04   0.28
  20   1    -0.02   0.07   0.18     0.03  -0.12   0.03     0.00  -0.00   0.04
  21   6     0.09   0.05  -0.09    -0.18  -0.11   0.01    -0.01  -0.01  -0.03
  22   1     0.01   0.01   0.37    -0.04   0.06   0.28     0.01  -0.03  -0.46
  23   6     0.08   0.04  -0.09    -0.04  -0.08   0.04     0.01  -0.02  -0.20
                     22                     23                     24
                        a                      a                      a 
 Frequencies --   834.7541               848.7035               859.5905
 Red. masses --     5.5960                 3.3094                 3.2729
 Frc consts  --     0.0000                 0.0000                 0.0000
 IR Inten    --     8.8695                 2.0998                 0.0845
 Raman Activ --     0.0000                 0.0000                 0.0000
 Depolar     --     0.0000                 0.0000                 0.0000
 Atom AN      X      Y      Z        X      Y      Z        X      Y      Z
   1   6     0.05  -0.09   0.01    -0.10   0.04   0.07     0.10  -0.04  -0.08
   2   6    -0.13   0.14   0.16     0.01  -0.00  -0.01     0.04  -0.04  -0.03
   3   7     0.19  -0.06   0.10    -0.00   0.01  -0.00    -0.03   0.01  -0.02
   4   1    -0.30   0.14   0.21     0.28  -0.12  -0.20    -0.22   0.09   0.16
   5   6    -0.05  -0.01  -0.10     0.09  -0.04  -0.06    -0.15   0.07   0.11
   6   1     0.29  -0.13  -0.19    -0.01   0.01   0.01    -0.08   0.03   0.06
   7   6     0.07  -0.06  -0.12     0.13  -0.07  -0.08    -0.15   0.07   0.10
   8   1    -0.04  -0.02  -0.01    -0.17   0.08   0.12     0.28  -0.13  -0.19
   9   6    -0.14   0.08   0.13     0.01  -0.01  -0.02     0.03  -0.02  -0.02
  10   1    -0.18   0.08   0.09    -0.25   0.12   0.17     0.33  -0.15  -0.20
  11   6     0.16  -0.10  -0.15    -0.14   0.06   0.11     0.10  -0.04  -0.07
  12   1    -0.09   0.02   0.06     0.18  -0.09  -0.13    -0.17   0.09   0.13
  13   6     0.01  -0.03  -0.18     0.01  -0.00  -0.00    -0.00   0.01   0.04
  14   6    -0.05   0.04   0.09    -0.01  -0.02  -0.19    -0.00  -0.02  -0.16
  15   1     0.01   0.01  -0.11     0.01  -0.02  -0.26     0.00  -0.02  -0.19
  16   1     0.00  -0.03  -0.35     0.01  -0.03  -0.39     0.01  -0.02  -0.25
  17   6    -0.09   0.06  -0.00     0.00  -0.01  -0.14     0.01  -0.02  -0.18
  18   1    -0.02   0.01  -0.14     0.01   0.03   0.39     0.02   0.01   0.36
  19   6     0.01  -0.08  -0.17     0.01   0.01   0.01     0.00   0.03   0.06
  20   1    -0.01   0.04   0.00     0.00   0.02   0.27     0.00   0.02   0.33
  21   6     0.06   0.04   0.06    -0.00   0.01   0.14    -0.01   0.00   0.11
  22   1     0.01   0.01   0.28     0.00   0.00  -0.02     0.00  -0.00  -0.10
  23   6    -0.01   0.04   0.21    -0.01   0.01   0.19    -0.00   0.00   0.11
                     25                     26                     27
                        a                      a                      a 
 Frequencies --   890.1936               907.8980               908.7550
 Red. masses --    11.6021                 2.6042                 2.7736
 Frc consts  --     0.0000                 0.0000                 0.0000
 IR Inten    --     0.1892                 0.0189                 0.2215
 Raman Activ --     0.0000                 0.0000                 0.0000
 Depolar     --     0.0000                 0.0000                 0.0000
 Atom AN      X      Y      Z        X      Y      Z        X      Y      Z
   1   6    -0.04  -0.31   0.17     0.04  -0.02  -0.03    -0.20   0.11   0.14
   2   6     0.12   0.16   0.06    -0.02   0.01   0.02     0.06  -0.04  -0.05
   3   7     0.12   0.42   0.04     0.00   0.00   0.00     0.00  -0.01   0.00
   4   1    -0.02  -0.04  -0.00     0.07  -0.03  -0.05    -0.29   0.12   0.22
   5   6    -0.19   0.01  -0.27     0.04  -0.02  -0.03    -0.04   0.02   0.04
   6   1     0.02   0.05   0.01     0.06  -0.03  -0.05    -0.19   0.09   0.14
   7   6    -0.07  -0.08  -0.04    -0.02   0.01   0.01    -0.00   0.01  -0.01
   8   1    -0.07  -0.06  -0.07    -0.11   0.05   0.07     0.20  -0.10  -0.14
   9   6     0.14   0.18   0.07    -0.01   0.01   0.01     0.05  -0.03  -0.04
  10   1    -0.02  -0.03  -0.03     0.06  -0.03  -0.04    -0.11   0.05   0.06
  11   6    -0.07  -0.09  -0.04    -0.02   0.01   0.01     0.11  -0.05  -0.07
  12   1    -0.03  -0.12  -0.01    -0.11   0.05   0.08     0.47  -0.22  -0.35
  13   6    -0.02   0.23  -0.02    -0.00   0.01   0.08     0.00  -0.01   0.00
  14   6     0.02  -0.11   0.02    -0.01  -0.00  -0.02    -0.00  -0.01  -0.09
  15   1    -0.04  -0.12   0.00    -0.02   0.06   0.70    -0.00   0.02   0.24
  16   1    -0.01  -0.05   0.01     0.02  -0.03  -0.42     0.00  -0.01  -0.16
  17   6     0.29  -0.16   0.02     0.01  -0.01  -0.03    -0.01   0.02   0.13
  18   1     0.02  -0.04  -0.01    -0.01  -0.01  -0.11     0.00   0.01   0.15
  19   6    -0.02   0.21  -0.02    -0.00   0.01   0.08    -0.00  -0.00   0.00
  20   1     0.05  -0.11  -0.00     0.00   0.02   0.21    -0.00  -0.01  -0.22
  21   6    -0.27  -0.24   0.02    -0.00  -0.03  -0.31     0.01  -0.01  -0.13
  22   1     0.00   0.05  -0.00     0.00  -0.02  -0.26     0.00  -0.00  -0.00
  23   6     0.01  -0.12   0.01     0.01   0.01   0.16    -0.00   0.01   0.09
                     28                     29                     30
                        a                      a                      a 
 Frequencies --   909.3223               919.0957               966.0292
 Red. masses --     3.5869                 2.9159                10.7934
 Frc consts  --     0.0000                 0.0000                 0.0000
 IR Inten    --     2.1313                 0.0039                 0.3289
 Raman Activ --     0.0000                 0.0000                 0.0000
 Depolar     --     0.0000                 0.0000                 0.0000
 Atom AN      X      Y      Z        X      Y      Z        X      Y      Z
   1   6    -0.16   0.08   0.11    -0.04   0.02   0.03    -0.01   0.10  -0.09
   2   6    -0.00   0.00  -0.00    -0.03   0.00   0.02    -0.15  -0.20  -0.07
   3   7     0.00  -0.01  -0.01     0.01  -0.01   0.01     0.10  -0.04   0.06
   4   1    -0.20   0.08   0.14    -0.05   0.02   0.03     0.03  -0.09   0.09
   5   6     0.16  -0.08  -0.11     0.17  -0.09  -0.14     0.05  -0.05   0.09
   6   1    -0.00  -0.00   0.00     0.10  -0.05  -0.07    -0.03  -0.06  -0.01
   7   6    -0.11   0.06   0.08    -0.15   0.07   0.10    -0.05   0.28  -0.28
   8   1    -0.28   0.13   0.20    -0.40   0.18   0.27    -0.02  -0.07   0.03
   9   6    -0.00  -0.00   0.00    -0.03   0.02   0.02    -0.05  -0.03   0.02
  10   1     0.19  -0.09  -0.13     0.37  -0.16  -0.22    -0.06   0.06  -0.11
  11   6     0.11  -0.05  -0.08     0.06  -0.02  -0.05     0.18  -0.11   0.30
  12   1     0.28  -0.13  -0.21     0.00   0.00   0.01    -0.05   0.01  -0.05
  13   6    -0.00   0.00   0.03     0.00  -0.01  -0.03     0.01   0.03  -0.04
  14   6    -0.00   0.02   0.15    -0.01  -0.01  -0.16    -0.41  -0.15   0.02
  15   1     0.00  -0.01  -0.11     0.01  -0.01  -0.01    -0.06   0.04  -0.02
  16   1    -0.00   0.01   0.10    -0.00  -0.00  -0.05     0.14   0.04  -0.00
  17   6    -0.00  -0.02  -0.24    -0.02   0.03   0.19     0.12  -0.01   0.00
  18   1    -0.01  -0.02  -0.32     0.02   0.01   0.39    -0.15   0.01  -0.01
  19   6     0.00   0.00   0.03     0.01   0.00  -0.02    -0.02   0.28  -0.02
  20   1    -0.00   0.03   0.48    -0.00  -0.02  -0.41     0.06   0.07  -0.02
  21   6    -0.00   0.01   0.10     0.01  -0.00  -0.04    -0.13  -0.05   0.01
  22   1     0.00  -0.01  -0.10     0.01   0.01   0.11     0.01   0.08  -0.00
  23   6     0.01  -0.01  -0.09    -0.01   0.01   0.06     0.39  -0.08   0.02
                     31                     32                     33
                        a                      a                      a 
 Frequencies --   973.3695              1077.0578              1079.0455
 Red. masses --    10.3431                 6.9027                 6.9410
 Frc consts  --     0.0000                 0.0000                 0.0000
 IR Inten    --    85.8399                 2.1642                 0.9589
 Raman Activ --     0.0000                 0.0000                 0.0000
 Depolar     --     0.0000                 0.0000                 0.0000
 Atom AN      X      Y      Z        X      Y      Z        X      Y      Z
   1   6    -0.03  -0.00  -0.05    -0.02   0.06  -0.07     0.08  -0.22   0.26
   2   6    -0.14  -0.19  -0.07     0.08   0.10   0.04    -0.28  -0.33  -0.15
   3   7     0.07   0.17  -0.00    -0.00   0.00  -0.00    -0.01  -0.00  -0.00
   4   1     0.03  -0.13   0.11    -0.03  -0.09   0.00     0.13   0.33  -0.01
   5   6     0.01  -0.04   0.04     0.04  -0.04   0.08    -0.12   0.15  -0.27
   6   1    -0.04  -0.05  -0.03     0.02   0.03   0.01    -0.09  -0.09  -0.06
   7   6    -0.07   0.29  -0.31    -0.03  -0.04  -0.01     0.09   0.12   0.04
   8   1    -0.04  -0.09   0.02    -0.02  -0.08   0.03     0.07   0.31  -0.12
   9   6     0.03   0.08   0.05     0.01   0.01   0.01    -0.01  -0.01  -0.02
  10   1    -0.08   0.04  -0.14    -0.07  -0.04  -0.05     0.16   0.14   0.17
  11   6     0.19  -0.15   0.35    -0.03  -0.03  -0.02     0.11   0.10   0.08
  12   1    -0.07  -0.04  -0.06    -0.06  -0.01  -0.07     0.20   0.03   0.23
  13   6    -0.01   0.10   0.02    -0.02   0.02   0.00    -0.01  -0.01   0.00
  14   6     0.37   0.12  -0.01     0.01  -0.15   0.01     0.00  -0.04   0.01
  15   1     0.05  -0.08   0.01     0.24  -0.17   0.02     0.07  -0.05   0.01
  16   1    -0.15  -0.07   0.00    -0.12  -0.35   0.02    -0.04  -0.10   0.01
  17   6    -0.04  -0.02  -0.00    -0.32   0.00  -0.00    -0.10  -0.00  -0.00
  18   1     0.15  -0.04   0.00     0.13  -0.23   0.00     0.03  -0.05  -0.01
  19   6     0.02  -0.22   0.02    -0.07   0.45  -0.04    -0.02   0.13  -0.01
  20   1    -0.04  -0.08   0.01    -0.22  -0.26   0.02    -0.07  -0.08   0.01
  21   6     0.04  -0.03   0.00     0.34   0.08  -0.00     0.11   0.03  -0.00
  22   1     0.01  -0.06   0.00    -0.05   0.13  -0.01    -0.02   0.04  -0.00
  23   6    -0.38   0.05  -0.01     0.06  -0.17   0.01     0.02  -0.05   0.00
                     34                     35                     36
                        a                      a                      a 
 Frequencies --  1112.1806              1119.0380              1175.9882
 Red. masses --     4.5123                 4.3385                 1.5099
 Frc consts  --     0.0000                 0.0000                 0.0000
 IR Inten    --     0.6062                 0.3291                 2.1222
 Raman Activ --     0.0000                 0.0000                 0.0000
 Depolar     --     0.0000                 0.0000                 0.0000
 Atom AN      X      Y      Z        X      Y      Z        X      Y      Z
   1   6    -0.00  -0.09   0.05    -0.01  -0.10   0.05    -0.03   0.00  -0.04
   2   6    -0.04   0.09  -0.11    -0.04   0.12  -0.14     0.02  -0.03   0.04
   3   7    -0.02  -0.00   0.01     0.07  -0.03   0.04     0.02  -0.01   0.01
   4   1     0.09   0.22   0.01     0.13   0.31   0.01     0.05   0.16  -0.03
   5   6     0.06  -0.02   0.11     0.08  -0.05   0.14     0.02   0.01   0.01
   6   1    -0.08   0.15  -0.22    -0.11   0.20  -0.28     0.15  -0.26   0.38
   7   6    -0.04  -0.15   0.06    -0.06  -0.19   0.05     0.04   0.04   0.04
   8   1     0.07   0.13   0.01     0.07   0.13   0.03     0.09   0.24  -0.03
   9   6    -0.04   0.08  -0.11    -0.07   0.09  -0.13    -0.05   0.01  -0.07
  10   1    -0.16  -0.14  -0.14    -0.18  -0.19  -0.20    -0.02  -0.01  -0.03
  11   6     0.10   0.02   0.11     0.13   0.03   0.15    -0.03  -0.05  -0.01
  12   1    -0.11  -0.09  -0.09    -0.17  -0.13  -0.14    -0.22  -0.13  -0.22
  13   6     0.18   0.01   0.01    -0.12  -0.01  -0.01    -0.07   0.04  -0.01
  14   6    -0.13  -0.17   0.02     0.08   0.13  -0.01     0.03  -0.07   0.01
  15   1     0.11  -0.22   0.02    -0.10   0.18  -0.02    -0.22   0.30  -0.03
  16   1     0.09   0.31  -0.01    -0.07  -0.25   0.01    -0.08  -0.16   0.01
  17   6    -0.17   0.05  -0.00     0.13  -0.02   0.01     0.01  -0.02   0.00
  18   1     0.14  -0.30   0.01    -0.11   0.23   0.01    -0.02   0.03   0.00
  19   6     0.19   0.05  -0.00    -0.14  -0.04   0.00     0.06   0.00   0.00
  20   1     0.02   0.17  -0.01    -0.00  -0.10   0.00    -0.10  -0.24   0.02
  21   6    -0.09  -0.07   0.00     0.05   0.05  -0.00    -0.05   0.03  -0.00
  22   1     0.35   0.04   0.00    -0.27  -0.03  -0.00     0.52   0.05   0.00
  23   6    -0.15   0.12  -0.02     0.12  -0.10   0.01     0.00   0.07  -0.00
                     37                     38                     39
                        a                      a                      a 
 Frequencies --  1176.4262              1194.8801              1197.9046
 Red. masses --     1.4520                 1.8971                 2.0666
 Frc consts  --     0.0000                 0.0000                 0.0000
 IR Inten    --     0.7735               129.5897                19.9226
 Raman Activ --     0.0000                 0.0000                 0.0000
 Depolar     --     0.0000                 0.0000                 0.0000
 Atom AN      X      Y      Z        X      Y      Z        X      Y      Z
   1   6    -0.03  -0.02  -0.03     0.05   0.02   0.06    -0.06   0.03  -0.10
   2   6     0.02  -0.03   0.05     0.01   0.02   0.01    -0.02  -0.02  -0.01
   3   7     0.01   0.01  -0.00    -0.01  -0.10  -0.01     0.06   0.01   0.03
   4   1     0.04   0.13  -0.02    -0.08  -0.22   0.03     0.13   0.39  -0.06
   5   6     0.01   0.02  -0.00     0.02   0.07  -0.02    -0.01  -0.09   0.05
   6   1     0.16  -0.28   0.41     0.01  -0.01   0.01    -0.02   0.03  -0.05
   7   6     0.05   0.05   0.03    -0.03  -0.04  -0.03     0.05   0.04   0.05
   8   1     0.10   0.27  -0.04     0.09   0.26  -0.04    -0.15  -0.42   0.07
   9   6    -0.02   0.05  -0.06    -0.01   0.01  -0.00    -0.06  -0.13  -0.01
  10   1    -0.05  -0.03  -0.06    -0.15  -0.10  -0.15     0.28   0.19   0.31
  11   6    -0.03  -0.06  -0.01    -0.03  -0.05  -0.00     0.01   0.06  -0.02
  12   1    -0.24  -0.14  -0.23     0.16   0.09   0.16    -0.17  -0.09  -0.18
  13   6     0.07   0.01   0.00     0.04   0.07   0.00     0.03   0.12  -0.01
  14   6    -0.02   0.07  -0.00     0.03  -0.08   0.01     0.02  -0.04   0.01
  15   1     0.19  -0.28   0.03    -0.20   0.26  -0.02    -0.08   0.08  -0.01
  16   1     0.06   0.11  -0.01    -0.17  -0.36   0.02    -0.11  -0.22   0.01
  17   6     0.01   0.02  -0.00     0.07   0.09  -0.01     0.06   0.03  -0.00
  18   1     0.04  -0.05   0.00     0.24  -0.35   0.02     0.17  -0.24  -0.00
  19   6    -0.06  -0.00  -0.00    -0.00   0.03  -0.00    -0.00   0.02  -0.00
  20   1     0.11   0.24  -0.02     0.20   0.43  -0.03     0.12   0.25  -0.02
  21   6     0.03  -0.03   0.00    -0.11   0.06  -0.01    -0.09   0.00  -0.00
  22   1    -0.49  -0.04  -0.00    -0.05   0.00  -0.00    -0.04  -0.00  -0.00
  23   6    -0.01  -0.06   0.00    -0.03  -0.07   0.01    -0.03  -0.01   0.00
                     40                     41                     42
                        a                      a                      a 
 Frequencies --  1270.8333              1271.2461              1289.4091
 Red. masses --     5.7369                 8.1913                 5.1905
 Frc consts  --     0.0000                 0.0000                 0.0000
 IR Inten    --    11.6072                40.2407                22.8745
 Raman Activ --     0.0000                 0.0000                 0.0000
 Depolar     --     0.0000                 0.0000                 0.0000
 Atom AN      X      Y      Z        X      Y      Z        X      Y      Z
   1   6     0.07   0.07   0.05     0.03  -0.13   0.12    -0.09  -0.07  -0.08
   2   6     0.01   0.02   0.00    -0.03  -0.08   0.01    -0.02   0.01  -0.04
   3   7     0.05  -0.06   0.07    -0.20   0.04  -0.10    -0.14   0.05  -0.09
   4   1    -0.07  -0.22   0.04    -0.07  -0.27   0.06     0.09   0.28  -0.05
   5   6     0.01  -0.09   0.08    -0.09  -0.06  -0.09     0.01   0.13  -0.07
   6   1    -0.02   0.05  -0.06    -0.04   0.02  -0.07     0.04  -0.08   0.11
   7   6    -0.02  -0.07   0.02     0.07   0.04   0.07     0.04   0.07   0.01
   8   1     0.08   0.17  -0.01    -0.04  -0.07  -0.02    -0.09  -0.22   0.02
   9   6    -0.20   0.03  -0.29     0.18   0.44  -0.05     0.20  -0.08   0.29
  10   1     0.19   0.10   0.20     0.10   0.08   0.11    -0.23  -0.14  -0.26
  11   6     0.00  -0.06   0.04     0.10   0.16   0.04    -0.02   0.00  -0.03
  12   1    -0.03  -0.01  -0.03    -0.24  -0.19  -0.20     0.10   0.06   0.10
  13   6     0.36   0.23  -0.02     0.13  -0.39   0.05     0.32  -0.11   0.03
  14   6    -0.07   0.01   0.00     0.01  -0.11   0.01    -0.01  -0.08   0.00
  15   1     0.15  -0.28   0.03    -0.08   0.18  -0.02     0.09  -0.12   0.01
  16   1    -0.19  -0.33   0.02     0.01  -0.00   0.00    -0.12  -0.24   0.02
  17   6    -0.02  -0.12   0.01    -0.13   0.03  -0.00    -0.11  -0.09   0.01
  18   1    -0.21   0.27  -0.02    -0.09   0.09  -0.01    -0.21   0.28  -0.01
  19   6    -0.03  -0.04   0.00     0.03   0.07  -0.01    -0.04   0.01  -0.00
  20   1     0.04   0.06  -0.01     0.04   0.19  -0.01     0.08   0.21  -0.02
  21   6    -0.16   0.03  -0.01     0.08   0.12  -0.01    -0.06   0.11  -0.01
  22   1     0.12  -0.00   0.00     0.01   0.02  -0.00     0.14   0.02   0.00
  23   6    -0.04   0.13  -0.01    -0.05  -0.16   0.01    -0.03   0.02  -0.00
                     43                     44                     45
                        a                      a                      a 
 Frequencies --  1331.0087              1337.6022              1398.2533
 Red. masses --     9.0929                 9.9061                 9.2058
 Frc consts  --     0.0000                 0.0000                 0.0000
 IR Inten    --    16.4295                12.4159               956.2257
 Raman Activ --     0.0000                 0.0000                 0.0000
 Depolar     --     0.0000                 0.0000                 0.0000
 Atom AN      X      Y      Z        X      Y      Z        X      Y      Z
   1   6     0.07   0.02   0.08     0.09   0.02   0.11    -0.08   0.05  -0.14
   2   6    -0.11   0.17  -0.26    -0.11   0.17  -0.26     0.07   0.13   0.01
   3   7    -0.01  -0.06  -0.01     0.01  -0.00   0.01     0.13   0.47   0.06
   4   1     0.02   0.04   0.01     0.00  -0.01   0.02     0.05   0.13  -0.02
   5   6    -0.03  -0.10   0.02    -0.05  -0.12   0.02     0.02  -0.15   0.13
   6   1     0.05  -0.10   0.14     0.05  -0.09   0.12     0.03   0.02   0.03
   7   6     0.19   0.07   0.22     0.19   0.08   0.22    -0.13  -0.06  -0.13
   8   1    -0.08  -0.22   0.03    -0.07  -0.19   0.03     0.09   0.17   0.01
   9   6    -0.06   0.18  -0.20    -0.09   0.20  -0.24    -0.14  -0.12  -0.11
  10   1    -0.05  -0.04  -0.05    -0.03  -0.03  -0.03     0.12   0.07   0.12
  11   6    -0.05  -0.25   0.08    -0.04  -0.23   0.08    -0.05  -0.22   0.06
  12   1     0.12   0.07   0.13     0.10   0.05   0.11     0.14   0.12   0.12
  13   6     0.27   0.07   0.00    -0.32  -0.06  -0.01     0.08  -0.20   0.02
  14   6    -0.21   0.20  -0.02     0.21  -0.22   0.02     0.13  -0.14   0.02
  15   1    -0.12   0.15  -0.01     0.10  -0.12   0.01    -0.10   0.20  -0.02
  16   1     0.00   0.04   0.00     0.02   0.00  -0.00     0.06   0.14  -0.01
  17   6    -0.04  -0.09   0.01     0.05   0.12  -0.01    -0.19  -0.08   0.01
  18   1     0.04  -0.07   0.00    -0.02   0.05  -0.00    -0.11   0.15  -0.02
  19   6     0.33   0.02   0.00    -0.33  -0.02  -0.00     0.03   0.15  -0.01
  20   1    -0.10  -0.21   0.01     0.09   0.19  -0.01     0.04   0.20  -0.02
  21   6    -0.09   0.07  -0.01     0.11  -0.09   0.01     0.17  -0.04   0.01
  22   1    -0.18  -0.02   0.00     0.16   0.02   0.00    -0.03   0.04  -0.00
  23   6    -0.16  -0.21   0.01     0.16   0.19  -0.01    -0.14  -0.19   0.01
                     46                     47                     48
                        a                      a                      a 
 Frequencies --  1443.4634              1452.1207              1480.8091
 Red. masses --     9.9160                 9.8677                 9.0919
 Frc consts  --     0.0000                 0.0000                 0.0000
 IR Inten    --   108.6378               112.4739                19.3437
 Raman Activ --     0.0000                 0.0000                 0.0000
 Depolar     --     0.0000                 0.0000                 0.0000
 Atom AN      X      Y      Z        X      Y      Z        X      Y      Z
   1   6    -0.21  -0.23  -0.14    -0.21  -0.22  -0.14    -0.14  -0.04  -0.16
   2   6    -0.01   0.01  -0.02    -0.01   0.04  -0.04     0.09   0.16   0.03
   3   7    -0.03  -0.04   0.02     0.07  -0.02   0.04    -0.09   0.04  -0.06
   4   1     0.01  -0.06   0.05     0.01  -0.06   0.05     0.07   0.17  -0.00
   5   6     0.18   0.30   0.05     0.17   0.25   0.07    -0.07  -0.27   0.09
   6   1     0.06  -0.11   0.16     0.06  -0.10   0.16     0.03   0.04   0.01
   7   6    -0.13  -0.23  -0.03    -0.14  -0.23  -0.05    -0.10   0.02  -0.15
   8   1    -0.03  -0.14   0.05    -0.02  -0.11   0.05     0.08   0.17  -0.01
   9   6    -0.05   0.11  -0.13    -0.06   0.12  -0.14     0.20   0.27   0.10
  10   1     0.04  -0.02   0.07     0.06  -0.00   0.09     0.11   0.10   0.11
  11   6     0.17   0.16   0.12     0.16   0.15   0.13    -0.02  -0.18   0.08
  12   1     0.09   0.02   0.11     0.10   0.03   0.11     0.11   0.08   0.10
  13   6     0.17   0.03  -0.00    -0.20  -0.03  -0.01     0.02  -0.35   0.03
  14   6    -0.04  -0.26   0.02     0.02   0.28  -0.02    -0.16   0.07  -0.01
  15   1    -0.11   0.09  -0.01     0.12  -0.10   0.01     0.08  -0.15   0.01
  16   1    -0.07  -0.03  -0.00     0.08   0.03  -0.00    -0.05  -0.16   0.01
  17   6     0.03   0.34  -0.03     0.00  -0.32   0.03     0.17   0.23  -0.02
  18   1    -0.08   0.02  -0.00     0.10  -0.05   0.00     0.08  -0.17   0.00
  19   6     0.03  -0.00   0.00    -0.06  -0.02   0.00    -0.02  -0.18   0.02
  20   1    -0.09  -0.11   0.01     0.09   0.09  -0.01    -0.06  -0.17   0.02
  21   6     0.08  -0.32   0.03    -0.08   0.33  -0.03    -0.16   0.14  -0.01
  22   1    -0.20  -0.02  -0.00     0.20   0.01   0.00     0.00  -0.05   0.00
  23   6    -0.08   0.24  -0.02     0.09  -0.24   0.02     0.14   0.14  -0.01
                     49                     50                     51
                        a                      a                      a 
 Frequencies --  1498.0998              1537.7509              1539.9271
 Red. masses --    10.9678                11.0836                11.1703
 Frc consts  --     0.0000                 0.0000                 0.0000
 IR Inten    --  2451.9814                28.5385                16.2176
 Raman Activ --     0.0000                 0.0000                 0.0000
 Depolar     --     0.0000                 0.0000                 0.0000
 Atom AN      X      Y      Z        X      Y      Z        X      Y      Z
   1   6    -0.08   0.01  -0.11     0.08  -0.07   0.15     0.15  -0.08   0.25
   2   6     0.07   0.04   0.07    -0.11   0.19  -0.27    -0.17   0.26  -0.40
   3   7    -0.12  -0.47  -0.07    -0.01  -0.05  -0.01    -0.02  -0.00  -0.01
   4   1     0.06   0.16  -0.01    -0.02  -0.05  -0.00    -0.04  -0.08  -0.01
   5   6    -0.02  -0.10   0.03     0.04  -0.12   0.14     0.06  -0.16   0.20
   6   1     0.01   0.04  -0.01     0.04  -0.06   0.09     0.05  -0.09   0.13
   7   6    -0.08  -0.03  -0.12    -0.12  -0.03  -0.15    -0.16  -0.04  -0.21
   8   1     0.03   0.09  -0.01     0.03   0.02   0.03     0.04   0.02   0.04
   9   6     0.26   0.35   0.14     0.09  -0.06   0.16     0.10  -0.17   0.23
  10   1     0.09   0.08   0.09     0.05   0.04   0.05     0.06   0.05   0.06
  11   6    -0.04  -0.18   0.05     0.01   0.14  -0.06     0.01   0.21  -0.12
  12   1     0.06   0.05   0.05    -0.01  -0.04   0.01    -0.03  -0.07  -0.01
  13   6    -0.04   0.46  -0.03    -0.29   0.02  -0.01     0.21   0.04   0.00
  14   6     0.11  -0.10  -0.00     0.22  -0.17   0.01    -0.14   0.10  -0.01
  15   1    -0.04   0.08  -0.01    -0.02  -0.06   0.00     0.01   0.05  -0.00
  16   1     0.05   0.15  -0.01    -0.02  -0.08   0.00     0.01   0.06  -0.00
  17   6    -0.06  -0.08   0.00    -0.27  -0.06   0.00     0.17   0.03  -0.00
  18   1    -0.07   0.13  -0.00    -0.06   0.10  -0.00     0.03  -0.05   0.00
  19   6    -0.07   0.09  -0.01     0.51   0.04   0.00    -0.34  -0.01  -0.00
  20   1     0.04   0.09  -0.00    -0.04   0.06  -0.01     0.03  -0.03   0.00
  21   6     0.13  -0.06   0.01    -0.28   0.04  -0.01     0.20  -0.05   0.01
  22   1     0.02   0.03  -0.00    -0.17  -0.02  -0.00     0.11   0.01   0.00
  23   6    -0.11  -0.15   0.01     0.17   0.16  -0.01    -0.13  -0.10   0.00
                     52                     53                     54
                        a                      a                      a 
 Frequencies --  1591.4003              1618.7684              2993.6854
 Red. masses --    11.4282                11.4837                 1.7423
 Frc consts  --     0.0000                 0.0000                 0.0000
 IR Inten    --   690.9589                46.4565               142.4169
 Raman Activ --     0.0000                 0.0000                 0.0000
 Depolar     --     0.0000                 0.0000                 0.0000
 Atom AN      X      Y      Z        X      Y      Z        X      Y      Z
   1   6     0.23   0.21   0.18    -0.20  -0.19  -0.15     0.00   0.02  -0.01
   2   6    -0.09  -0.13  -0.03     0.07   0.11   0.02     0.01   0.01  -0.00
   3   7     0.03   0.09  -0.00     0.02  -0.01   0.01    -0.00  -0.00  -0.00
   4   1    -0.00   0.05  -0.03    -0.01  -0.08   0.03    -0.02   0.00  -0.02
   5   6     0.16   0.32   0.01    -0.14  -0.29  -0.01    -0.11   0.02  -0.17
   6   1    -0.03  -0.03  -0.02     0.02   0.02   0.01    -0.04  -0.06  -0.02
   7   6    -0.17  -0.20  -0.11     0.19   0.20   0.13    -0.01  -0.12   0.07
   8   1    -0.03  -0.09   0.02     0.02   0.07  -0.02     0.42  -0.06   0.64
   9   6     0.02   0.05   0.01    -0.11  -0.19  -0.04    -0.00  -0.01   0.00
  10   1     0.03  -0.01   0.05    -0.04  -0.01  -0.06     0.02   0.45  -0.29
  11   6    -0.16  -0.26  -0.05     0.16   0.30   0.03     0.00   0.00   0.01
  12   1    -0.06  -0.02  -0.07     0.04   0.01   0.05    -0.00  -0.06   0.04
  13   6     0.01   0.06   0.00     0.02   0.22  -0.02    -0.00  -0.00   0.00
  14   6     0.06  -0.28   0.02     0.08  -0.29   0.02    -0.03  -0.02   0.00
  15   1     0.07  -0.07   0.01     0.05  -0.04   0.00    -0.01  -0.01   0.00
  16   1     0.05   0.04  -0.00     0.06   0.06  -0.00     0.01  -0.00   0.00
  17   6     0.08   0.35  -0.03     0.07   0.31  -0.02     0.04  -0.02   0.00
  18   1    -0.06   0.03  -0.00    -0.06   0.04  -0.00     0.11   0.08  -0.01
  19   6    -0.00  -0.16   0.01    -0.01  -0.13   0.01     0.00   0.00  -0.00
  20   1    -0.05  -0.08   0.01    -0.04  -0.06   0.01    -0.15   0.07  -0.01
  21   6    -0.13   0.34  -0.03    -0.10   0.29  -0.03     0.00   0.00  -0.00
  22   1     0.01  -0.04   0.00     0.01  -0.03   0.00     0.00  -0.01   0.00
  23   6    -0.02  -0.32   0.03    -0.06  -0.33   0.03    -0.00   0.00  -0.00
                     55                     56                     57
                        a                      a                      a 
 Frequencies --  2996.3421              3011.6215              3013.2142
 Red. masses --     1.7415                 1.8571                 1.8480
 Frc consts  --     0.0000                 0.0000                 0.0000
 IR Inten    --   118.5348               463.7604               489.6755
 Raman Activ --     0.0000                 0.0000                 0.0000
 Depolar     --     0.0000                 0.0000                 0.0000
 Atom AN      X      Y      Z        X      Y      Z        X      Y      Z
   1   6     0.00   0.01  -0.00     0.00   0.06  -0.04     0.00   0.02  -0.01
   2   6     0.00   0.00   0.00     0.02   0.03   0.01     0.00   0.00   0.00
   3   7    -0.00   0.00  -0.00    -0.00  -0.00  -0.00    -0.00   0.00  -0.00
   4   1    -0.00   0.00  -0.00     0.03  -0.00   0.04     0.01  -0.00   0.01
   5   6    -0.03   0.00  -0.04    -0.08   0.01  -0.12    -0.01   0.00  -0.02
   6   1    -0.01  -0.02  -0.01    -0.08  -0.10  -0.04    -0.01  -0.01  -0.00
   7   6    -0.00  -0.02   0.01     0.01   0.18  -0.12     0.00   0.03  -0.02
   8   1     0.10  -0.01   0.15     0.26  -0.04   0.41     0.04  -0.01   0.06
   9   6    -0.00  -0.00   0.00     0.01   0.01   0.00    -0.00   0.00   0.00
  10   1     0.00   0.09  -0.06    -0.03  -0.63   0.41    -0.00  -0.12   0.08
  11   6     0.00   0.00   0.00    -0.01  -0.00  -0.01    -0.00   0.00  -0.00
  12   1    -0.00  -0.02   0.01    -0.00  -0.21   0.13    -0.00  -0.08   0.05
  13   6     0.01   0.01  -0.00    -0.00   0.00  -0.00     0.00  -0.01   0.00
  14   6     0.12   0.09  -0.01     0.03   0.02  -0.00    -0.16  -0.11   0.01
  15   1     0.07   0.05  -0.00    -0.02  -0.01   0.00     0.39   0.27  -0.01
  16   1    -0.03   0.02  -0.00     0.00   0.00  -0.00    -0.03   0.01  -0.00
  17   6    -0.19   0.08  -0.01     0.03  -0.01   0.00    -0.12   0.05  -0.00
  18   1    -0.45  -0.31   0.03    -0.12  -0.08   0.01     0.56   0.39  -0.04
  19   6    -0.00  -0.01   0.00    -0.00   0.01  -0.00     0.00  -0.02   0.00
  20   1     0.69  -0.31   0.02    -0.11   0.05  -0.00     0.39  -0.18   0.01
  21   6    -0.02  -0.02   0.00     0.00   0.01  -0.00    -0.11  -0.08   0.00
  22   1    -0.00   0.07  -0.01     0.00  -0.03   0.00    -0.01   0.08  -0.01
  23   6     0.01  -0.01   0.00    -0.00  -0.00   0.00     0.00   0.00   0.00
                     58                     59                     60
                        a                      a                      a 
 Frequencies --  3015.5019              3016.5659              3037.1624
 Red. masses --     1.7488                 1.7440                 1.8225
 Frc consts  --     0.0000                 0.0000                 0.0000
 IR Inten    --   102.6750                70.3624               274.7783
 Raman Activ --     0.0000                 0.0000                 0.0000
 Depolar     --     0.0000                 0.0000                 0.0000
 Atom AN      X      Y      Z        X      Y      Z        X      Y      Z
   1   6    -0.00  -0.05   0.03    -0.00  -0.19   0.12    -0.00   0.01  -0.00
   2   6     0.01   0.01   0.00     0.03   0.04   0.02    -0.00  -0.00  -0.00
   3   7    -0.00  -0.00   0.00    -0.00  -0.00   0.00    -0.00   0.00   0.00
   4   1     0.03  -0.00   0.05     0.19  -0.02   0.28     0.05  -0.01   0.07
   5   6     0.00   0.00   0.00    -0.02   0.01  -0.04    -0.00  -0.00  -0.00
   6   1    -0.02  -0.03  -0.01    -0.13  -0.17  -0.07     0.01   0.01   0.00
   7   6    -0.00  -0.01   0.00     0.00   0.03  -0.02     0.00   0.00  -0.00
   8   1     0.00  -0.00   0.00     0.08  -0.02   0.13     0.00  -0.00   0.01
   9   6     0.00   0.00  -0.00    -0.00   0.00  -0.00    -0.00  -0.00  -0.00
  10   1     0.00   0.02  -0.02    -0.00  -0.11   0.07    -0.00  -0.01   0.00
  11   6    -0.01  -0.00  -0.01    -0.05   0.00  -0.07    -0.01   0.00  -0.02
  12   1     0.00   0.19  -0.12     0.01   0.69  -0.44    -0.00  -0.02   0.01
  13   6     0.00   0.00  -0.00    -0.00   0.00  -0.00     0.00  -0.01   0.00
  14   6     0.07   0.05  -0.00    -0.02  -0.02   0.00    -0.02  -0.01   0.00
  15   1     0.60   0.41  -0.02    -0.12  -0.08   0.00    -0.17  -0.12   0.01
  16   1    -0.31   0.15  -0.02     0.09  -0.04   0.00    -0.73   0.35  -0.04
  17   6     0.07  -0.03   0.00    -0.02   0.01  -0.00     0.01  -0.00   0.00
  18   1    -0.23  -0.16   0.02     0.08   0.06  -0.01     0.05   0.03  -0.00
  19   6    -0.01   0.06  -0.01     0.00  -0.02   0.00     0.01  -0.13   0.01
  20   1    -0.25   0.11  -0.01     0.08  -0.04   0.00    -0.01   0.01  -0.00
  21   6    -0.16  -0.11   0.01     0.03   0.02  -0.00     0.05   0.03  -0.00
  22   1     0.02  -0.26   0.02    -0.01   0.07  -0.01    -0.04   0.46  -0.04
  23   6     0.08  -0.04   0.01    -0.02   0.01  -0.00     0.21  -0.10   0.01
                     61                     62                     63
                        a                      a                      a 
 Frequencies --  3039.2824              3057.0462              3059.4019
 Red. masses --     1.8214                 1.8888                 1.8877
 Frc consts  --     0.0000                 0.0000                 0.0000
 IR Inten    --   337.3006               528.9884                46.6355
 Raman Activ --     0.0000                 0.0000                 0.0000
 Depolar     --     0.0000                 0.0000                 0.0000
 Atom AN      X      Y      Z        X      Y      Z        X      Y      Z
   1   6     0.00  -0.05   0.03    -0.00   0.04  -0.02    -0.00  -0.07   0.05
   2   6     0.07   0.10   0.04     0.07   0.09   0.03    -0.11  -0.15  -0.06
   3   7    -0.00  -0.00  -0.00     0.00   0.01  -0.00    -0.00  -0.00  -0.00
   4   1    -0.46   0.06  -0.67     0.09  -0.01   0.13    -0.19   0.02  -0.28
   5   6     0.01   0.00   0.01     0.01  -0.00   0.02    -0.03   0.01  -0.05
   6   1    -0.27  -0.36  -0.14    -0.23  -0.30  -0.12     0.40   0.52   0.20
   7   6    -0.00   0.01  -0.01    -0.00  -0.01   0.01     0.00   0.03  -0.02
   8   1    -0.01   0.00  -0.01    -0.04   0.01  -0.07     0.09  -0.02   0.14
   9   6     0.01   0.01   0.00    -0.00  -0.01  -0.00     0.00   0.01   0.00
  10   1     0.00  -0.04   0.03     0.00   0.05  -0.03    -0.01  -0.12   0.08
  11   6     0.13  -0.02   0.19    -0.03   0.00  -0.04     0.06  -0.01   0.08
  12   1     0.00   0.16  -0.10    -0.00  -0.11   0.07     0.00   0.23  -0.15
  13   6    -0.00  -0.00   0.00     0.00  -0.01   0.00     0.00  -0.00   0.00
  14   6    -0.00  -0.00   0.00    -0.03  -0.02   0.00    -0.02  -0.02   0.00
  15   1    -0.01  -0.01   0.00    -0.22  -0.15   0.01    -0.13  -0.09   0.00
  16   1    -0.05   0.02  -0.00    -0.28   0.13  -0.02    -0.17   0.08  -0.01
  17   6    -0.00   0.00   0.00    -0.05   0.02  -0.00    -0.03   0.01  -0.00
  18   1     0.01   0.01  -0.00     0.11   0.08  -0.01     0.07   0.05  -0.01
  19   6     0.00  -0.02   0.00    -0.02   0.20  -0.02    -0.01   0.10  -0.01
  20   1     0.00  -0.00   0.00     0.16  -0.07   0.01     0.10  -0.04   0.00
  21   6     0.00   0.00  -0.00     0.07   0.05  -0.00     0.04   0.03  -0.00
  22   1    -0.01   0.07  -0.01     0.06  -0.70   0.06     0.03  -0.36   0.03
  23   6     0.01  -0.01   0.00     0.08  -0.04   0.00     0.05  -0.03   0.00
