      -----------------------------------------------------------      
     |                   =====================                   |     
     |                           x T B                           |     
     |                   =====================                   |     
     |                         S. Grimme                         |     
     |          Mulliken Center for Theoretical Chemistry        |     
     |                    University of Bonn                     |     
      -----------------------------------------------------------      

   * xtb version 6.7.1 (edcfbbe) compiled by 'albert@albert-system' on 2024-07-22

   xtb is free software: you can redistribute it and/or modify it under
   the terms of the GNU Lesser General Public License as published by
   the Free Software Foundation, either version 3 of the License, or
   (at your option) any later version.
   
   xtb is distributed in the hope that it will be useful,
   but WITHOUT ANY WARRANTY; without even the implied warranty of
   MERCHANTABILITY or FITNESS FOR A PARTICULAR PURPOSE.  See the
   GNU Lesser General Public License for more details.
   
   Cite this work as:
   * C. Bannwarth, E. Caldeweyher, S. Ehlert, A. Hansen, P. Pracht,
     J. Seibert, S. Spicher, S. Grimme, WIREs Comput. Mol. Sci., 2020, 11,
     e01493. DOI: 10.1002/wcms.1493
   
   for GFN2-xTB:
   * C. Bannwarth, S. Ehlert and S. Grimme., J. Chem. Theory Comput., 2019,
     15, 1652-1671. DOI: 10.1021/acs.jctc.8b01176
   for GFN1-xTB:
   * S. Grimme, C. Bannwarth, P. Shushkov, J. Chem. Theory Comput., 2017,
     13, 1989-2009. DOI: 10.1021/acs.jctc.7b00118
   for GFN0-xTB:
   * P. Pracht, E. Caldeweyher, S. Ehlert, S. Grimme, ChemRxiv, 2019, preprint.
     DOI: 10.26434/chemrxiv.8326202.v1
   for GFN-FF:
   * S. Spicher and S. Grimme, Angew. Chem. Int. Ed., 2020, 59, 15665-15673.
     DOI: 10.1002/anie.202004239
   
   for ALPB and GBSA implicit solvation:
   * S. Ehlert, M. Stahn, S. Spicher, S. Grimme, J. Chem. Theory Comput.,
     2021, 17, 4250-4261. DOI: 10.1021/acs.jctc.1c00471
   
   for ddCOSMO and CPCM-X implicit solvation:
   * M. Stahn, S. Ehlert, S. Grimme, J. Phys. Chem. A,
     2023, XX, XXXX-XXXX. DOI: 10.1021/acs.jpca.3c04382
   
   for DFT-D4:
   * E. Caldeweyher, C. Bannwarth and S. Grimme, J. Chem. Phys., 2017,
     147, 034112. DOI: 10.1063/1.4993215
   * E. Caldeweyher, S. Ehlert, A. Hansen, H. Neugebauer, S. Spicher,
     C. Bannwarth and S. Grimme, J. Chem. Phys., 2019, 150, 154122.
     DOI: 10.1063/1.5090222
   * E. Caldeweyher, J.-M. Mewes, S. Ehlert and S. Grimme, Phys. Chem. Chem. Phys.
     2020, 22, 8499-8512. DOI: 10.1039/D0CP00502A
   
   for sTDA-xTB:
   * S. Grimme and C. Bannwarth, J. Chem. Phys., 2016, 145, 054103.
     DOI: 10.1063/1.4959605
   
   in the mass-spec context:
   * V. Asgeirsson, C. Bauer and S. Grimme, Chem. Sci., 2017, 8, 4879.
     DOI: 10.1039/c7sc00601b
   * J. Koopman and S. Grimme, ACS Omega 2019, 4, 12, 15120-15133.
     DOI: 10.1021/acsomega.9b02011
   
   for metadynamics refer to:
   * S. Grimme, J. Chem. Theory Comput., 2019, 155, 2847-2862
     DOI: 10.1021/acs.jctc.9b00143
   
   for SPH calculations refer to:
   * S. Spicher and S. Grimme, J. Chem. Theory Comput., 2021, 17, 1701-1714
     DOI: 10.1021/acs.jctc.0c01306
   
   for ONIOM refer to:
   * C. Plett, A. Katbashev, S. Ehlert, S. Grimme, M. Bursch,
     Phys. Chem. Chem. Phys., 2023, 25, 17860-17868. DOI: 10.1039/D3CP02178E
   
   for DIPRO refer to:
   * J. Kohn, N. Gildemeister, S. Grimme, D. Fazzi, A. Hansen,
     J. Chem. Phys., 2023, just accepted.
   
   for PTB refer to:
   * S. Grimme, M. Mueller, A. Hansen, J. Chem. Phys., 2023, 158, 124111.
     DOI: 10.1063/5.0137838
   
   with help from (in alphabetical order)
   P. Atkinson, C. Bannwarth, F. Bohle, G. Brandenburg, E. Caldeweyher
   M. Checinski, S. Dohm, S. Ehlert, S. Ehrlich, I. Gerasimov, C. Hölzer
   A. Katbashev, J. Kohn, J. Koopman, C. Lavigne, S. Lehtola, F. März, M. Müller,
   F. Musil, H. Neugebauer, J. Pisarek, C. Plett, P. Pracht, F. Pultar,
   J. Seibert, P. Shushkov, S. Spicher, M. Stahn, M. Steiner, T. Strunk,
   J. Stückrath, T. Rose, and J. Unsleber
   
 * started run on 2025/10/17 at 22:24:29.177     
   ID    Z sym.   atoms
    1    6 C      1, 2, 5, 7, 9, 11, 13, 14, 17, 19, 21, 23
    2    7 N      3
    3    1 H      4, 6, 8, 10, 12, 15, 16, 18, 20, 22

           -------------------------------------------------
          |                Calculation Setup                |
           -------------------------------------------------

          program call               : xtb xyz.xyz --charge -1 --alpb water --ohess
          hostname                   : m003
          coordinate file            : xyz.xyz
          omp threads                :                     2


           -------------------------------------------------
          |                 G F N 2 - x T B                 |
           -------------------------------------------------

        Reference                      10.1021/acs.jctc.8b01176
      * Hamiltonian:
        H0-scaling (s, p, d)           1.850000    2.230000    2.230000
        zeta-weighting                 0.500000
      * Dispersion:
        s8                             2.700000
        a1                             0.520000
        a2                             5.000000
        s9                             5.000000
      * Repulsion:
        kExp                           1.500000    1.000000
        rExp                           1.000000
      * Coulomb:
        alpha                          2.000000
        third order                    shell-resolved
        anisotropic                    true
        a3                             3.000000
        a5                             4.000000
        cn-shift                       1.200000
        cn-exp                         4.000000
        max-rad                        5.000000

      * Solvation model:               ALPB
        Solvent                        water
        Parameter file                 internal GFN2-xTB/ALPB
        Dielectric constant                8.0200E+01
        Reference state                gsolv [1 M gas/solution]
        Free energy shift                  1.0808E-03 Eh       6.7819E-01 kcal/mol
        Temperature                        2.9815E+02 K
        Density                            1.0000E+00 kg/L
        Solvent mass                       1.8000E+01 g/mol
        Interaction kernel             P16
        Born radius scaling (c1)           1.4744E+00
        Born radii integrator          GBOBC
        Born offset                        0.0000E+00 a0       0.0000E+00 AA
        H-bond correction              true
        Ion screening                  false
        Surface tension                    1.0000E-05 Eh       1.5569E+01 dyn/cm
        Grid points                               230 per atom

          ...................................................
          :                      SETUP                      :
          :.................................................:
          :  # basis functions                  62          :
          :  # atomic orbitals                  62          :
          :  # shells                           36          :
          :  # electrons                        64          :
          :  max. iterations                   250          :
          :  Hamiltonian                  GFN2-xTB          :
          :  restarted?                      false          :
          :  GBSA solvation                   true          :
          :  PC potential                    false          :
          :  electronic temp.          300.0000000     K    :
          :  accuracy                    1.0000000          :
          :  -> integral cutoff          0.2500000E+02      :
          :  -> integral neglect         0.1000000E-07      :
          :  -> SCF convergence          0.1000000E-05 Eh   :
          :  -> wf. convergence          0.1000000E-03 e    :
          :  Broyden damping             0.4000000          :
          :  net charge                         -1          :
          :  unpaired electrons                  0          :
          ...................................................

 iter      E             dE          RMSdq      gap      omega  full diag
   1    -34.5028940 -0.345029E+02  0.419E+00    3.17       0.0  T
   2    -34.5507673 -0.478732E-01  0.234E+00    2.43       1.0  T
   3    -34.5496252  0.114205E-02  0.132E+00    2.72       1.0  T
   4    -34.5635316 -0.139063E-01  0.252E-01    2.65       1.0  T
   5    -34.5640604 -0.528862E-03  0.750E-02    2.63       1.0  T
   6    -34.5640909 -0.304298E-04  0.393E-02    2.62       1.0  T
   7    -34.5640997 -0.880252E-05  0.144E-02    2.62       1.5  T
   8    -34.5641000 -0.360148E-06  0.577E-03    2.62       3.6  T
   9    -34.5641003 -0.287864E-06  0.273E-03    2.62       7.6  T
  10    -34.5641003 -0.236639E-07  0.125E-03    2.62      16.7  T
  11    -34.5641004 -0.171754E-07  0.287E-04    2.62      72.7  T
  12    -34.5641004 -0.582858E-09  0.161E-04    2.62     129.7  T

   *** convergence criteria satisfied after 12 iterations ***

         #    Occupation            Energy/Eh            Energy/eV
      -------------------------------------------------------------
         1        2.0000           -0.6064606             -16.5026
       ...           ...                  ...                  ...
        26        2.0000           -0.3989921             -10.8571
        27        2.0000           -0.3831519             -10.4261
        28        2.0000           -0.3694298             -10.0527
        29        2.0000           -0.3677358             -10.0066
        30        2.0000           -0.3665053              -9.9731
        31        2.0000           -0.3038474              -8.2681
        32        2.0000           -0.2915733              -7.9341 (HOMO)
        33                         -0.1951800              -5.3111 (LUMO)
        34                         -0.1937696              -5.2727
        35                         -0.1882338              -5.1221
        36                         -0.1462787              -3.9804
        37                         -0.0665021              -1.8096
       ...                                ...                  ...
        62                          0.7389737              20.1085
      -------------------------------------------------------------
                  HL-Gap            0.0963932 Eh            2.6230 eV
             Fermi-level           -0.2433767 Eh           -6.6226 eV

 SCC (total)                   0 d,  0 h,  0 min,  0.041 sec
 SCC setup                      ...        0 min,  0.001 sec (  1.546%)
 Dispersion                     ...        0 min,  0.000 sec (  0.801%)
 classical contributions        ...        0 min,  0.000 sec (  0.114%)
 integral evaluation            ...        0 min,  0.002 sec (  5.545%)
 iterations                     ...        0 min,  0.033 sec ( 80.349%)
 molecular gradient             ...        0 min,  0.005 sec ( 11.272%)
 printout                       ...        0 min,  0.000 sec (  0.301%)

         :::::::::::::::::::::::::::::::::::::::::::::::::::::
         ::                     SUMMARY                     ::
         :::::::::::::::::::::::::::::::::::::::::::::::::::::
         :: total energy             -33.963100126165 Eh    ::
         :: total w/o Gsasa/hb       -33.960532708932 Eh    ::
         :: gradient norm              0.078753430083 Eh/a0 ::
         :: HOMO-LUMO gap              2.622992951070 eV    ::
         ::.................................................::
         :: SCC energy               -34.564196035219 Eh    ::
         :: -> isotropic ES            0.113193058511 Eh    ::
         :: -> anisotropic ES          0.024119676671 Eh    ::
         :: -> anisotropic XC          0.022262614307 Eh    ::
         :: -> dispersion             -0.023493665750 Eh    ::
         :: -> Gsolv                  -0.074300667005 Eh    ::
         ::    -> Gelec               -0.071733249772 Eh    ::
         ::    -> Gsasa               -0.003460867843 Eh    ::
         ::    -> Ghb                 -0.000187309088 Eh    ::
         ::    -> Gshift               0.001080759698 Eh    ::
         :: repulsion energy           0.601095909054 Eh    ::
         :: add. restraining           0.000000000000 Eh    ::
         :: total charge              -1.000000000000 e     ::
         :::::::::::::::::::::::::::::::::::::::::::::::::::::

      ----------------------------------------------------------- 
     |                   =====================                   |
     |                        A N C O P T                        |
     |                   =====================                   |
     |               Approximate Normal Coordinate               |
     |                Rational Function Optimizer                |
      ----------------------------------------------------------- 
      ----------------------------------------------------------- 
     |                   =====================                   |
     |                        A N C O P T                        |
     |                   =====================                   |
     |               Approximate Normal Coordinate               |
     |                Rational Function Optimizer                |
      ----------------------------------------------------------- 

          ...................................................
          :                      SETUP                      :
          :.................................................:
          :   optimization level            normal          :
          :   max. optcycles                   200          :
          :   ANC micro-cycles                  20          :
          :   degrees of freedom                63          :
          :.................................................:
          :   RF solver                   davidson          :
          :   write xtbopt.log                true          :
          :   linear?                        false          :
          :   energy convergence         0.5000000E-05 Eh   :
          :   grad. convergence          0.1000000E-02 Eh/α :
          :   maxmium RF displ.          1.0000000          :
          :   Hlow (freq-cutoff)         0.1000000E-01      :
          :   Hmax (freq-cutoff)         5.0000000          :
          :   S6 in model hess.         20.0000000          :
          ...................................................

generating ANC from exact Hessian ...
Using Lindh-Hessian (1995)
 Shifting diagonal of input Hessian by   9.035134764865622E-003
 Lowest  eigenvalues of input Hessian
    0.000000    0.000000    0.000000    0.000000    0.000000    0.000000
    0.010000    0.010705    0.011452    0.016269    0.022976    0.023496
    0.024192    0.030354    0.031975    0.032635    0.034211    0.035092
 Highest eigenvalues
    1.842442    1.864533    1.936266    1.953695    2.020680    2.198801
 

........................................................................
.............................. CYCLE    1 ..............................
........................................................................

 iter      E             dE          RMSdq      gap      omega  full diag
   1    -34.5641004 -0.345641E+02  0.490E-05    2.62       0.0  T
   2    -34.5641004 -0.243148E-10  0.272E-05    2.62     767.4  T
   3    -34.5641004 -0.849809E-11  0.145E-05    2.62    1439.7  T
     SCC iter.                  ...        0 min,  0.002 sec
     gradient                   ...        0 min,  0.005 sec
 * total energy  :   -33.9631001 Eh     change       -0.1726832E-09 Eh
   gradient norm :     0.0787515 Eh/α   predicted     0.0000000E+00 (-100.00%)
   displ. norm   :     0.1674715 α      lambda       -0.5204031E-02
   maximum displ.:     0.1027733 α      in ANC's #1, #10, #32, ...

........................................................................
.............................. CYCLE    2 ..............................
........................................................................

 iter      E             dE          RMSdq      gap      omega  full diag
   1    -34.5842915 -0.345843E+02  0.144E-01    2.76       0.0  T
   2    -34.5843561 -0.646369E-04  0.821E-02    2.78       1.0  T
   3    -34.5843688 -0.126490E-04  0.469E-02    2.78       1.0  T
   4    -34.5843748 -0.600298E-05  0.806E-03    2.78       2.6  T
   5    -34.5843754 -0.656621E-06  0.238E-03    2.78       8.7  T
   6    -34.5843755 -0.203036E-07  0.109E-03    2.78      19.2  T
   7    -34.5843755 -0.644373E-08  0.400E-04    2.78      52.1  T
   8    -34.5843755 -0.353211E-09  0.196E-04    2.78     106.2  T
     SCC iter.                  ...        0 min,  0.005 sec
     gradient                   ...        0 min,  0.004 sec
 * total energy  :   -33.9665622 Eh     change       -0.3462056E-02 Eh
   gradient norm :     0.0288465 Eh/α   predicted    -0.2675518E-02 ( -22.72%)
   displ. norm   :     0.2120060 α      lambda       -0.1299186E-02
   maximum displ.:     0.1887544 α      in ANC's #1, #10, #4, ...

........................................................................
.............................. CYCLE    3 ..............................
........................................................................

 iter      E             dE          RMSdq      gap      omega  full diag
   1    -34.5921488 -0.345921E+02  0.122E-01    2.74       0.0  T
   2    -34.5921925 -0.437083E-04  0.694E-02    2.76       1.0  T
   3    -34.5921982 -0.565861E-05  0.395E-02    2.76       1.0  T
   4    -34.5922032 -0.505076E-05  0.592E-03    2.76       3.5  T
   5    -34.5922036 -0.403922E-06  0.142E-03    2.76      14.6  T
   6    -34.5922036 -0.557853E-08  0.656E-04    2.76      31.8  T
   7    -34.5922036 -0.344198E-08  0.252E-04    2.76      82.8  T
     SCC iter.                  ...        0 min,  0.005 sec
     gradient                   ...        0 min,  0.004 sec
 * total energy  :   -33.9673719 Eh     change       -0.8097200E-03 Eh
   gradient norm :     0.0054285 Eh/α   predicted    -0.6792139E-03 ( -16.12%)
   displ. norm   :     0.2134978 α      lambda       -0.4268691E-03
   maximum displ.:     0.2028798 α      in ANC's #1, #3, #4, ...

........................................................................
.............................. CYCLE    4 ..............................
........................................................................

 iter      E             dE          RMSdq      gap      omega  full diag
   1    -34.5922682 -0.345923E+02  0.998E-02    2.75       0.0  T
   2    -34.5922810 -0.127488E-04  0.590E-02    2.76       1.0  T
   3    -34.5922784  0.259190E-05  0.257E-02    2.76       1.0  T
   4    -34.5922835 -0.515612E-05  0.340E-03    2.76       6.1  T
   5    -34.5922837 -0.165682E-06  0.783E-04    2.76      26.6  T
   6    -34.5922837 -0.474806E-09  0.353E-04    2.76      59.1  T
     SCC iter.                  ...        0 min,  0.004 sec
     gradient                   ...        0 min,  0.004 sec
 * total energy  :   -33.9677385 Eh     change       -0.3665843E-03 Eh
   gradient norm :     0.0091259 Eh/α   predicted    -0.2231648E-03 ( -39.12%)
   displ. norm   :     0.2175921 α      lambda       -0.3921342E-03
   maximum displ.:     0.2017309 α      in ANC's #1, #3, #4, ...

........................................................................
.............................. CYCLE    5 ..............................
........................................................................

 iter      E             dE          RMSdq      gap      omega  full diag
   1    -34.5907746 -0.345908E+02  0.931E-02    2.76       0.0  T
   2    -34.5907788 -0.422620E-05  0.554E-02    2.76       1.0  T
   3    -34.5907757  0.304163E-05  0.155E-02    2.76       1.3  T
   4    -34.5907797 -0.395784E-05  0.204E-03    2.76      10.2  T
   5    -34.5907798 -0.597435E-07  0.701E-04    2.76      29.8  T
   6    -34.5907798 -0.331717E-09  0.323E-04    2.76      64.6  T
     SCC iter.                  ...        0 min,  0.004 sec
     gradient                   ...        0 min,  0.005 sec
 * total energy  :   -33.9680946 Eh     change       -0.3561147E-03 Eh
   gradient norm :     0.0086051 Eh/α   predicted    -0.2053528E-03 ( -42.34%)
   displ. norm   :     0.2320859 α      lambda       -0.3862330E-03
   maximum displ.:     0.2115465 α      in ANC's #1, #3, #4, ...

........................................................................
.............................. CYCLE    6 ..............................
........................................................................

 iter      E             dE          RMSdq      gap      omega  full diag
   1    -34.5899499 -0.345899E+02  0.940E-02    2.78       0.0  T
   2    -34.5899514 -0.152355E-05  0.555E-02    2.78       1.0  T
   3    -34.5899488  0.260748E-05  0.123E-02    2.78       1.7  T
   4    -34.5899520 -0.320249E-05  0.122E-03    2.78      17.1  T
   5    -34.5899520 -0.990398E-08  0.697E-04    2.78      29.9  T
   6    -34.5899520 -0.923166E-09  0.294E-04    2.78      70.9  T
     SCC iter.                  ...        0 min,  0.004 sec
     gradient                   ...        0 min,  0.004 sec
 * total energy  :   -33.9684556 Eh     change       -0.3609670E-03 Eh
   gradient norm :     0.0065024 Eh/α   predicted    -0.2035201E-03 ( -43.62%)
   displ. norm   :     0.2512971 α      lambda       -0.3995048E-03
   maximum displ.:     0.2252982 α      in ANC's #1, #3, #4, ...

........................................................................
.............................. CYCLE    7 ..............................
........................................................................

 iter      E             dE          RMSdq      gap      omega  full diag
   1    -34.5899877 -0.345900E+02  0.998E-02    2.79       0.0  T
   2    -34.5899891 -0.135022E-05  0.586E-02    2.79       1.0  T
   3    -34.5899860  0.305119E-05  0.137E-02    2.79       1.5  T
   4    -34.5899898 -0.372218E-05  0.116E-03    2.79      18.0  T
   5    -34.5899898 -0.413156E-08  0.681E-04    2.79      30.6  T
   6    -34.5899898 -0.755499E-09  0.242E-04    2.79      86.2  T
     SCC iter.                  ...        0 min,  0.004 sec
     gradient                   ...        0 min,  0.004 sec
 * total energy  :   -33.9688326 Eh     change       -0.3770081E-03 Eh
   gradient norm :     0.0045335 Eh/α   predicted    -0.2123691E-03 ( -43.67%)
   displ. norm   :     0.2764743 α      lambda       -0.4163332E-03
   maximum displ.:     0.2456117 α      in ANC's #1, #3, #4, ...

........................................................................
.............................. CYCLE    8 ..............................
........................................................................

 iter      E             dE          RMSdq      gap      omega  full diag
   1    -34.5906271 -0.345906E+02  0.108E-01    2.80       0.0  T
   2    -34.5906286 -0.145050E-05  0.636E-02    2.80       1.0  T
   3    -34.5906250  0.354282E-05  0.147E-02    2.80       1.4  T
   4    -34.5906294 -0.431186E-05  0.121E-03    2.80      17.2  T
   5    -34.5906294 -0.319691E-08  0.699E-04    2.80      29.8  T
   6    -34.5906294 -0.531067E-09  0.194E-04    2.80     107.6  T
     SCC iter.                  ...        0 min,  0.004 sec
     gradient                   ...        0 min,  0.004 sec
 * total energy  :   -33.9692233 Eh     change       -0.3906999E-03 Eh
   gradient norm :     0.0035707 Eh/α   predicted    -0.2240793E-03 ( -42.65%)
   displ. norm   :     0.2970068 α      lambda       -0.4101511E-03
   maximum displ.:     0.2631549 α      in ANC's #1, #3, #4, ...

........................................................................
.............................. CYCLE    9 ..............................
........................................................................

 iter      E             dE          RMSdq      gap      omega  full diag
   1    -34.5914609 -0.345915E+02  0.115E-01    2.81       0.0  T
   2    -34.5914624 -0.144928E-05  0.675E-02    2.81       1.0  T
   3    -34.5914584  0.393816E-05  0.151E-02    2.81       1.4  T
   4    -34.5914632 -0.477931E-05  0.121E-03    2.81      17.2  T
   5    -34.5914632 -0.759691E-09  0.607E-04    2.81      34.4  T
   6    -34.5914632 -0.121322E-08  0.164E-04    2.81     127.1  T
     SCC iter.                  ...        0 min,  0.004 sec
     gradient                   ...        0 min,  0.004 sec
 * total energy  :   -33.9696048 Eh     change       -0.3815661E-03 Eh
   gradient norm :     0.0030911 Eh/α   predicted    -0.2231671E-03 ( -41.51%)
   displ. norm   :     0.3086263 α      lambda       -0.3807103E-03
   maximum displ.:     0.2741448 α      in ANC's #1, #3, #4, ...

........................................................................
.............................. CYCLE   10 ..............................
........................................................................

 iter      E             dE          RMSdq      gap      omega  full diag
   1    -34.5922255 -0.345922E+02  0.118E-01    2.81       0.0  T
   2    -34.5922271 -0.159193E-05  0.695E-02    2.81       1.0  T
   3    -34.5922229  0.419176E-05  0.155E-02    2.81       1.3  T
   4    -34.5922280 -0.509846E-05  0.128E-03    2.81      16.3  T
   5    -34.5922280 -0.956163E-09  0.655E-04    2.81      31.8  T
   6    -34.5922280 -0.168218E-08  0.184E-04    2.81     113.4  T
     SCC iter.                  ...        0 min,  0.004 sec
     gradient                   ...        0 min,  0.004 sec
 * total energy  :   -33.9699551 Eh     change       -0.3502712E-03 Eh
   gradient norm :     0.0024452 Eh/α   predicted    -0.2085049E-03 ( -40.47%)
   displ. norm   :     0.3158213 α      lambda       -0.3401661E-03
   maximum displ.:     0.2821068 α      in ANC's #1, #3, #4, ...

........................................................................
.............................. CYCLE   11 ..............................
........................................................................

 iter      E             dE          RMSdq      gap      omega  full diag
   1    -34.5927923 -0.345928E+02  0.121E-01    2.82       0.0  T
   2    -34.5927942 -0.185805E-05  0.711E-02    2.82       1.0  T
   3    -34.5927897  0.445932E-05  0.161E-02    2.82       1.3  T
   4    -34.5927952 -0.543895E-05  0.135E-03    2.82      15.5  T
   5    -34.5927952 -0.378314E-08  0.777E-04    2.82      26.8  T
   6    -34.5927952 -0.930520E-09  0.226E-04    2.82      92.1  T
     SCC iter.                  ...        0 min,  0.004 sec
     gradient                   ...        0 min,  0.004 sec
 * total energy  :   -33.9702627 Eh     change       -0.3076231E-03 Eh
   gradient norm :     0.0018670 Eh/α   predicted    -0.1870487E-03 ( -39.20%)
   displ. norm   :     0.4892048 α      lambda       -0.2976395E-03
   maximum displ.:     0.4412618 α      in ANC's #1, #3, #4, ...

........................................................................
.............................. CYCLE   12 ..............................
........................................................................

 iter      E             dE          RMSdq      gap      omega  full diag
   1    -34.5927385 -0.345927E+02  0.189E-01    2.83       0.0  T
   2    -34.5927432 -0.467197E-05  0.111E-01    2.83       1.0  T
   3    -34.5927326  0.105123E-04  0.247E-02    2.83       1.0  T
   4    -34.5927455 -0.128635E-04  0.217E-03    2.83       9.6  T
   5    -34.5927455 -0.126349E-07  0.126E-03    2.83      16.5  T
   6    -34.5927455 -0.212921E-08  0.379E-04    2.83      54.9  T
   7    -34.5927455 -0.108895E-08  0.182E-04    2.83     114.3  T
     SCC iter.                  ...        0 min,  0.005 sec
     gradient                   ...        0 min,  0.004 sec
 * total energy  :   -33.9706256 Eh     change       -0.3628279E-03 Eh
   gradient norm :     0.0025543 Eh/α   predicted    -0.1646615E-03 ( -54.62%)
   displ. norm   :     0.3678609 α      lambda       -0.2357684E-03
   maximum displ.:     0.3361833 α      in ANC's #1, #3, #32, ...

........................................................................
.............................. CYCLE   13 ..............................
........................................................................

 iter      E             dE          RMSdq      gap      omega  full diag
   1    -34.5928751 -0.345929E+02  0.144E-01    2.82       0.0  T
   2    -34.5928775 -0.248386E-05  0.847E-02    2.83       1.0  T
   3    -34.5928720  0.557605E-05  0.177E-02    2.83       1.2  T
   4    -34.5928788 -0.682401E-05  0.157E-03    2.83      13.3  T
   5    -34.5928788 -0.658210E-08  0.924E-04    2.83      22.6  T
   6    -34.5928788 -0.121650E-08  0.268E-04    2.83      77.9  T
     SCC iter.                  ...        0 min,  0.004 sec
     gradient                   ...        0 min,  0.004 sec
 * total energy  :   -33.9708095 Eh     change       -0.1839402E-03 Eh
   gradient norm :     0.0030329 Eh/α   predicted    -0.1338480E-03 ( -27.23%)
   displ. norm   :     0.4005820 α      lambda       -0.1743492E-03
   maximum displ.:     0.3689918 α      in ANC's #1, #3, #32, ...

........................................................................
.............................. CYCLE   14 ..............................
........................................................................

 iter      E             dE          RMSdq      gap      omega  full diag
   1    -34.5930479 -0.345930E+02  0.159E-01    2.82       0.0  T
   2    -34.5930502 -0.226071E-05  0.933E-02    2.82       1.0  T
   3    -34.5930456  0.455538E-05  0.163E-02    2.82       1.3  T
   4    -34.5930513 -0.569164E-05  0.182E-03    2.82      11.5  T
   5    -34.5930513 -0.343995E-08  0.947E-04    2.82      22.0  T
   6    -34.5930513 -0.299062E-08  0.315E-04    2.82      66.3  T
     SCC iter.                  ...        0 min,  0.004 sec
     gradient                   ...        0 min,  0.004 sec
 * total energy  :   -33.9709143 Eh     change       -0.1048081E-03 Eh
   gradient norm :     0.0034808 Eh/α   predicted    -0.1011747E-03 (  -3.47%)
   displ. norm   :     0.1440905 α      lambda       -0.5136447E-04
   maximum displ.:     0.1325606 α      in ANC's #1, #32, #4, ...

........................................................................
.............................. CYCLE   15 ..............................
........................................................................

 iter      E             dE          RMSdq      gap      omega  full diag
   1    -34.5949433 -0.345949E+02  0.609E-02    2.82       0.0  T
   2    -34.5949436 -0.307702E-06  0.357E-02    2.82       1.0  T
   3    -34.5949431  0.573322E-06  0.568E-03    2.82       3.7  T
   4    -34.5949438 -0.721143E-06  0.660E-04    2.82      31.6  T
   5    -34.5949438 -0.102784E-08  0.392E-04    2.82      53.2  T
     SCC iter.                  ...        0 min,  0.003 sec
     gradient                   ...        0 min,  0.005 sec
 * total energy  :   -33.9709388 Eh     change       -0.2446033E-04 Eh
   gradient norm :     0.0022988 Eh/α   predicted    -0.2622858E-04 (   7.23%)
   displ. norm   :     0.0455814 α      lambda       -0.1530346E-04
   maximum displ.:     0.0395563 α      in ANC's #1, #32, #4, ...

........................................................................
.............................. CYCLE   16 ..............................
........................................................................

 iter      E             dE          RMSdq      gap      omega  full diag
   1    -34.5958840 -0.345959E+02  0.226E-02    2.82       0.0  T
   2    -34.5958843 -0.247189E-06  0.134E-02    2.81       1.6  T
   3    -34.5958841  0.147202E-06  0.367E-03    2.82       5.7  T
   4    -34.5958843 -0.200361E-06  0.511E-04    2.82      40.8  T
   5    -34.5958843 -0.314998E-08  0.245E-04    2.82      85.2  T
     SCC iter.                  ...        0 min,  0.003 sec
     gradient                   ...        0 min,  0.004 sec
 * total energy  :   -33.9709461 Eh     change       -0.7311000E-05 Eh
   gradient norm :     0.0011688 Eh/α   predicted    -0.7668876E-05 (   4.90%)
   displ. norm   :     0.0456947 α      lambda       -0.4729902E-05
   maximum displ.:     0.0410533 α      in ANC's #1, #4, #2, ...

........................................................................
.............................. CYCLE   17 ..............................
........................................................................

 iter      E             dE          RMSdq      gap      omega  full diag
   1    -34.5951187 -0.345951E+02  0.218E-02    2.81       0.0  T
   2    -34.5951188 -0.377193E-07  0.128E-02    2.81       1.6  T
   3    -34.5951187  0.512171E-07  0.186E-03    2.81      11.2  T
   4    -34.5951188 -0.671529E-07  0.261E-04    2.81      79.9  T
   5    -34.5951188 -0.114071E-09  0.143E-04    2.81     145.5  T
     SCC iter.                  ...        0 min,  0.003 sec
     gradient                   ...        0 min,  0.005 sec
 * total energy  :   -33.9709505 Eh     change       -0.4393308E-05 Eh
   gradient norm :     0.0009003 Eh/α   predicted    -0.2370946E-05 ( -46.03%)
   displ. norm   :     0.0423754 α      lambda       -0.5668231E-05
   maximum displ.:     0.0314580 α      in ANC's #3, #2, #4, ...

   *** GEOMETRY OPTIMIZATION CONVERGED AFTER 17 ITERATIONS ***

------------------------------------------------------------------------
 total energy gain   :        -0.0078504 Eh       -4.9262 kcal/mol
 total RMSD          :         0.8034766 a0        0.4252 Å
 total power (kW/mol):        -1.2124173 (step) -110.2528 (real)
------------------------------------------------------------------------

 ANCopt (total)                0 d,  0 h,  0 min,  0.187 sec
 optimizer setup                ...        0 min,  0.002 sec (  0.807%)
 model hessian                  ...        0 min,  0.003 sec (  1.580%)
 ANC generation                 ...        0 min,  0.001 sec (  0.276%)
 coordinate transformation      ...        0 min,  0.000 sec (  0.072%)
 single point calculation       ...        0 min,  0.179 sec ( 95.733%)
 optimization log               ...        0 min,  0.001 sec (  0.652%)
 hessian update                 ...        0 min,  0.000 sec (  0.100%)
 rational function              ...        0 min,  0.001 sec (  0.448%)

================
 final structure:
================
23
 xtb: 6.7.1 (edcfbbe)
C           -7.45451113403808       -3.53785207521873       -3.12014063427089
C           -8.24060355786416       -3.43686842677227       -4.26093360860901
N           -5.76813060688156       -0.31366080813756       -3.02561791728977
H           -6.05376585234562       -2.57422378257977       -1.82094613254333
C           -8.19998311801966       -2.25997376684605       -4.99493727696796
H           -8.86465380137926       -4.26051566506158       -4.57697066765467
C           -7.41932450815224       -1.20160119420755       -4.59401737863206
H           -8.78980851952154       -2.17027964440851       -5.90103840803625
C           -6.62812470965275       -1.26704801073571       -3.41991462477202
H           -7.37999706415952       -0.29655728289186       -5.19155274335299
C           -6.66541224569627       -2.49052775704098       -2.70999158870603
H           -7.46614047141791       -4.45367523903330       -2.54130629402273
C           -5.95096393716066        0.99888040197279       -3.23881592444299
C           -7.21541999381956        1.63786501191724       -3.29282719899788
H           -4.05715711060225        3.82989087886068       -3.41721386654268
H           -3.84271360426210        1.38858005548068       -3.21805389892251
C           -7.32692304621613        3.00405833045591       -3.39767197353301
H           -8.10662798065606        1.02259039274866       -3.22547200761796
C           -6.19943585023563        3.81159602788262       -3.45424087201565
H           -8.31307463175164        3.45407715655593       -3.43319851651400
C           -4.94768366558542        3.21351715333977       -3.38346601330359
H           -6.29521822581900        4.88431916627084       -3.54411134869695
C           -4.82045936476135        1.84974007744839       -3.27453410455671
 
 Bond Distances (Angstroems)
 ---------------------------
C1-C2=1.3891         C1-C11=1.3740        C1-H12=1.0835        C2-C1=1.3891         C2-C5=1.3876         C2-H6=1.0806         
N3-C9=1.3431         N3-C13=1.3423        H4-C11=1.0824        C5-C2=1.3876         C5-C7=1.3749         C5-H8=1.0849         
H6-C2=1.0806         C7-C5=1.3749         C7-C9=1.4173         C7-H10=1.0852        H8-C5=1.0849         C9-N3=1.3431         
C9-C7=1.4173         C9-C11=1.4150        H10-C7=1.0852        C11-C1=1.3740        C11-H4=1.0824        C11-C9=1.4150        
H12-C1=1.0835        C13-N3=1.3423        C13-C14=1.4178       C13-C23=1.4154       C14-C13=1.4178       C14-C17=1.3747       
C14-H18=1.0851       H15-C21=1.0836       H16-C23=1.0825       C17-C14=1.3747       C17-C19=1.3880       C17-H20=1.0846       
H18-C14=1.0851       C19-C17=1.3880       C19-C21=1.3891       C19-H22=1.0807       H20-C17=1.0846       C21-H15=1.0836       
C21-C19=1.3891       C21-C23=1.3740       H22-C19=1.0807       C23-C13=1.4154       C23-H16=1.0825       C23-C21=1.3740       
 C  H  Rav=1.0833 sigma=0.0016  Rmin=1.0806  Rmax=1.0852    10
 C  C  Rav=1.3931 sigma=0.0175  Rmin=1.3740  Rmax=1.4178    12
 N  C  Rav=1.3427 sigma=0.0004  Rmin=1.3423  Rmax=1.3431     2
 
 selected bond angles (degree)
 --------------------
C11-C1-C2=120.98               H12-C1-C2=119.61               H12-C1-C11=119.41              C5-C2-C1=118.65                
H6-C2-C1=120.77                H6-C2-C5=120.57                C13-N3-C9=124.07               C7-C5-C2=121.01                
H8-C5-C2=119.74                H8-C5-C7=119.25                C9-C7-C5=121.53                H10-C7-C5=120.13               
H10-C7-C9=118.32               C7-C9-N3=124.60                C11-C9-N3=118.90               C11-C9-C7=116.16               
 
 selected dihedral angles (degree)
 ---------------------------------
C5-C2-C1-C11=  0.95           C5-C2-C1-H12=180.66           H6-C2-C1-C11=180.38           H6-C2-C1-H12=  0.09           
C7-C5-C2-C1=358.79            C7-C5-C2-H6=179.36            H8-C5-C2-C1=178.64            H8-C5-C2-H6=359.20            
C9-C7-C5-C2=359.95            C9-C7-C5-H8=180.10            H10-C7-C5-C2=178.54           H10-C7-C5-H8=358.70           
C7-C9-N3-C13= 33.14           C11-C9-N3-C13=206.17          N3-C9-C7-C5=174.70            N3-C9-C7-H10=356.09           
C11-C9-C7-C5=  1.50           C11-C9-C7-H10=182.89          
           -------------------------------------------------
          |                Final Singlepoint                |
           -------------------------------------------------

          ...................................................
          :                      SETUP                      :
          :.................................................:
          :  # basis functions                  62          :
          :  # atomic orbitals                  62          :
          :  # shells                           36          :
          :  # electrons                        64          :
          :  max. iterations                   250          :
          :  Hamiltonian                  GFN2-xTB          :
          :  restarted?                      false          :
          :  GBSA solvation                   true          :
          :  PC potential                    false          :
          :  electronic temp.          300.0000000     K    :
          :  accuracy                    1.0000000          :
          :  -> integral cutoff          0.2500000E+02      :
          :  -> integral neglect         0.1000000E-07      :
          :  -> SCF convergence          0.1000000E-05 Eh   :
          :  -> wf. convergence          0.1000000E-03 e    :
          :  Broyden damping             0.4000000          :
          :  net charge                         -1          :
          :  unpaired electrons                  0          :
          ...................................................

 iter      E             dE          RMSdq      gap      omega  full diag
   1    -34.5951188 -0.345951E+02  0.440E-05    2.81       0.0  T
   2    -34.5951188 -0.113545E-10  0.280E-05    2.81     745.5  T
   3    -34.5951188 -0.438405E-11  0.192E-05    2.81    1087.1  T

   *** convergence criteria satisfied after 3 iterations ***

         #    Occupation            Energy/Eh            Energy/eV
      -------------------------------------------------------------
         1        2.0000           -0.6080410             -16.5456
       ...           ...                  ...                  ...
        26        2.0000           -0.4006710             -10.9028
        27        2.0000           -0.3821979             -10.4001
        28        2.0000           -0.3726417             -10.1401
        29        2.0000           -0.3719180             -10.1204
        30        2.0000           -0.3712112             -10.1012
        31        2.0000           -0.3107761              -8.4566
        32        2.0000           -0.2919154              -7.9434 (HOMO)
        33                         -0.1885254              -5.1300 (LUMO)
        34                         -0.1868767              -5.0852
        35                         -0.1866502              -5.0790
        36                         -0.1516112              -4.1256
        37                         -0.0609073              -1.6574
       ...                                ...                  ...
        62                          0.7273294              19.7916
      -------------------------------------------------------------
                  HL-Gap            0.1033900 Eh            2.8134 eV
             Fermi-level           -0.2402204 Eh           -6.5367 eV

 SCC (total)                   0 d,  0 h,  0 min,  0.013 sec
 SCC setup                      ...        0 min,  0.001 sec (  5.364%)
 Dispersion                     ...        0 min,  0.000 sec (  1.695%)
 classical contributions        ...        0 min,  0.000 sec (  0.343%)
 integral evaluation            ...        0 min,  0.002 sec ( 18.461%)
 iterations                     ...        0 min,  0.003 sec ( 24.936%)
 molecular gradient             ...        0 min,  0.006 sec ( 47.930%)
 printout                       ...        0 min,  0.000 sec (  1.001%)

         :::::::::::::::::::::::::::::::::::::::::::::::::::::
         ::                     SUMMARY                     ::
         :::::::::::::::::::::::::::::::::::::::::::::::::::::
         :: total energy             -33.970950477556 Eh    ::
         :: total w/o Gsasa/hb       -33.968244580530 Eh    ::
         :: gradient norm              0.000899868788 Eh/a0 ::
         :: HOMO-LUMO gap              2.813383764323 eV    ::
         ::.................................................::
         :: SCC energy               -34.595163813719 Eh    ::
         :: -> isotropic ES            0.111448833523 Eh    ::
         :: -> anisotropic ES          0.022397044996 Eh    ::
         :: -> anisotropic XC          0.020857395802 Eh    ::
         :: -> dispersion             -0.023920316075 Eh    ::
         :: -> Gsolv                  -0.074260991816 Eh    ::
         ::    -> Gelec               -0.071555094790 Eh    ::
         ::    -> Gsasa               -0.003571561194 Eh    ::
         ::    -> Ghb                 -0.000215095530 Eh    ::
         ::    -> Gshift               0.001080759698 Eh    ::
         :: repulsion energy           0.624213336163 Eh    ::
         :: add. restraining           0.000000000000 Eh    ::
         :: total charge              -1.000000000000 e     ::
         :::::::::::::::::::::::::::::::::::::::::::::::::::::

           ------------------------------------------------- 
          |                Numerical Hessian                |
           ------------------------------------------------- 
step length          :   0.00500
SCC accuracy         :   0.30000
Hessian scale factor :   1.00000
frozen atoms in %    :   0.00000    0
RMS gradient         :   0.00090
estimated CPU  time      0.07 min
estimated wall time      0.04 min

writing file <hessian>.

 projected vibrational frequencies (cm⁻¹)
eigval :       -0.00    -0.00    -0.00    -0.00     0.00     0.00
eigval :       61.73    67.08    86.69   203.22   207.86   310.25
eigval :      356.79   375.97   382.24   456.61   480.78   531.59
eigval :      568.26   585.34   604.61   647.96   656.51   735.75
eigval :      739.37   801.31   824.10   834.75   848.70   859.59
eigval :      890.19   907.90   908.76   909.32   919.10   966.03
eigval :      973.37  1077.06  1079.05  1112.18  1119.04  1175.99
eigval :     1176.43  1194.88  1197.90  1270.83  1271.25  1289.41
eigval :     1331.01  1337.60  1398.25  1443.46  1452.12  1480.81
eigval :     1498.10  1537.75  1539.93  1591.40  1618.77  2993.69
eigval :     2996.34  3011.62  3013.21  3015.50  3016.57  3037.16
eigval :     3039.28  3057.05  3059.40
           -------------------------------------------------
          |                Property Printout                |
           -------------------------------------------------

    * Orbital Energies and Occupations

         #    Occupation            Energy/Eh            Energy/eV
      -------------------------------------------------------------
         1        2.0000           -0.6080410             -16.5456
       ...           ...                  ...                  ...
        20        2.0000           -0.4491158             -12.2211
        21        2.0000           -0.4407299             -11.9929
        22        2.0000           -0.4356074             -11.8535
        23        2.0000           -0.4144518             -11.2778
        24        2.0000           -0.4026448             -10.9565
        25        2.0000           -0.4011748             -10.9165
        26        2.0000           -0.4006710             -10.9028
        27        2.0000           -0.3821979             -10.4001
        28        2.0000           -0.3726417             -10.1401
        29        2.0000           -0.3719180             -10.1204
        30        2.0000           -0.3712112             -10.1012
        31        2.0000           -0.3107761              -8.4566
        32        2.0000           -0.2919154              -7.9434 (HOMO)
        33                         -0.1885254              -5.1300 (LUMO)
        34                         -0.1868767              -5.0852
        35                         -0.1866502              -5.0790
        36                         -0.1516113              -4.1256
        37                         -0.0609073              -1.6574
        38                         -0.0413643              -1.1256
        39                          0.1315485               3.5796
        40                          0.1425067               3.8778
        41                          0.1426624               3.8820
        42                          0.1584887               4.3127
        43                          0.1793664               4.8808
       ...                                ...                  ...
        62                          0.7273294              19.7916
      -------------------------------------------------------------
                  HL-Gap            0.1033900 Eh            2.8134 eV
             Fermi-level           -0.2402204 Eh           -6.5367 eV

     #   Z          covCN         q      C6AA      α(0)
     1   6 C        2.916    -0.047    29.161     8.855
     2   6 C        2.917    -0.075    29.867     8.962
     3   7 N        1.844    -0.418    31.865     8.366
     4   1 H        0.925    -0.007     3.188     2.792
     5   6 C        2.915    -0.047    29.161     8.855
     6   1 H        0.926    -0.003     3.108     2.757
     7   6 C        2.920    -0.076    29.909     8.968
     8   1 H        0.925    -0.008     3.207     2.801
     9   6 C        2.914     0.078    26.255     8.402
    10   1 H        0.925    -0.028     3.598     2.966
    11   6 C        2.926    -0.076    29.903     8.968
    12   1 H        0.925     0.001     3.048     2.730
    13   6 C        2.914     0.078    26.258     8.403
    14   6 C        2.920    -0.077    29.925     8.971
    15   1 H        0.925     0.000     3.056     2.734
    16   1 H        0.925    -0.008     3.196     2.795
    17   6 C        2.915    -0.047    29.164     8.856
    18   1 H        0.925    -0.029     3.606     2.970
    19   6 C        2.917    -0.075    29.878     8.963
    20   1 H        0.925    -0.009     3.214     2.804
    21   6 C        2.916    -0.047    29.163     8.855
    22   1 H        0.926    -0.003     3.119     2.762
    23   6 C        2.926    -0.077    29.914     8.969

 Mol. C6AA /au·bohr⁶  :       7785.874670
 Mol. C8AA /au·bohr⁸  :     190586.390664
 Mol. α(0) /au        :        142.504010


Wiberg/Mayer (AO) data.
largest (>0.10) Wiberg bond orders for each atom

 ---------------------------------------------------------------------------
     #   Z sym  total        # sym  WBO       # sym  WBO       # sym  WBO
 ---------------------------------------------------------------------------
     1   6 C    3.990 --    11 C    1.500     2 C    1.397    12 H    0.971
     2   6 C    3.967 --     5 C    1.402     1 C    1.397     6 H    0.973
     3   7 N    3.039 --    13 C    1.306     9 C    1.302
     4   1 H    1.000 --    11 C    0.972
     5   6 C    3.989 --     7 C    1.494     2 C    1.402     8 H    0.971
     6   1 H    1.000 --     2 C    0.973
     7   6 C    3.982 --     5 C    1.494     9 C    1.263    10 H    0.969
     8   1 H    1.000 --     5 C    0.971
     9   6 C    3.980 --     3 N    1.302    11 C    1.270     7 C    1.263
    10   1 H    0.999 --     7 C    0.969
    11   6 C    3.976 --     1 C    1.500     9 C    1.270     4 H    0.972
    12   1 H    0.999 --     1 C    0.971
    13   6 C    3.980 --     3 N    1.306    23 C    1.268    14 C    1.261
    14   6 C    3.982 --    17 C    1.495    13 C    1.261    18 H    0.969
    15   1 H    0.999 --    21 C    0.971
    16   1 H    1.000 --    23 C    0.972
    17   6 C    3.989 --    14 C    1.495    19 C    1.401    20 H    0.971
    18   1 H    0.999 --    14 C    0.969
    19   6 C    3.967 --    17 C    1.401    21 C    1.396    22 H    0.973
    20   1 H    1.000 --    17 C    0.971
    21   6 C    3.990 --    23 C    1.501    19 C    1.396    15 H    0.971
    22   1 H    1.000 --    19 C    0.973
    23   6 C    3.976 --    21 C    1.501    13 C    1.268    16 H    0.972
 ---------------------------------------------------------------------------

Topologies differ in total number of bonds
Writing topology from bond orders to xtbtopo.mol

molecular dipole:
                 x           y           z       tot (Debye)
 q only:       12.325       0.079       6.544
   full:       12.039       0.178       6.375      34.628
molecular quadrupole (traceless):
                xx          xy          yy          xz          yz          zz
 q only:     -125.370      -7.331      82.976    -123.763      -2.520      42.394
  q+dip:     -118.885      -7.900      80.550    -115.897      -4.842      38.336
   full:     -119.253      -8.728      78.877    -117.369      -3.930      40.376

           -------------------------------------------------
          |                Geometry Summary                 |
           -------------------------------------------------

      molecular mass/u    :      168.2149415
   center of mass at/Å    :       -6.6831732       0.0018258      -3.5531847
  moments of inertia/u·Å² :        0.1971126E+03   0.1191187E+04   0.1304770E+04
rotational constants/cm⁻¹ :        0.8552285E-01   0.1415197E-01   0.1292001E-01

 * 24 selected distances

     #   Z          #   Z                                           value/Å
     1   6 C        2   6 C                                       1.3890817
     2   6 C        5   6 C                                       1.3876213
     2   6 C        6   1 H                                       1.0806078 (min)
     5   6 C        7   6 C                                       1.3748882
     5   6 C        8   1 H                                       1.0848772
     3   7 N        9   6 C                                       1.3431334
     7   6 C        9   6 C                                       1.4173207
     7   6 C       10   1 H                                       1.0852188
     1   6 C       11   6 C                                       1.3739679
     4   1 H       11   6 C                                       1.0823670
     9   6 C       11   6 C                                       1.4150209
     1   6 C       12   1 H                                       1.0834744
     3   7 N       13   6 C                                       1.3422541
    13   6 C       14   6 C                                       1.4177687 (max)
    14   6 C       17   6 C                                       1.3747399
    14   6 C       18   1 H                                       1.0850583
    17   6 C       19   6 C                                       1.3880003
    17   6 C       20   1 H                                       1.0845618
    15   1 H       21   6 C                                       1.0835558
    19   6 C       21   6 C                                       1.3890973
    19   6 C       22   1 H                                       1.0807341
    13   6 C       23   6 C                                       1.4153724
    16   1 H       23   6 C                                       1.0825182
    21   6 C       23   6 C                                       1.3740235

 * 3 distinct bonds (by element types)

   Z      Z             #   av. dist./Å        max./Å        min./Å
   1 H    6 C          10     1.0832973     1.0852188     1.0806078
   6 C    6 C          12     1.3930752     1.4177687     1.3739679
   6 C    7 N           2     1.3426938     1.3431334     1.3422541

           -------------------------------------------------
          |               Frequency Printout                |
           -------------------------------------------------
 projected vibrational frequencies (cm⁻¹)
eigval :       -0.00    -0.00    -0.00    -0.00     0.00     0.00
eigval :       61.73    67.08    86.69   203.22   207.86   310.25
eigval :      356.79   375.97   382.24   456.61   480.78   531.59
eigval :      568.26   585.34   604.61   647.96   656.51   735.75
eigval :      739.37   801.31   824.10   834.75   848.70   859.59
eigval :      890.19   907.90   908.76   909.32   919.10   966.03
eigval :      973.37  1077.06  1079.05  1112.18  1119.04  1175.99
eigval :     1176.43  1194.88  1197.90  1270.83  1271.25  1289.41
eigval :     1331.01  1337.60  1398.25  1443.46  1452.12  1480.81
eigval :     1498.10  1537.75  1539.93  1591.40  1618.77  2993.69
eigval :     2996.34  3011.62  3013.21  3015.50  3016.57  3037.16
eigval :     3039.28  3057.05  3059.40
 reduced masses (amu)
   1: 10.98   2: 11.34   3: 11.04   4: 11.36   5: 10.58   6: 11.17   7: 10.66   8: 10.21
   9: 10.13  10: 10.53  11: 10.41  12: 10.87  13: 11.03  14:  9.51  15:  9.46  16:  9.42
  17:  9.80  18: 11.73  19: 11.26  20: 11.24  21: 11.57  22: 10.31  23: 10.17  24:  4.17
  25:  4.61  26:  9.96  27:  4.30  28:  5.60  29:  3.31  30:  3.27  31: 11.60  32:  2.60
  33:  2.77  34:  3.59  35:  2.92  36: 10.79  37: 10.34  38:  6.90  39:  6.94  40:  4.51
  41:  4.34  42:  1.51  43:  1.45  44:  1.90  45:  2.07  46:  5.74  47:  8.19  48:  5.19
  49:  9.09  50:  9.91  51:  9.21  52:  9.92  53:  9.87  54:  9.09  55: 10.97  56: 11.08
  57: 11.17  58: 11.43  59: 11.48  60:  1.74  61:  1.74  62:  1.86  63:  1.85  64:  1.75
  65:  1.74  66:  1.82  67:  1.82  68:  1.89  69:  1.89
 IR intensities (km·mol⁻¹)
   1:  3.52   2:  4.64   3:  1.61   4:  4.35   5:  1.16   6:  2.89   7:  6.53   8:  0.50
   9:  0.56  10: 12.06  11:  4.32  12:  0.73  13: 27.99  14: 11.68  15:  0.11  16:  3.36
  17: 64.32  18:  0.11  19:  4.22  20:  0.89  21:  3.37  22: 26.74  23:  0.97  24: 54.63
  25:  2.65  26: 26.09  27:  8.30  28:  8.87  29:  2.10  30:  0.08  31:  0.19  32:  0.02
  33:  0.22  34:  2.13  35:  0.00  36:  0.33  37: 85.84  38:  2.16  39:  0.96  40:  0.61
  41:  0.33  42:  2.12  43:  0.77  44:129.59  45: 19.92  46: 11.61  47: 40.24  48: 22.87
  49: 16.43  50: 12.42  51:956.23  52:108.64  53:112.47  54: 19.34  55:******  56: 28.54
  57: 16.22  58:690.96  59: 46.46  60:142.42  61:118.53  62:463.76  63:489.68  64:102.68
  65: 70.36  66:274.78  67:337.30  68:528.99  69: 46.64
 Raman intensities (Ä⁴*amu⁻¹)
   1:  0.00   2:  0.00   3:  0.00   4:  0.00   5:  0.00   6:  0.00   7:  0.00   8:  0.00
   9:  0.00  10:  0.00  11:  0.00  12:  0.00  13:  0.00  14:  0.00  15:  0.00  16:  0.00
  17:  0.00  18:  0.00  19:  0.00  20:  0.00  21:  0.00  22:  0.00  23:  0.00  24:  0.00
  25:  0.00  26:  0.00  27:  0.00  28:  0.00  29:  0.00  30:  0.00  31:  0.00  32:  0.00
  33:  0.00  34:  0.00  35:  0.00  36:  0.00  37:  0.00  38:  0.00  39:  0.00  40:  0.00
  41:  0.00  42:  0.00  43:  0.00  44:  0.00  45:  0.00  46:  0.00  47:  0.00  48:  0.00
  49:  0.00  50:  0.00  51:  0.00  52:  0.00  53:  0.00  54:  0.00  55:  0.00  56:  0.00
  57:  0.00  58:  0.00  59:  0.00  60:  0.00  61:  0.00  62:  0.00  63:  0.00  64:  0.00
  65:  0.00  66:  0.00  67:  0.00  68:  0.00  69:  0.00
 output can be read by thermo (or use thermo option).
 writing <g98.out> molden fake output.
 recommended (thermochemical) frequency scaling factor: 1.0
           -------------------------------------------------
          |             Thermodynamic Functions             |
           -------------------------------------------------

Refinement of some symmetry elements was terminated before convergence was reached.
Some symmetry elements may remain unidentified.
Molecule has the following symmetry elements: (C2) 
It seems to be the C2 point group
c2  symmetry found (for desy threshold:  0.10E+00) used in thermo

          ...................................................
          :                      SETUP                      :
          :.................................................:
          :  # frequencies                          63      :
          :  # imaginary freq.                       0      :
          :  linear?                             false      :
          :  only rotor calc.                    false      :
          :  symmetry                               c2      :
          :  rotational number                       2      :
          :  scaling factor                  1.0000000      :
          :  rotor cutoff                   50.0000000 cm⁻¹ :
          :  imag. cutoff                  -20.0000000 cm⁻¹ :
          :.................................................:

    mode    ω/cm⁻¹     T·S(HO)/kcal·mol⁻¹    T·S(FR)/kcal·mol⁻¹   T·S(vib)
   ------------------------------------------------------------------------
       1     61.73    -1.31218 ( 69.91%)    -0.99403 ( 30.09%)    -1.21645
       2     67.08    -1.26336 ( 76.41%)    -0.96943 ( 23.59%)    -1.19402
       3     86.69    -1.11313 ( 90.04%)    -0.89347 (  9.96%)    -1.09124
       4    203.22    -0.62724 ( 99.63%)    -0.64112 (  0.37%)    -0.62729
       5    207.86    -0.61491 ( 99.67%)    -0.63443 (  0.33%)    -0.61498
   ------------------------------------------------------------------------

   temp. (K)  partition function   enthalpy   heat capacity  entropy
                                   cal/mol     cal/K/mol   cal/K/mol   J/K/mol
 298.15  VIB   541.                 4724.685     35.225     27.729
         ROT  0.669E+06              888.752      2.981     29.636
         INT  0.362E+09             5613.438     38.206     57.364
         TR   0.211E+28             1481.254      4.968     41.250
         TOT                        7094.6918    43.1737    98.6138   412.6000

       T/K    H(0)-H(T)+PV         H(T)/Eh          T*S/Eh         G(T)/Eh
   ------------------------------------------------------------------------
    298.15    0.113061E-01    0.189310E+00    0.468546E-01    0.142456E+00
   ------------------------------------------------------------------------

         :::::::::::::::::::::::::::::::::::::::::::::::::::::
         ::                  THERMODYNAMIC                  ::
         :::::::::::::::::::::::::::::::::::::::::::::::::::::
         :: total free energy         -33.828494886460 Eh   ::
         ::.................................................::
         :: total energy              -33.970950479948 Eh   ::
         :: zero point energy           0.178004067280 Eh   ::
         :: G(RRHO) w/o ZPVE           -0.035548473792 Eh   ::
         :: G(RRHO) contrib.            0.142455593488 Eh   ::
         :::::::::::::::::::::::::::::::::::::::::::::::::::::

optimized geometry written to: xtbopt.xyz


           -------------------------------------------------
          | TOTAL ENERGY              -33.970950479948 Eh   |
          | TOTAL ENTHALPY            -33.781640301661 Eh   |
          | TOTAL FREE ENERGY         -33.828494886460 Eh   |
          | GRADIENT NORM               0.000899876324 Eh/α |
          | HOMO-LUMO GAP               2.813383916268 eV   |
           -------------------------------------------------

------------------------------------------------------------------------
 * finished run on 2025/10/17 at 22:24:32.376     
------------------------------------------------------------------------
 total:
 * wall-time:     0 d,  0 h,  0 min,  3.198 sec
 *  cpu-time:     0 d,  0 h,  0 min,  3.490 sec
 * ratio c/w:     1.091 speedup
 SCF:
 * wall-time:     0 d,  0 h,  0 min,  0.041 sec
 *  cpu-time:     0 d,  0 h,  0 min,  0.063 sec
 * ratio c/w:     1.524 speedup
 ANC optimizer:
 * wall-time:     0 d,  0 h,  0 min,  0.911 sec
 *  cpu-time:     0 d,  0 h,  0 min,  0.793 sec
 * ratio c/w:     0.871 speedup
 analytical hessian:
 * wall-time:     0 d,  0 h,  0 min,  1.310 sec
 *  cpu-time:     0 d,  0 h,  0 min,  2.388 sec
 * ratio c/w:     1.823 speedup

