23
 energy: -33.963100126337 gnorm: 0.078751664326 xtb: 6.7.1 (edcfbbe)
C           -7.15373600000000       -3.69026400000000       -3.31167700000000
C           -8.18596500000000       -3.60507000000000       -4.23522000000000
N           -5.94220000000000       -0.26386500000000       -3.03031200000000
H           -5.64634800000000       -2.63043000000000       -2.21934600000000
C           -8.47762400000000       -2.36959400000000       -4.80814300000000
H           -8.74442200000000       -4.48726000000000       -4.52114000000000
C           -7.73984900000000       -1.22538800000000       -4.45355400000000
H           -9.26918700000000       -2.28308100000000       -5.54426500000000
C           -6.73104800000000       -1.26127900000000       -3.47889600000000
H           -7.96062200000000       -0.30658900000000       -4.98279600000000
C           -6.45512100000000       -2.53570300000000       -2.94414700000000
H           -6.88390700000000       -4.64500800000000       -2.87356900000000
C           -6.08150100000000        1.06852100000000       -3.22050400000000
C           -7.23431500000000        1.79243800000000       -3.55011400000000
H           -3.99831500000000        3.77633300000000       -2.83226700000000
H           -4.02474600000000        1.33051700000000       -2.63847800000000
C           -7.21792300000000        3.19211400000000       -3.70137700000000
H           -8.18405000000000        1.28664100000000       -3.67862400000000
C           -6.05399000000000        3.91474700000000       -3.45388600000000
H           -8.12860000000000        3.70511200000000       -3.99014800000000
C           -4.90973900000000        3.23539300000000       -3.06288700000000
H           -6.04759300000000        4.99379800000000       -3.55321700000000
C           -4.93533200000000        1.84024800000000       -2.95240600000000
23
 energy: -33.966562182241 gnorm: 0.028847016818 xtb: 6.7.1 (edcfbbe)
C           -7.15382386259381       -3.67138703677138       -3.30491687173240
C           -8.18053288133404       -3.58835935136070       -4.23515585290867
N           -5.93926396405466       -0.26408945555890       -3.03492985857605
H           -5.65889945336493       -2.62430876321851       -2.20619045978429
C           -8.45639783358921       -2.35917831406101       -4.81474605532015
H           -8.74528286068623       -4.46774831108131       -4.51653776311415
C           -7.74192926204651       -1.22546988643700       -4.46104025535370
H           -9.24300527896972       -2.27409566896184       -5.55444236861510
C           -6.73522242094307       -1.25896085263859       -3.47070394853497
H           -7.95838641585840       -0.30592560824877       -4.99065819581497
C           -6.45897549675338       -2.53914720213983       -2.93336515509782
H           -6.89240157613711       -4.62468900984387       -2.86369630661455
C           -6.07781413342829        1.06521406335040       -3.22671639087821
C           -7.24095834431123        1.79593936807557       -3.54901724153857
H           -4.00392058747233        3.76035893190689       -2.84867366202908
H           -4.02132036909943        1.32699854431575       -2.65864452120509
C           -7.22182926839975        3.17619969184214       -3.68083271506333
H           -8.18879673859116        1.28758239433184       -3.67678895348168
C           -6.06042948300816        3.89857232825243       -3.45370353695480
H           -8.13196704471405        3.68916977977286       -3.96595523649438
C           -4.91476795642176        3.21795196100409       -3.06737303198809
H           -6.05395008899764        4.97579453244616       -3.56157894338946
C           -4.92625767922508        1.84190886502358       -2.96130567551050
23
 energy: -33.967371902232 gnorm: 0.005431805704 xtb: 6.7.1 (edcfbbe)
C           -7.16587669447341       -3.65698904847851       -3.29024162614939
C           -8.18125659635709       -3.57695135502666       -4.23557566316167
N           -5.93202261711736       -0.26535303940899       -3.04002646978438
H           -5.67732081219581       -2.61057714721013       -2.18223005510720
C           -8.43908805120375       -2.34913158033205       -4.82319683798030
H           -8.74657536567217       -4.45446115734689       -4.51859132455739
C           -7.73189018794863       -1.22208489540102       -4.47242113400030
H           -9.21194832468800       -2.26778284739035       -5.57925069124416
C           -6.73087927170881       -1.25668342765856       -3.46856448268847
H           -7.93621434032204       -0.29873546261892       -5.00058403808514
C           -6.46837160896695       -2.53812202504420       -2.91669899975580
H           -6.91620295439393       -4.61152788002045       -2.84436674683575
C           -6.07424931767145        1.05966377381534       -3.22691778779349
C           -7.24721872334899        1.79160877037894       -3.53812264976110
H           -4.00482001832405        3.75513119703018       -2.87859747867033
H           -4.01513032507498        1.31708908040829       -2.68940683782081
C           -7.22789514741825        3.16211588556905       -3.66362393320624
H           -8.19088373416103        1.27386319548216       -3.65897829492505
C           -6.06765106793830        3.88990148239464       -3.45523400247847
H           -8.14406818635420        3.67694869576517       -3.92919466064742
C           -4.91543972388827        3.20742187652613       -3.08549493454119
H           -6.06437095511496        4.96600983358008       -3.56227177616312
C           -4.91675897565744        1.84097707498673       -2.97738257464297
23
 energy: -33.967738486487 gnorm: 0.009127813294 xtb: 6.7.1 (edcfbbe)
C           -7.18028648366524       -3.65009036735989       -3.27728818139143
C           -8.18297902272152       -3.57096346450386       -4.23776874532130
N           -5.92449633122964       -0.26688298155557       -3.04432890847891
H           -5.69701513453345       -2.60032151624039       -2.15693230262114
C           -8.42404961167141       -2.34411554136880       -4.83601428003120
H           -8.74985313241554       -4.44629326711683       -4.52143718631920
C           -7.71799396536041       -1.21898313614820       -4.48233790145206
H           -9.18707340807588       -2.26458234559861       -5.60376542526507
C           -6.72771574298756       -1.25540548682458       -3.46546526047362
H           -7.90568711096371       -0.29393378563550       -5.01414539591141
C           -6.47922885672501       -2.53583478732705       -2.90108639983235
H           -6.94625249168583       -4.60504333679878       -2.82154839202899
C           -6.06877066108577        1.05519011436960       -3.23042108107190
C           -7.25018812780101        1.78469317077584       -3.52519622608656
H           -4.00250715695314        3.75791300563269       -2.91153202062311
H           -4.00611518722732        1.31076572603494       -2.72080180799172
C           -7.23550105487212        3.15423219902712       -3.64512830716357
H           -8.19110677863758        1.25857166373442       -3.63267204771971
C           -6.07447059659337        3.88683120042501       -3.45411397220174
H           -8.15703042315098        3.66933487664732       -3.89603329838990
C           -4.91459639410564        3.20511637870275       -3.10276975208541
H           -6.07461394685969        4.96208341233833       -3.56127460998865
C           -4.90860138067795        1.84004926879000       -2.99491149755125
23
 energy: -33.968094601184 gnorm: 0.008607051851 xtb: 6.7.1 (edcfbbe)
C           -7.19735591350256       -3.64507681325388       -3.26431279124580
C           -8.18620862780877       -3.56459368750349       -4.23955806871081
N           -5.91469929406650       -0.26914859438641       -3.04865683145143
H           -5.71827799778538       -2.59351395386698       -2.13101967911552
C           -8.41106361917681       -2.33873911576574       -4.84815834453526
H           -8.75395898181782       -4.43767805840941       -4.52594914853371
C           -7.70120647434751       -1.21547431068337       -4.49103548520369
H           -9.16436829858599       -2.25983892985600       -5.62640289278700
C           -6.72294641673649       -1.25537210570749       -3.46283020497878
H           -7.87178853709357       -0.28870047942707       -5.02596541091014
C           -6.49146763108407       -2.53325972838292       -2.88532167778030
H           -6.97897227823829       -4.60052317987190       -2.80002556471739
C           -6.06118285393685        1.05108580633922       -3.23395979313761
C           -7.25049863477583        1.77499776379243       -3.51180960261797
H           -4.00188561898988        3.76497324975177       -2.94274559015311
H           -3.99456114221633        1.30870518637940       -2.75296108009054
C           -7.24327164950463        3.14611353937417       -3.62878871568856
H           -8.18791447759719        1.23969930589104       -3.60661507451622
C           -6.08219179937872        3.88401739437767       -3.45314035236927
H           -8.17038489512468        3.65973511008429       -3.86524919298100
C           -4.91378284673539        3.20610585174310       -3.12080712091243
H           -6.08798529994575        4.95896246561842       -3.55762814072092
C           -4.90015971155065        1.83985428376308       -3.01403223684286
23
 energy: -33.968455568190 gnorm: 0.006504788760 xtb: 6.7.1 (edcfbbe)
C           -7.21607361069600       -3.63998493637562       -3.25144088961010
C           -8.19015628175102       -3.55643051216591       -4.24095557580487
N           -5.90280171986241       -0.27214142612950       -3.05261121178839
H           -5.74254571494438       -2.59068537635418       -2.10373318362747
C           -8.39836094144030       -2.33227978518797       -4.86003408008919
H           -8.75986644562870       -4.42692421492953       -4.53056772802705
C           -7.68161995810744       -1.21255514785580       -4.50008023743294
H           -9.14167780586931       -2.25261430306565       -5.64770769911835
C           -6.71695442732707       -1.25636739415148       -3.46048401704339
H           -7.83416258275082       -0.28537287009599       -5.03989121563662
C           -6.50498588880252       -2.53064413306584       -2.86949475610170
H           -7.01429388225360       -4.59506789652525       -2.77824873007357
C           -6.05182720256834        1.04739574122792       -3.23736823151472
C           -7.24899079540991        1.76387662686723       -3.49700025217600
H           -4.00288845127250        3.77342630252220       -2.97406916101273
H           -3.97982533177888        1.31183907131197       -2.78797458685228
C           -7.25137969561504        3.13645284640621       -3.61297808088762
H           -8.18295176891953        1.22011249143301       -3.57823897738403
C           -6.09117329906166        3.87986452102283       -3.45204795277351
H           -8.18414622200122        3.64639063394726       -3.83544670127230
C           -4.91374227787053        3.20837765416515       -3.13896238201313
H           -6.10437467255499        4.95500354029361       -3.55302898724299
C           -4.89133402351340        1.84065956670526       -3.03460836251746
23
 energy: -33.968832576301 gnorm: 0.004536794417 xtb: 6.7.1 (edcfbbe)
C           -7.23663500298811       -3.63376248620577       -3.23815838615410
C           -8.19497918598278       -3.54619471717895       -4.24192096438169
N           -5.88873316826874       -0.27592943035829       -3.05533326622621
H           -5.76960342029042       -2.59139170790857       -2.07527349209271
C           -8.38452286267596       -2.32446440016244       -4.87223811449349
H           -8.76842736035095       -4.41349522154308       -4.53455905017379
C           -7.65923727210968       -1.21001825120721       -4.50991795013273
H           -9.11708920332489       -2.24275847737846       -5.66911737821163
C           -6.70928967847279       -1.25784867741629       -3.45831480068621
H           -7.79379966543395       -0.28347180714459       -5.05567258086426
C           -6.51952124285465       -2.52791275893780       -2.85345816520812
H           -7.05211021439057       -4.58751569596970       -2.75576920076346
C           -6.04101611428591        1.04353922204246       -3.24010320050689
C           -7.24626507669287        1.75139641982884       -3.48066499836618
H           -4.00542301503186        3.78199598357316       -3.00665387320898
H           -3.96233252278196        1.31971661655347       -2.82578337097580
C           -7.26001249184748        3.12469144986065       -3.59638631694976
H           -8.17672381575834        1.19973859037188       -3.54852915769612
C           -6.10147944003600        3.87417692967762       -3.45111014937622
H           -8.19878331174018        3.62893583066700       -3.80459721416259
C           -4.91460977348643        3.21090901057094       -3.15811184227965
H           -6.12349936243187        4.94980150291760       -3.54865124640407
C           -4.88203979876309        1.84219307534744       -3.05664828068586
23
 energy: -33.969223276187 gnorm: 0.003574677802 xtb: 6.7.1 (edcfbbe)
C           -7.25919698400115       -3.62590835479383       -3.22441273434863
C           -8.20080365529100       -3.53405135275051       -4.24275531993948
N           -5.87273204062846       -0.28048416744632       -3.05611031724859
H           -5.79902778593419       -2.59438360708600       -2.04592651343023
C           -8.36858940023524       -2.31531447592542       -4.88505980833383
H           -8.78006964410531       -4.39721491616868       -4.53778257857692
C           -7.63412491770109       -1.20762557216474       -4.52043777318996
H           -9.08872858951389       -2.23069433305598       -5.69228534715621
C           -6.70001250299412       -1.25930282783144       -3.45567426587912
H           -7.75007929012863       -0.28268656290240       -5.07348559683995
C           -6.53486458463907       -2.52499592861898       -2.83713515420917
H           -7.09366633672178       -4.57730512865970       -2.73136129516652
C           -6.02890304959823        1.03896458607098       -3.24226342844766
C           -7.24263407294383        1.73751690787140       -3.46289492462085
H           -4.00905698145292        3.79021906851730       -3.04291986970061
H           -3.94298532023910        1.33107261030644       -2.86649130145621
C           -7.26915126754710        3.11066413781980       -3.57810833494595
H           -8.16953653271597        1.17823108545789       -3.51704351201131
C           -6.11320798226765        3.86725627249766       -3.45029945642056
H           -8.21470501036460        3.60764205577942       -3.77037231668750
C           -4.91660259351110        3.21323325277667       -3.17886044755814
H           -6.14507454741480        4.94331444404630       -3.54519476841928
C           -4.87237991005013        1.84418380625999       -3.08009793541393
23
 energy: -33.969604842317 gnorm: 0.003095286728 xtb: 6.7.1 (edcfbbe)
C           -7.28376023025616       -3.61644952344256       -3.21004794425173
C           -8.20771549008386       -3.52066008565097       -4.24353568249311
N           -5.85573193713458       -0.28556235282009       -3.05456364459040
H           -5.82942865775807       -2.59801040670917       -2.01676699343408
C           -8.35025779332583       -2.30538707065605       -4.89858491342118
H           -8.79427644193416       -4.37871092033332       -4.54048018947309
C           -7.60676658120003       -1.20533638474748       -4.53133219063183
H           -9.05632650002392       -2.21743053541624       -5.71745775708310
C           -6.68924076424698       -1.26053672768905       -3.45252102750114
H           -7.70354420780946       -0.28257319260464       -5.09219783030784
C           -6.55055752527050       -2.52195762480238       -2.82073692453237
H           -7.13864987837222       -4.56475829873863       -2.70545957225721
C           -6.01624453280370        1.03357418951857       -3.24345483417557
C           -7.23855989853262        1.72269598793080       -3.44389714362485
H           -4.01361267063313        3.79792246897162       -3.08332191853745
H           -3.92352494923388        1.34383169538515       -2.90909278358413
C           -7.27854876455424        3.09503558345103       -3.55784070268513
H           -8.16166251217268        1.15570368129396       -3.48423960864776
C           -6.12588856550334        3.85974401827211       -3.44990359427425
H           -8.23139260496649        3.58385474338088       -3.73249713964584
C           -4.91957882058300        3.21508784351454       -3.20172150473586
H           -6.16805609906576        4.93593462171529       -3.54294207978831
C           -4.86280757453462        1.84631929017647       -3.10437702032451
23
 energy: -33.969955113549 gnorm: 0.002449453494 xtb: 6.7.1 (edcfbbe)
C           -7.30927120496544       -3.60585942623837       -3.19589034182980
C           -8.21519108417755       -3.50672438756948       -4.24458262862853
N           -5.83892786096457       -0.29077599258858       -3.05103628469552
H           -5.85987580418493       -2.60069256627507       -1.98818730771221
C           -8.33020516211634       -2.29536984594875       -4.91234419699106
H           -8.80983652890566       -4.35887918047467       -4.54306372291751
C           -7.57818888868149       -1.20320438062068       -4.54194585593388
H           -9.02064842857287       -2.20432932248502       -5.74412718080016
C           -6.67780742400876       -1.26156767442275       -3.44865656218686
H           -7.65497794741578       -0.28289589772162       -5.11061529834602
C           -6.56599460849130       -2.51888871285328       -2.80474758265957
H           -7.18626136943088       -4.55054339480731       -2.67888956817670
C           -6.00374185830643        1.02764245333866       -3.24387684586683
C           -7.23440060365204        1.70759698000091       -3.42403880514116
H           -4.01891133920063        3.80511120528151       -3.12746494082989
H           -3.90552555390577        1.35594456131745       -2.95250026936587
C           -7.28775433088447        3.07880430050908       -3.53622829347095
H           -8.15342517104356        1.13266337337623       -3.45003019578525
C           -6.13888069516974        3.85212871482196       -3.45004917031001
H           -8.24790565353838        3.55940418794019       -3.69185102847441
C           -4.92341928770208        3.21641054985753       -3.22612600914412
H           -6.19115434913450        4.92806747183371       -3.54190513561182
C           -4.85382784554592        1.84828798372816       -3.12881577512273
23
 energy: -33.970262736605 gnorm: 0.001871009749 xtb: 6.7.1 (edcfbbe)
C           -7.33560598763281       -3.59441753233125       -3.18160104866512
C           -8.22268832701286       -3.49258320892464       -4.24604535027137
N           -5.82295512269845       -0.29586973094671       -3.04624321366561
H           -5.89053871641625       -2.60149369269401       -1.95968667772244
C           -8.30854228536801       -2.28578629165689       -4.92670323226775
H           -8.82543323617003       -4.33839896064816       -4.54613499347664
C           -7.54872812127990       -1.20132683795855       -4.55232296750443
H           -8.98263765667034       -2.19222083447523       -5.77155617848762
C           -6.66619038173741       -1.26258570999272       -3.44430776534917
H           -7.60502236560350       -0.28339115869036       -5.12773644153152
C           -6.58146542860256       -2.51568089828778       -2.78869844465789
H           -7.23546939814728       -4.53517488342618       -2.65278167093459
C           -5.99189612182927        1.02152579785433       -3.24349726296363
C           -7.23048561950917        1.69265657838702       -3.40310438079087
H           -4.02498346741490        3.81179289011262       -3.17461043329102
H           -3.88953308940012        1.36625969318442       -2.99671061169467
C           -7.29666977379217        3.06267335719574       -3.51346481126627
H           -8.14495640417446        1.10945642791898       -3.41423705420829
C           -6.15176561428952        3.84450014051764       -3.45075137719216
H           -8.26360360799594        3.53552585129568       -3.64923415186932
C           -4.92772347689087        3.21713238508598       -3.25220178188380
H           -6.21365265876812        4.91989010893941       -3.54184329896430
C           -4.84558613859505        1.84984750954043       -3.15349985134252
23
 energy: -33.970625564524 gnorm: 0.002555705406 xtb: 6.7.1 (edcfbbe)
C           -7.37554419417984       -3.57612513115436       -3.16069443628558
C           -8.23286877212724       -3.47106060350752       -4.24931281168317
N           -5.80062757596892       -0.30310329549933       -3.03812031755187
H           -5.93855990258635       -2.59908781363796       -1.91550688109989
C           -8.27415314654813       -2.27235125553862       -4.94881459783504
H           -8.84718043617013       -4.30714922732932       -4.55231711444607
C           -7.50352549590591       -1.19901974785262       -4.56736288782992
H           -8.92184373708474       -2.17652853086859       -5.81435739896993
C           -6.64954193816717       -1.26418351721815       -3.43673041577930
H           -7.52703661366913       -0.28477187010771       -5.15219448039290
C           -6.60554084389176       -2.51014098631933       -2.76391445954220
H           -7.31259499717537       -4.51027811963888       -2.61340762706453
C           -5.97528920180998        1.01245138586501       -3.24217633236436
C           -7.22512655825836        1.67073159831921       -3.36934787617694
H           -4.03499639468351        3.82089312406529       -3.25080775372221
H           -3.86835350741076        1.37842604176398       -3.06593753698232
C           -7.30955007477567        3.03904797213170       -3.47746656211455
H           -8.13213125351965        1.07486231203627       -3.35616392595446
C           -6.17066625212738        3.83271568033762       -3.45249236127722
H           -8.28573704055501        3.50142372232440       -3.58155187793462
C           -4.93471018692150        3.21724731524121       -3.29373611378921
H           -6.24611185281660        4.90702002305402       -3.54301982187519
C           -4.83444302364568        1.85131192353341       -3.19153940932971
23
 energy: -33.970809504759 gnorm: 0.003033378704 xtb: 6.7.1 (edcfbbe)
C           -7.40614067048957       -3.56158714632768       -3.14421733727877
C           -8.23891944003059       -3.45566150151708       -4.25218407973884
N           -5.78587704772411       -0.30785727822132       -3.03281937872834
H           -5.97677428665112       -2.59361689814803       -1.88174506342120
C           -8.24707624772056       -2.26439492049045       -4.96619745442549
H           -8.85983604521801       -4.28525385927883       -4.55873800398856
C           -7.46982911560440       -1.19843876364201       -4.57856537646086
H           -8.87484669564974       -2.16857235708897       -5.84618443241703
C           -6.63866173564575       -1.26541837839302       -3.43098247318808
H           -7.46907154495637       -0.28719828266804       -5.16864894360891
C           -6.62554798832771       -2.50450507916259       -2.74406579044031
H           -7.36944655594332       -4.49011963761800       -2.58638636892072
C           -5.96441078055185        1.00630121131421       -3.24110395205327
C           -7.22152789437438        1.65578704497635       -3.34233203027896
H           -4.04336118806649        3.82607066114958       -3.30989912544349
H           -3.85576605851579        1.38462072128889       -3.11932885633696
C           -7.31802136258266        3.02303497228301       -3.44939576176239
H           -8.12256511749514        1.05110613049255       -3.30949796556122
C           -6.18350584000635        3.82383281096934       -3.45387574220006
H           -8.29952573627817        3.47907246940970       -3.52911679503451
C           -4.93989483808083        3.21637133918769       -3.32632758493467
H           -6.26800119051300        4.89733620824298       -3.54417839633921
C           -4.82752561957270        1.85142153324140       -3.22118208743951
23
 energy: -33.970914312871 gnorm: 0.003480963937 xtb: 6.7.1 (edcfbbe)
C           -7.43658072935957       -3.54573399698253       -3.12994401614733
C           -8.24269349736636       -3.44011141657297       -4.25707750366132
N           -5.77173405516457       -0.31250548395071       -3.02749502142937
H           -6.02134883170163       -2.58425579717526       -1.84380060583594
C           -8.21796717922748       -2.25772379128881       -4.98385235254088
H           -8.87003411353645       -4.26332973821062       -4.56716473786865
C           -7.43496452834281       -1.19883845843298       -4.58916329048658
H           -8.82231962813861       -2.16399544170478       -5.88077525381236
C           -6.62881400526432       -1.26667030089752       -3.42430207665325
H           -7.40716280841787       -0.29150521593949       -5.18521194767297
C           -6.64737135585040       -2.49722997869945       -2.72399757891149
H           -7.43350271410958       -4.46697163189211       -2.55551417008417
C           -5.95406539503030        1.00025294714171       -3.23951588321521
C           -7.21764938057121        1.64113279222370       -3.31176219285300
H           -4.05281664747543        3.83029553286058       -3.37638000432590
H           -3.84461054448334        1.38927917177496       -3.17950750706832
C           -7.32577325428314        3.00732939265451       -3.41804987245536
H           -8.11198690492729        1.02784705377189       -3.25696327998688
C           -6.19610839250362        3.81445195373588       -3.45515486833377
H           -8.31179615991653        3.45778007464870       -3.47031413382474
C           -4.94587706313688        3.21483403718155       -3.36174151011249
H           -6.28927849186591        4.88708736323051       -3.54572441503030
C           -4.82167731932513        1.85091193252292       -3.25356077769125
23
 energy: -33.970938773200 gnorm: 0.002299001292 xtb: 6.7.1 (edcfbbe)
C           -7.44999020530760       -3.53940080512822       -3.12185199951280
C           -8.24365831709026       -3.43609501435422       -4.25807650995642
N           -5.76830577246887       -0.31358543513793       -3.02602591124607
H           -6.03914938620164       -2.57842860208561       -1.83130955776696
C           -8.20600525725355       -2.25780361457693       -4.99124257339943
H           -8.87019371450269       -4.25831532434783       -4.57180353777063
C           -7.42293069258486       -1.20032457304822       -4.59307911538972
H           -8.80213496228559       -2.16592131355850       -5.89277423995022
C           -6.62687076632562       -1.26698496075930       -3.42172467309731
H           -7.38691346986813       -0.29471286888480       -5.18969958575368
C           -6.65838696323709       -2.49316714295086       -2.71456378018764
H           -7.45268693826950       -4.45755370143276       -2.54923286418688
C           -5.95143310166999        0.99870254957054       -3.23925682400140
C           -7.21606082156084        1.63764792283340       -3.30004754134504
H           -4.05705058866549        3.83030102331921       -3.40083006822244
H           -3.84365776937624        1.38915026038647       -3.20192213488583
C           -7.32706040707206        3.00361722980405       -3.40577770399819
H           -8.10795681364513        1.02234366430330       -3.23654686352314
C           -6.19920637647896        3.81170560407310       -3.45539935350377
H           -8.31325376106484        3.45321463024484       -3.44795451214693
C           -4.94783389538352        3.21369845755753       -3.37568851620697
H           -6.29464204438743        4.88412098342458       -3.54579321884405
C           -4.82075097529850        1.85012203074784       -3.26637191510607
23
 energy: -33.970946084200 gnorm: 0.001169121655 xtb: 6.7.1 (edcfbbe)
C           -7.45145516847109       -3.53834330066678       -3.12226488412871
C           -8.24169336385025       -3.43624988931991       -4.26001522790130
N           -5.76820320806673       -0.31361484349236       -3.02595129354933
H           -6.04656610133432       -2.57559761518934       -1.82613682155965
C           -8.20260330984706       -2.25906364605289       -4.99315628762820
H           -8.86791376742823       -4.25881262276956       -4.57392164530856
C           -7.42067555034864       -1.20121661892676       -4.59369256352648
H           -8.79629914695961       -2.16843807506712       -5.89573036435931
C           -6.62707749775864       -1.26708107969251       -3.42134066826598
H           -7.38326677023691       -0.29605908721432       -5.19003736163294
C           -6.66109986814580       -2.49172459552833       -2.71337427093778
H           -7.46069625693852       -4.45500277626234       -2.54451571268912
C           -5.95142862333953        0.99876922061873       -3.23875924272819
C           -7.21567116237029        1.63776709278481       -3.29617664181408
H           -4.05784866094462        3.82982204679447       -3.40886820866417
H           -3.84392879533150        1.38848012782497       -3.20989421332404
C           -7.32678376788291        3.00379956130562       -3.40165078525231
H           -8.10691387413366        1.02253013594908       -3.23078055005827
C           -6.19936976817013        3.81149098328842       -3.45487291027566
H           -8.31250239519213        3.45371349147579       -3.44078674145895
C           -4.94817511295822        3.21339423118224       -3.37958340628008
H           -6.29490164554889        4.88398343445787       -3.54526544768183
C           -4.82105918474070        1.84978482449988       -3.27019775097667
23
 energy: -33.970950477508 gnorm: 0.000900616297 xtb: 6.7.1 (edcfbbe)