 Entering Gaussian System
 *********************************************
 Gaussian 98:
 frequency output generated by the xtb code
 *********************************************
                         Standard orientation:
 --------------------------------------------------------------------
  Center     Atomic     Atomic              Coordinates (Angstroms)
  Number     Number      Type              X           Y           Z
 --------------------------------------------------------------------
    1          6             0       -2.084311   -2.838788    1.550373
    2          6             0       -2.515178   -2.186042    0.419207
    3          6             0       -3.706252   -2.522740   -0.200334
    4          6             0       -4.462027   -3.557203    0.367735
    5          6             0       -4.050852   -4.229190    1.504732
    6          6             0       -2.822583   -3.905891    2.171611
    7          8             0       -2.426780   -4.496239    3.199912
    8          1             0       -1.147896   -2.554024    2.013978
    9          1             0       -1.911252   -1.388312   -0.000963
   10          1             0       -4.056288   -2.019821   -1.087261
   11          7             0       -5.682786   -3.916679   -0.250652
   12          1             0       -4.665602   -5.020387    1.908043
   13          8             0       -6.038684   -3.312654   -1.260331
   14          8             0       -6.359410   -4.818569    0.230202
 --------------------------------------------------------------------
     1 basis functions        1 primitive gaussians
     1 alpha electrons        1 beta electrons
 
 Harmonic frequencies (cm**-1), IR intensities (km*mol⁻¹),
 Raman scattering activities (A**4/amu), Raman depolarization ratios,
 reduced masses (AMU), force constants (mDyne/A) and normal coordinates:
                      1                      2                      3
                        a                      a                      a 
 Frequencies --    33.5234               146.8079               179.7409
 Red. masses --    15.2322                11.5409                11.4494
 Frc consts  --     0.0000                 0.0000                 0.0000
 IR Inten    --     1.5331                 6.5286                 6.7906
 Raman Activ --     0.0000                 0.0000                 0.0000
 Depolar     --     0.0000                 0.0000                 0.0000
 Atom AN      X      Y      Z        X      Y      Z        X      Y      Z
   1   6    -0.04   0.06   0.05    -0.17   0.24   0.20    -0.20   0.28   0.24
   2   6    -0.11   0.15   0.13    -0.05   0.06   0.06     0.00  -0.00  -0.00
   3   6    -0.08   0.11   0.10     0.17  -0.23  -0.20     0.20  -0.27  -0.23
   4   6    -0.01   0.02   0.02     0.21  -0.29  -0.25    -0.02   0.02   0.02
   5   6     0.04  -0.06  -0.05     0.24  -0.33  -0.28    -0.22   0.30   0.26
   6   6     0.04  -0.06  -0.05     0.02  -0.02  -0.02    -0.05   0.07   0.06
   7   8     0.13  -0.18  -0.15    -0.07   0.10   0.09     0.26  -0.35  -0.30
   8   1    -0.02   0.02   0.02    -0.12   0.17   0.14    -0.09   0.13   0.11
   9   1    -0.05   0.07   0.06    -0.05   0.06   0.05     0.01  -0.02  -0.01
  10   1    -0.04   0.06   0.05     0.06  -0.08  -0.07     0.13  -0.18  -0.15
  11   7     0.00  -0.01  -0.00     0.01  -0.01  -0.01     0.00  -0.00  -0.00
  12   1     0.03  -0.04  -0.04     0.08  -0.11  -0.10    -0.10   0.14   0.12
  13   8     0.32  -0.44  -0.38    -0.14   0.19   0.16    -0.00   0.01   0.01
  14   8    -0.29   0.40   0.34    -0.15   0.20   0.17     0.02  -0.02  -0.02
                      4                      5                      6
                        a                      a                      a 
 Frequencies --   212.0283               380.2681               382.8511
 Red. masses --    14.3813                13.7300                 9.6712
 Frc consts  --     0.0000                 0.0000                 0.0000
 IR Inten    --     4.4507                 0.2736                 1.5273
 Raman Activ --     0.0000                 0.0000                 0.0000
 Depolar     --     0.0000                 0.0000                 0.0000
 Atom AN      X      Y      Z        X      Y      Z        X      Y      Z
   1   6     0.03  -0.03   0.06     0.31   0.05   0.21     0.20  -0.27  -0.23
   2   6     0.14   0.06   0.06     0.20  -0.05   0.21    -0.24   0.34   0.29
   3   6     0.16   0.21  -0.10     0.17  -0.01   0.15     0.08  -0.11  -0.09
   4   6     0.08   0.22  -0.19    -0.09   0.01  -0.08     0.19  -0.26  -0.22
   5   6    -0.02   0.16  -0.20     0.14   0.13  -0.04    -0.16   0.22   0.18
   6   6    -0.09  -0.02  -0.06     0.19   0.08   0.07     0.08  -0.10  -0.09
   7   8    -0.40  -0.22  -0.08     0.17   0.05   0.08    -0.04   0.06   0.05
   8   1     0.01  -0.03   0.04     0.09   0.01   0.06     0.06  -0.08  -0.07
   9   1     0.07   0.01   0.05     0.04  -0.01   0.04    -0.17   0.23   0.20
  10   1     0.08   0.08  -0.03     0.10   0.04   0.04     0.02  -0.02  -0.02
  11   7     0.05   0.00   0.04    -0.27  -0.04  -0.18     0.07  -0.11  -0.09
  12   1    -0.03   0.05  -0.08     0.07   0.03   0.02    -0.14   0.20   0.17
  13   8    -0.33  -0.26   0.03    -0.48  -0.17  -0.21    -0.05   0.06   0.05
  14   8     0.38  -0.06   0.39    -0.31  -0.05  -0.20    -0.04   0.05   0.04
                      7                      8                      9
                        a                      a                      a 
 Frequencies --   430.1823               487.9799               497.0166
 Red. masses --    13.9067                11.1275                12.5768
 Frc consts  --     0.0000                 0.0000                 0.0000
 IR Inten    --     2.2031                11.5109                 2.1732
 Raman Activ --     0.0000                 0.0000                 0.0000
 Depolar     --     0.0000                 0.0000                 0.0000
 Atom AN      X      Y      Z        X      Y      Z        X      Y      Z
   1   6    -0.28  -0.23   0.03    -0.03   0.04   0.03    -0.08  -0.03  -0.03
   2   6    -0.01  -0.07   0.07     0.08  -0.11  -0.09    -0.31  -0.14  -0.10
   3   6     0.02   0.05  -0.04    -0.15   0.21   0.18    -0.23   0.10  -0.32
   4   6     0.03   0.07  -0.06     0.23  -0.32  -0.27     0.03   0.09  -0.08
   5   6    -0.20  -0.15   0.01    -0.09   0.12   0.10     0.30   0.23  -0.02
   6   6    -0.19  -0.22   0.10    -0.23   0.32   0.27     0.27  -0.09   0.33
   7   8     0.53   0.26   0.14     0.10  -0.13  -0.11     0.05  -0.32   0.41
   8   1    -0.09  -0.10   0.05     0.12  -0.16  -0.14     0.00   0.11  -0.12
   9   1     0.04  -0.03   0.07     0.08  -0.11  -0.09    -0.06  -0.04  -0.00
  10   1     0.01   0.02  -0.01    -0.07   0.09   0.08    -0.06   0.03  -0.09
  11   7     0.04   0.16  -0.15     0.19  -0.26  -0.22     0.01   0.05  -0.05
  12   1    -0.12  -0.03  -0.07     0.09  -0.12  -0.10     0.05   0.07  -0.04
  13   8    -0.27  -0.03  -0.19    -0.08   0.10   0.09    -0.05   0.02  -0.07
  14   8     0.29   0.14   0.09    -0.08   0.11   0.09     0.03   0.06  -0.04
                     10                     11                     12
                        a                      a                      a 
 Frequencies --   557.6783               624.3413               659.6020
 Red. masses --    12.8807                 8.5692                12.7182
 Frc consts  --     0.0000                 0.0000                 0.0000
 IR Inten    --     0.5989                 0.1011                17.0812
 Raman Activ --     0.0000                 0.0000                 0.0000
 Depolar     --     0.0000                 0.0000                 0.0000
 Atom AN      X      Y      Z        X      Y      Z        X      Y      Z
   1   6    -0.16  -0.15   0.04    -0.10   0.14   0.12     0.17  -0.08   0.24
   2   6     0.11   0.04   0.05     0.18  -0.25  -0.21    -0.24  -0.42   0.29
   3   6     0.14   0.29  -0.22    -0.18   0.24   0.21    -0.16  -0.10  -0.02
   4   6     0.08   0.21  -0.18     0.16  -0.22  -0.19    -0.25  -0.01  -0.20
   5   6    -0.03   0.14  -0.19    -0.09   0.13   0.11     0.01   0.20  -0.22
   6   6    -0.12  -0.11   0.03     0.22  -0.31  -0.26    -0.00   0.10  -0.11
   7   8     0.19   0.10   0.05    -0.05   0.07   0.06     0.07   0.19  -0.16
   8   1    -0.05  -0.08   0.05    -0.18   0.25   0.21     0.05  -0.00   0.05
   9   1     0.10  -0.00   0.09    -0.02   0.02   0.02    -0.09  -0.11   0.06
  10   1     0.10   0.12  -0.06    -0.10   0.14   0.12     0.08   0.06  -0.00
  11   7    -0.05  -0.23   0.22    -0.00   0.00   0.00    -0.11  -0.04  -0.04
  12   1    -0.10   0.06  -0.15    -0.17   0.24   0.21     0.03   0.05  -0.04
  13   8     0.24  -0.07   0.28     0.00  -0.00  -0.00     0.26   0.22  -0.03
  14   8    -0.42  -0.21  -0.11     0.00  -0.00  -0.00     0.16  -0.10   0.25
                     13                     14                     15
                        a                      a                      a 
 Frequencies --   729.3510               762.7598               790.4360
 Red. masses --     9.5607                 7.1627                 6.9783
 Frc consts  --     0.0000                 0.0000                 0.0000
 IR Inten    --    81.9093                 1.8150                16.0232
 Raman Activ --     0.0000                 0.0000                 0.0000
 Depolar     --     0.0000                 0.0000                 0.0000
 Atom AN      X      Y      Z        X      Y      Z        X      Y      Z
   1   6     0.06  -0.08  -0.07     0.01  -0.02  -0.02    -0.14   0.19   0.16
   2   6     0.03  -0.04  -0.03     0.06  -0.08  -0.07    -0.02   0.04   0.03
   3   6     0.10  -0.13  -0.11     0.16  -0.21  -0.18     0.07  -0.10  -0.08
   4   6     0.14  -0.19  -0.16    -0.17   0.23   0.20     0.08  -0.11  -0.10
   5   6     0.03  -0.04  -0.03    -0.06   0.08   0.07    -0.18   0.25   0.21
   6   6    -0.19   0.26   0.22     0.03  -0.03  -0.03     0.20  -0.27  -0.23
   7   8     0.06  -0.08  -0.07    -0.01   0.01   0.01    -0.06   0.08   0.07
   8   1    -0.06   0.08   0.07    -0.09   0.13   0.11     0.19  -0.27  -0.23
   9   1    -0.09   0.12   0.10    -0.11   0.16   0.13     0.04  -0.05  -0.04
  10   1    -0.25   0.34   0.29    -0.29   0.40   0.34    -0.07   0.10   0.09
  11   7    -0.28   0.38   0.33     0.23  -0.31  -0.27    -0.13   0.17   0.14
  12   1    -0.03   0.04   0.03     0.09  -0.12  -0.10     0.26  -0.36  -0.31
  13   8     0.08  -0.11  -0.09    -0.07   0.09   0.08     0.03  -0.04  -0.04
  14   8     0.09  -0.12  -0.10    -0.06   0.08   0.07     0.04  -0.05  -0.04
                     16                     17                     18
                        a                      a                      a 
 Frequencies --   791.5147               853.6521               909.3576
 Red. masses --    14.3110                 3.3573                 3.2249
 Frc consts  --     0.0000                 0.0000                 0.0000
 IR Inten    --    26.3347                 0.1802                 0.0309
 Raman Activ --     0.0000                 0.0000                 0.0000
 Depolar     --     0.0000                 0.0000                 0.0000
 Atom AN      X      Y      Z        X      Y      Z        X      Y      Z
   1   6    -0.04   0.07  -0.12     0.15  -0.20  -0.17     0.10  -0.14  -0.12
   2   6     0.21   0.30  -0.17     0.07  -0.09  -0.08    -0.18   0.24   0.21
   3   6     0.11   0.00   0.09    -0.08   0.11   0.09     0.03  -0.04  -0.03
   4   6    -0.18  -0.05  -0.09     0.03  -0.03  -0.03     0.04  -0.05  -0.04
   5   6    -0.06  -0.03  -0.02    -0.12   0.17   0.14    -0.05   0.07   0.06
   6   6     0.02  -0.08   0.12    -0.03   0.04   0.04     0.03  -0.04  -0.03
   7   8     0.07  -0.14   0.21     0.01  -0.01  -0.01    -0.00   0.00   0.00
   8   1    -0.01   0.01  -0.01    -0.24   0.34   0.29    -0.21   0.28   0.24
   9   1     0.04   0.09  -0.06    -0.15   0.21   0.18     0.37  -0.51  -0.43
  10   1     0.02  -0.00   0.02     0.17  -0.23  -0.20    -0.08   0.12   0.10
  11   7    -0.37  -0.12  -0.18    -0.04   0.05   0.04     0.00  -0.00  -0.00
  12   1    -0.02  -0.01   0.00     0.27  -0.37  -0.32     0.05  -0.06  -0.05
  13   8     0.19   0.35  -0.25     0.01  -0.01  -0.01    -0.00   0.00   0.00
  14   8     0.02  -0.31   0.38     0.01  -0.01  -0.01    -0.00   0.00   0.00
                     19                     20                     21
                        a                      a                      a 
 Frequencies --   945.3159               974.6083              1110.7940
 Red. masses --    10.2226                11.2120                 5.3731
 Frc consts  --     0.0000                 0.0000                 0.0000
 IR Inten    --    11.1144                 3.8952                13.5010
 Raman Activ --     0.0000                 0.0000                 0.0000
 Depolar     --     0.0000                 0.0000                 0.0000
 Atom AN      X      Y      Z        X      Y      Z        X      Y      Z
   1   6     0.52   0.30   0.09     0.10  -0.02   0.10    -0.17   0.01  -0.16
   2   6    -0.04   0.01  -0.04    -0.06  -0.12   0.10    -0.04  -0.06   0.03
   3   6    -0.10   0.06  -0.16    -0.03   0.34  -0.43     0.19   0.10   0.05
   4   6    -0.07   0.05  -0.12     0.27   0.03   0.20    -0.33  -0.09  -0.17
   5   6    -0.45  -0.28  -0.06    -0.05  -0.32   0.34    -0.16  -0.16   0.05
   6   6    -0.04  -0.09   0.07     0.07   0.10  -0.06     0.14   0.09   0.01
   7   8     0.09  -0.09   0.19    -0.09   0.06  -0.14     0.00  -0.04   0.05
   8   1     0.16   0.15  -0.04     0.03   0.01   0.01    -0.00   0.25  -0.29
   9   1    -0.12   0.03  -0.14     0.13  -0.06   0.17     0.07  -0.04   0.10
  10   1    -0.00   0.04  -0.05    -0.01   0.09  -0.12     0.48   0.33   0.02
  11   7     0.07   0.01   0.05    -0.14  -0.04  -0.08     0.06   0.02   0.02
  12   1    -0.27  -0.05  -0.17     0.08  -0.11   0.20     0.19  -0.10   0.28
  13   8     0.03  -0.06   0.10    -0.03   0.15  -0.20     0.03  -0.08   0.12
  14   8     0.02   0.05  -0.04    -0.08  -0.17   0.13     0.06   0.09  -0.06
                     22                     23                     24
                        a                      a                      a 
 Frequencies --  1119.0125              1175.9643              1226.4786
 Red. masses --     6.6541                 2.5640                 6.2113
 Frc consts  --     0.0000                 0.0000                 0.0000
 IR Inten    --     8.9586                 5.5365                 0.1398
 Raman Activ --     0.0000                 0.0000                 0.0000
 Depolar     --     0.0000                 0.0000                 0.0000
 Atom AN      X      Y      Z        X      Y      Z        X      Y      Z
   1   6    -0.11   0.05  -0.15    -0.04  -0.05   0.02     0.11   0.07   0.02
   2   6    -0.17  -0.20   0.09     0.11   0.02   0.06     0.06  -0.04   0.09
   3   6     0.19  -0.08   0.25    -0.00  -0.00   0.00     0.04   0.00   0.03
   4   6     0.39   0.14   0.17    -0.12  -0.05  -0.04     0.13   0.15  -0.07
   5   6    -0.02  -0.00  -0.01    -0.17   0.00  -0.15     0.09   0.10  -0.04
   6   6     0.06   0.03   0.02     0.16   0.11   0.01    -0.49  -0.35  -0.01
   7   8    -0.05   0.03  -0.07     0.00  -0.00   0.00     0.06   0.04   0.00
   8   1     0.03   0.32  -0.36     0.05   0.27  -0.27     0.09   0.33  -0.31
   9   1    -0.09  -0.05  -0.02     0.43  -0.07   0.46    -0.12   0.02  -0.12
  10   1     0.16   0.05   0.08    -0.45  -0.32  -0.01    -0.16  -0.12   0.01
  11   7    -0.06  -0.01  -0.03    -0.02  -0.01  -0.01     0.02  -0.01   0.03
  12   1    -0.32   0.07  -0.35    -0.05   0.00  -0.04     0.36  -0.04   0.35
  13   8    -0.04   0.07  -0.12     0.03  -0.03   0.06    -0.01   0.03  -0.04
  14   8    -0.09  -0.13   0.07     0.04   0.05  -0.02    -0.05  -0.05   0.01
                     25                     26                     27
                        a                      a                      a 
 Frequencies --  1278.3209              1338.1214              1375.7282
 Red. masses --     7.8789                14.5073                 8.3817
 Frc consts  --     0.0000                 0.0000                 0.0000
 IR Inten    --     2.7999               944.5178                30.4299
 Raman Activ --     0.0000                 0.0000                 0.0000
 Depolar     --     0.0000                 0.0000                 0.0000
 Atom AN      X      Y      Z        X      Y      Z        X      Y      Z
   1   6     0.13   0.19  -0.11     0.02  -0.03   0.05    -0.08  -0.32   0.31
   2   6     0.15   0.07   0.04    -0.04   0.03  -0.07     0.20   0.12   0.03
   3   6    -0.30  -0.13  -0.11     0.05   0.03   0.01     0.07   0.20  -0.17
   4   6    -0.14  -0.16   0.07    -0.22  -0.11  -0.07    -0.27  -0.22   0.03
   5   6     0.35   0.07   0.22     0.02   0.01  -0.00     0.18  -0.03   0.18
   6   6    -0.33  -0.25   0.01     0.02  -0.02   0.04     0.08  -0.04   0.11
   7   8    -0.02   0.05  -0.07    -0.01   0.03  -0.04    -0.08   0.13  -0.22
   8   1     0.04   0.07  -0.04     0.01   0.01  -0.00     0.05   0.24  -0.24
   9   1     0.30  -0.03   0.29     0.04  -0.00   0.03    -0.25   0.10  -0.32
  10   1     0.25   0.20  -0.03    -0.01  -0.01   0.00    -0.10  -0.02  -0.06
  11   7    -0.02  -0.00  -0.01     0.63   0.17   0.33    -0.06  -0.01  -0.03
  12   1    -0.18   0.07  -0.24    -0.04   0.01  -0.05    -0.17   0.03  -0.18
  13   8    -0.01  -0.01   0.00    -0.17   0.19  -0.37     0.02  -0.03   0.06
  14   8     0.05   0.05  -0.02    -0.26  -0.30   0.13     0.08   0.08  -0.03
                     28                     29                     30
                        a                      a                      a 
 Frequencies --  1450.2193              1502.3666              1548.9331
 Red. masses --    10.6221                11.2621                12.1557
 Frc consts  --     0.0000                 0.0000                 0.0000
 IR Inten    --    41.5565                 0.7521                17.7422
 Raman Activ --     0.0000                 0.0000                 0.0000
 Depolar     --     0.0000                 0.0000                 0.0000
 Atom AN      X      Y      Z        X      Y      Z        X      Y      Z
   1   6    -0.11   0.22  -0.35     0.14   0.15  -0.06     0.10  -0.13   0.24
   2   6     0.15  -0.20   0.36    -0.43  -0.14  -0.21    -0.23   0.13  -0.35
   3   6     0.05   0.03   0.01     0.56   0.34   0.08    -0.02  -0.18   0.19
   4   6    -0.16   0.25  -0.43    -0.20  -0.21   0.08     0.06   0.35  -0.36
   5   6     0.18  -0.19   0.38     0.15   0.04   0.08     0.07  -0.15   0.23
   6   6     0.05   0.04  -0.01    -0.19  -0.13  -0.01     0.11  -0.16   0.28
   7   8    -0.04  -0.03   0.01     0.01   0.01   0.01    -0.10   0.15  -0.26
   8   1    -0.07  -0.10   0.06     0.01  -0.09   0.11     0.04   0.01   0.03
   9   1    -0.12  -0.03  -0.07     0.03  -0.06   0.11     0.13  -0.00   0.11
  10   1    -0.22  -0.16  -0.00    -0.13  -0.11   0.02     0.04  -0.01   0.05
  11   7     0.03  -0.00   0.03    -0.08  -0.01  -0.06    -0.02   0.10  -0.14
  12   1    -0.11  -0.02  -0.07    -0.05   0.02  -0.07    -0.00  -0.04   0.04
  13   8     0.02  -0.00   0.02     0.02  -0.04   0.06     0.05  -0.06   0.12
  14   8    -0.02  -0.01   0.00     0.05   0.06  -0.02    -0.06  -0.07   0.03
                     31                     32                     33
                        a                      a                      a 
 Frequencies --  1579.8558              1624.9503              3005.5231
 Red. masses --    14.5144                12.3737                 1.7814
 Frc consts  --     0.0000                 0.0000                 0.0000
 IR Inten    --   383.5001               693.9272               109.5080
 Raman Activ --     0.0000                 0.0000                 0.0000
 Depolar     --     0.0000                 0.0000                 0.0000
 Atom AN      X      Y      Z        X      Y      Z        X      Y      Z
   1   6    -0.02   0.02  -0.04    -0.01   0.21  -0.26     0.04   0.01   0.02
   2   6     0.06  -0.03   0.08     0.09  -0.08   0.17    -0.15  -0.19   0.10
   3   6    -0.02   0.03  -0.05     0.01   0.05  -0.06    -0.01   0.00  -0.01
   4   6    -0.02  -0.10   0.10     0.01  -0.13   0.15    -0.00   0.00  -0.00
   5   6     0.01   0.04  -0.04    -0.16   0.08  -0.23     0.00   0.00   0.00
   6   6    -0.03   0.03  -0.06     0.23  -0.34   0.59     0.00   0.00   0.00
   7   8     0.02  -0.03   0.06    -0.13   0.20  -0.35    -0.00  -0.00   0.00
   8   1    -0.01  -0.00  -0.01    -0.03  -0.09   0.09    -0.17  -0.05  -0.09
   9   1    -0.03   0.00  -0.03    -0.03  -0.01  -0.02     0.53   0.69  -0.36
  10   1    -0.02   0.00  -0.02    -0.02  -0.00  -0.01     0.02  -0.03   0.05
  11   7     0.15   0.57  -0.54    -0.01   0.01  -0.01     0.00  -0.00   0.00
  12   1     0.01   0.01  -0.01     0.08  -0.01   0.08     0.00   0.00  -0.00
  13   8     0.10  -0.19   0.31    -0.00  -0.00   0.00    -0.00   0.00  -0.00
  14   8    -0.22  -0.31   0.17     0.01   0.01   0.00    -0.00  -0.00  -0.00
                     34                     35                     36
                        a                      a                      a 
 Frequencies --  3048.4350              3090.2268              3102.2621
 Red. masses --     1.8339                 1.8125                 1.8327
 Frc consts  --     0.0000                 0.0000                 0.0000
 IR Inten    --   117.0637                16.6278                19.3156
 Raman Activ --     0.0000                 0.0000                 0.0000
 Depolar     --     0.0000                 0.0000                 0.0000
 Atom AN      X      Y      Z        X      Y      Z        X      Y      Z
   1   6     0.23   0.07   0.12     0.00   0.00   0.00    -0.01  -0.00  -0.01
   2   6     0.04   0.05  -0.02    -0.00  -0.00  -0.00    -0.02  -0.02   0.01
   3   6     0.00  -0.01   0.01     0.01  -0.01   0.02     0.09  -0.13   0.22
   4   6     0.00   0.00   0.00    -0.01  -0.00  -0.00     0.01   0.00   0.01
   5   6     0.00   0.01  -0.00    -0.15  -0.20   0.10     0.01   0.02  -0.01
   6   6     0.01  -0.00   0.01     0.00  -0.01   0.01    -0.00   0.00  -0.00
   7   8    -0.00   0.00  -0.00    -0.00   0.00  -0.00     0.00  -0.00   0.00
   8   1    -0.81  -0.25  -0.40    -0.02  -0.01  -0.01     0.03   0.01   0.02
   9   1    -0.11  -0.14   0.07    -0.00   0.00  -0.00     0.04   0.05  -0.03
  10   1    -0.01   0.02  -0.04    -0.03   0.04  -0.07    -0.31   0.45  -0.79
  11   7    -0.00  -0.00  -0.00    -0.00  -0.00   0.00     0.00  -0.00   0.00
  12   1    -0.01  -0.02   0.01     0.54   0.70  -0.36    -0.05  -0.06   0.03
  13   8     0.00  -0.00   0.00     0.00   0.00   0.00     0.00   0.00  -0.00
  14   8     0.00   0.00   0.00     0.00   0.00  -0.00    -0.00  -0.00  -0.00
