      -----------------------------------------------------------      
     |                   =====================                   |     
     |                           x T B                           |     
     |                   =====================                   |     
     |                         S. Grimme                         |     
     |          Mulliken Center for Theoretical Chemistry        |     
     |                    University of Bonn                     |     
      -----------------------------------------------------------      

   * xtb version 6.7.1 (edcfbbe) compiled by 'albert@albert-system' on 2024-07-22

   xtb is free software: you can redistribute it and/or modify it under
   the terms of the GNU Lesser General Public License as published by
   the Free Software Foundation, either version 3 of the License, or
   (at your option) any later version.
   
   xtb is distributed in the hope that it will be useful,
   but WITHOUT ANY WARRANTY; without even the implied warranty of
   MERCHANTABILITY or FITNESS FOR A PARTICULAR PURPOSE.  See the
   GNU Lesser General Public License for more details.
   
   Cite this work as:
   * C. Bannwarth, E. Caldeweyher, S. Ehlert, A. Hansen, P. Pracht,
     J. Seibert, S. Spicher, S. Grimme, WIREs Comput. Mol. Sci., 2020, 11,
     e01493. DOI: 10.1002/wcms.1493
   
   for GFN2-xTB:
   * C. Bannwarth, S. Ehlert and S. Grimme., J. Chem. Theory Comput., 2019,
     15, 1652-1671. DOI: 10.1021/acs.jctc.8b01176
   for GFN1-xTB:
   * S. Grimme, C. Bannwarth, P. Shushkov, J. Chem. Theory Comput., 2017,
     13, 1989-2009. DOI: 10.1021/acs.jctc.7b00118
   for GFN0-xTB:
   * P. Pracht, E. Caldeweyher, S. Ehlert, S. Grimme, ChemRxiv, 2019, preprint.
     DOI: 10.26434/chemrxiv.8326202.v1
   for GFN-FF:
   * S. Spicher and S. Grimme, Angew. Chem. Int. Ed., 2020, 59, 15665-15673.
     DOI: 10.1002/anie.202004239
   
   for ALPB and GBSA implicit solvation:
   * S. Ehlert, M. Stahn, S. Spicher, S. Grimme, J. Chem. Theory Comput.,
     2021, 17, 4250-4261. DOI: 10.1021/acs.jctc.1c00471
   
   for ddCOSMO and CPCM-X implicit solvation:
   * M. Stahn, S. Ehlert, S. Grimme, J. Phys. Chem. A,
     2023, XX, XXXX-XXXX. DOI: 10.1021/acs.jpca.3c04382
   
   for DFT-D4:
   * E. Caldeweyher, C. Bannwarth and S. Grimme, J. Chem. Phys., 2017,
     147, 034112. DOI: 10.1063/1.4993215
   * E. Caldeweyher, S. Ehlert, A. Hansen, H. Neugebauer, S. Spicher,
     C. Bannwarth and S. Grimme, J. Chem. Phys., 2019, 150, 154122.
     DOI: 10.1063/1.5090222
   * E. Caldeweyher, J.-M. Mewes, S. Ehlert and S. Grimme, Phys. Chem. Chem. Phys.
     2020, 22, 8499-8512. DOI: 10.1039/D0CP00502A
   
   for sTDA-xTB:
   * S. Grimme and C. Bannwarth, J. Chem. Phys., 2016, 145, 054103.
     DOI: 10.1063/1.4959605
   
   in the mass-spec context:
   * V. Asgeirsson, C. Bauer and S. Grimme, Chem. Sci., 2017, 8, 4879.
     DOI: 10.1039/c7sc00601b
   * J. Koopman and S. Grimme, ACS Omega 2019, 4, 12, 15120-15133.
     DOI: 10.1021/acsomega.9b02011
   
   for metadynamics refer to:
   * S. Grimme, J. Chem. Theory Comput., 2019, 155, 2847-2862
     DOI: 10.1021/acs.jctc.9b00143
   
   for SPH calculations refer to:
   * S. Spicher and S. Grimme, J. Chem. Theory Comput., 2021, 17, 1701-1714
     DOI: 10.1021/acs.jctc.0c01306
   
   for ONIOM refer to:
   * C. Plett, A. Katbashev, S. Ehlert, S. Grimme, M. Bursch,
     Phys. Chem. Chem. Phys., 2023, 25, 17860-17868. DOI: 10.1039/D3CP02178E
   
   for DIPRO refer to:
   * J. Kohn, N. Gildemeister, S. Grimme, D. Fazzi, A. Hansen,
     J. Chem. Phys., 2023, just accepted.
   
   for PTB refer to:
   * S. Grimme, M. Mueller, A. Hansen, J. Chem. Phys., 2023, 158, 124111.
     DOI: 10.1063/5.0137838
   
   with help from (in alphabetical order)
   P. Atkinson, C. Bannwarth, F. Bohle, G. Brandenburg, E. Caldeweyher
   M. Checinski, S. Dohm, S. Ehlert, S. Ehrlich, I. Gerasimov, C. Hölzer
   A. Katbashev, J. Kohn, J. Koopman, C. Lavigne, S. Lehtola, F. März, M. Müller,
   F. Musil, H. Neugebauer, J. Pisarek, C. Plett, P. Pracht, F. Pultar,
   J. Seibert, P. Shushkov, S. Spicher, M. Stahn, M. Steiner, T. Strunk,
   J. Stückrath, T. Rose, and J. Unsleber
   
 * started run on 2025/10/18 at 04:37:07.704     
   ID    Z sym.   atoms
    1    6 C      1-6
    2    8 O      7, 13, 14
    3    1 H      8-10, 12
    4    7 N      11

           -------------------------------------------------
          |                Calculation Setup                |
           -------------------------------------------------

          program call               : xtb xyz.xyz --charge -1 --ohess
          hostname                   : m003
          coordinate file            : xyz.xyz
          omp threads                :                     2


           -------------------------------------------------
          |                 G F N 2 - x T B                 |
           -------------------------------------------------

        Reference                      10.1021/acs.jctc.8b01176
      * Hamiltonian:
        H0-scaling (s, p, d)           1.850000    2.230000    2.230000
        zeta-weighting                 0.500000
      * Dispersion:
        s8                             2.700000
        a1                             0.520000
        a2                             5.000000
        s9                             5.000000
      * Repulsion:
        kExp                           1.500000    1.000000
        rExp                           1.000000
      * Coulomb:
        alpha                          2.000000
        third order                    shell-resolved
        anisotropic                    true
        a3                             3.000000
        a5                             4.000000
        cn-shift                       1.200000
        cn-exp                         4.000000
        max-rad                        5.000000


          ...................................................
          :                      SETUP                      :
          :.................................................:
          :  # basis functions                  44          :
          :  # atomic orbitals                  44          :
          :  # shells                           24          :
          :  # electrons                        52          :
          :  max. iterations                   250          :
          :  Hamiltonian                  GFN2-xTB          :
          :  restarted?                      false          :
          :  GBSA solvation                  false          :
          :  PC potential                    false          :
          :  electronic temp.          300.0000000     K    :
          :  accuracy                    1.0000000          :
          :  -> integral cutoff          0.2500000E+02      :
          :  -> integral neglect         0.1000000E-07      :
          :  -> SCF convergence          0.1000000E-05 Eh   :
          :  -> wf. convergence          0.1000000E-03 e    :
          :  Broyden damping             0.4000000          :
          :  net charge                         -1          :
          :  unpaired electrons                  0          :
          ...................................................

 iter      E             dE          RMSdq      gap      omega  full diag
   1    -30.2726323 -0.302726E+02  0.581E+00    2.95       0.0  T
   2    -30.4358125 -0.163180E+00  0.255E+00    0.72       1.0  T
   3    -30.4319695  0.384303E-02  0.182E+00    0.61       1.0  T
   4    -30.4087167  0.232528E-01  0.164E+00    0.29       1.0  T
   5    -30.4429165 -0.341998E-01  0.747E-01    0.69       1.0  T
   6    -30.4489712 -0.605472E-02  0.247E-01    0.60       1.0  T
   7    -30.4495468 -0.575628E-03  0.170E-01    0.45       1.0  T
   8    -30.4498988 -0.351981E-03  0.527E-02    0.31       1.0  T
   9    -30.4498971  0.172771E-05  0.321E-02    0.32       1.0  T
  10    -30.4499027 -0.561217E-05  0.491E-03    0.30       5.4  T
  11    -30.4499029 -0.163245E-06  0.311E-03    0.31       8.6  T
  12    -30.4499029 -0.304166E-07  0.190E-03    0.30      14.1  T
  13    -30.4499030 -0.551088E-07  0.698E-04    0.30      38.3  T
  14    -30.4499030 -0.365657E-08  0.361E-04    0.30      74.0  T

   *** convergence criteria satisfied after 14 iterations ***

         #    Occupation            Energy/Eh            Energy/eV
      -------------------------------------------------------------
         1        2.0000           -0.6168817             -16.7862
       ...           ...                  ...                  ...
        20        2.0000           -0.3044364              -8.2841
        21        2.0000           -0.2987057              -8.1282
        22        2.0000           -0.2896053              -7.8806
        23        2.0000           -0.2845254              -7.7423
        24        2.0000           -0.2673438              -7.2748
        25        1.9999           -0.1924672              -5.2373
        26        1.9945           -0.1888986              -5.1402 (HOMO)
        27        0.0056           -0.1777075              -4.8357 (LUMO)
        28                         -0.0735541              -2.0015
        29                         -0.0427908              -1.1644
        30                          0.0693593               1.8874
        31                          0.1061753               2.8892
       ...                                ...                  ...
        44                          0.9139652              24.8703
      -------------------------------------------------------------
                  HL-Gap            0.0111911 Eh            0.3045 eV
             Fermi-level           -0.1832920 Eh           -4.9876 eV

 SCC (total)                   0 d,  0 h,  0 min,  0.061 sec
 SCC setup                      ...        0 min,  0.000 sec (  0.287%)
 Dispersion                     ...        0 min,  0.000 sec (  0.225%)
 classical contributions        ...        0 min,  0.000 sec (  0.047%)
 integral evaluation            ...        0 min,  0.001 sec (  2.138%)
 iterations                     ...        0 min,  0.057 sec ( 93.263%)
 molecular gradient             ...        0 min,  0.002 sec (  3.850%)
 printout                       ...        0 min,  0.000 sec (  0.150%)

         :::::::::::::::::::::::::::::::::::::::::::::::::::::
         ::                     SUMMARY                     ::
         :::::::::::::::::::::::::::::::::::::::::::::::::::::
         :: total energy             -30.120691315656 Eh    ::
         :: gradient norm              0.152329836641 Eh/a0 ::
         :: HOMO-LUMO gap              0.304524872900 eV    ::
         ::.................................................::
         :: SCC energy               -30.449882143442 Eh    ::
         :: -> isotropic ES            0.181002970062 Eh    ::
         :: -> anisotropic ES          0.014947013730 Eh    ::
         :: -> anisotropic XC          0.001274991219 Eh    ::
         :: -> dispersion             -0.012783190575 Eh    ::
         :: repulsion energy           0.329190827786 Eh    ::
         :: add. restraining           0.000000000000 Eh    ::
         :: total charge              -1.000000000000 e     ::
         :::::::::::::::::::::::::::::::::::::::::::::::::::::

      ----------------------------------------------------------- 
     |                   =====================                   |
     |                        A N C O P T                        |
     |                   =====================                   |
     |               Approximate Normal Coordinate               |
     |                Rational Function Optimizer                |
      ----------------------------------------------------------- 
      ----------------------------------------------------------- 
     |                   =====================                   |
     |                        A N C O P T                        |
     |                   =====================                   |
     |               Approximate Normal Coordinate               |
     |                Rational Function Optimizer                |
      ----------------------------------------------------------- 

          ...................................................
          :                      SETUP                      :
          :.................................................:
          :   optimization level            normal          :
          :   max. optcycles                   200          :
          :   ANC micro-cycles                  20          :
          :   degrees of freedom                36          :
          :.................................................:
          :   RF solver                   davidson          :
          :   write xtbopt.log                true          :
          :   linear?                        false          :
          :   energy convergence         0.5000000E-05 Eh   :
          :   grad. convergence          0.1000000E-02 Eh/α :
          :   maxmium RF displ.          1.0000000          :
          :   Hlow (freq-cutoff)         0.1000000E-01      :
          :   Hmax (freq-cutoff)         5.0000000          :
          :   S6 in model hess.         20.0000000          :
          ...................................................

generating ANC from exact Hessian ...
Using Lindh-Hessian (1995)
 Shifting diagonal of input Hessian by   4.265041495972810E-003
 Lowest  eigenvalues of input Hessian
    0.000000    0.000000    0.000000    0.000000    0.000000    0.000000
    0.010000    0.015543    0.020141    0.023936    0.025355    0.029308
    0.056956    0.073851    0.079231    0.090218    0.094469    0.098393
 Highest eigenvalues
    1.725525    1.851798    1.931212    2.038963    2.295618    2.422308
 

........................................................................
.............................. CYCLE    1 ..............................
........................................................................

 iter      E             dE          RMSdq      gap      omega  full diag
   1    -30.4499030 -0.304499E+02  0.123E-04    0.30       0.0  T
   2    -30.4499030  0.757463E-09  0.233E-04    0.30     115.0  T
   3    -30.4499030 -0.968594E-09  0.401E-05    0.30     666.5  T
     SCC iter.                  ...        0 min,  0.001 sec
     gradient                   ...        0 min,  0.002 sec
 * total energy  :   -30.1206913 Eh     change       -0.1791602E-08 Eh
   gradient norm :     0.1523344 Eh/α   predicted     0.0000000E+00 (-100.00%)
   displ. norm   :     0.2545397 α      lambda       -0.2007813E-01
   maximum displ.:     0.1707664 α      in ANC's #8, #4, #11, ...

........................................................................
.............................. CYCLE    2 ..............................
........................................................................

 iter      E             dE          RMSdq      gap      omega  full diag
   1    -30.4602074 -0.304602E+02  0.503E-01    0.62       0.0  T
   2    -30.4556386  0.456880E-02  0.631E-01    0.60       1.0  T
   3    -30.4619164 -0.627782E-02  0.227E-01    0.62       1.0  T
   4    -30.4622876 -0.371167E-03  0.724E-02    0.60       1.0  T
   5    -30.4623184 -0.308667E-04  0.364E-02    0.58       1.0  T
   6    -30.4623355 -0.170191E-04  0.721E-03    0.58       3.7  T
   7    -30.4623356 -0.161921E-06  0.407E-03    0.58       6.6  T
   8    -30.4623357 -0.301447E-07  0.178E-03    0.58      15.0  T
   9    -30.4623357 -0.112995E-07  0.655E-04    0.58      40.8  T
  10    -30.4623357 -0.482177E-08  0.259E-04    0.58     103.2  T
     SCC iter.                  ...        0 min,  0.004 sec
     gradient                   ...        0 min,  0.002 sec
 * total energy  :   -30.1350979 Eh     change       -0.1440662E-01 Eh
   gradient norm :     0.0779045 Eh/α   predicted    -0.1068950E-01 ( -25.80%)
   displ. norm   :     0.2041545 α      lambda       -0.8274214E-02
   maximum displ.:     0.1293967 α      in ANC's #8, #4, #17, ...

........................................................................
.............................. CYCLE    3 ..............................
........................................................................

 iter      E             dE          RMSdq      gap      omega  full diag
   1    -30.4718846 -0.304719E+02  0.421E-01    0.70       0.0  T
   2    -30.4680565  0.382804E-02  0.560E-01    0.70       1.0  T
   3    -30.4734090 -0.535246E-02  0.160E-01    0.73       1.0  T
   4    -30.4735926 -0.183604E-03  0.487E-02    0.71       1.0  T
   5    -30.4735962 -0.361638E-05  0.212E-02    0.70       1.3  T
   6    -30.4736029 -0.664900E-05  0.448E-03    0.71       6.0  T
   7    -30.4736029 -0.426393E-07  0.259E-03    0.71      10.3  T
   8    -30.4736029 -0.266628E-07  0.109E-03    0.71      24.5  T
   9    -30.4736029 -0.595617E-08  0.312E-04    0.71      85.6  T
  10    -30.4736029 -0.598373E-09  0.155E-04    0.71     172.1  T
     SCC iter.                  ...        0 min,  0.004 sec
     gradient                   ...        0 min,  0.002 sec
 * total energy  :   -30.1396595 Eh     change       -0.4561549E-02 Eh
   gradient norm :     0.0242297 Eh/α   predicted    -0.4309538E-02 (  -5.52%)
   displ. norm   :     0.0491939 α      lambda       -0.6458805E-03
   maximum displ.:     0.0295235 α      in ANC's #14, #4, #12, ...

........................................................................
.............................. CYCLE    4 ..............................
........................................................................

 iter      E             dE          RMSdq      gap      omega  full diag
   1    -30.4721292 -0.304721E+02  0.837E-02    0.68       0.0  T
   2    -30.4720315  0.977083E-04  0.969E-02    0.70       1.0  T
   3    -30.4721757 -0.144247E-03  0.422E-02    0.71       1.0  T
   4    -30.4721877 -0.119745E-04  0.110E-02    0.71       2.4  T
   5    -30.4721885 -0.837380E-06  0.494E-03    0.71       5.4  T
   6    -30.4721888 -0.273880E-06  0.117E-03    0.71      22.8  T
   7    -30.4721888 -0.159476E-07  0.549E-04    0.71      48.7  T
   8    -30.4721888 -0.726999E-09  0.119E-04    0.71     225.2  T
     SCC iter.                  ...        0 min,  0.003 sec
     gradient                   ...        0 min,  0.002 sec
 * total energy  :   -30.1401153 Eh     change       -0.4558045E-03 Eh
   gradient norm :     0.0104000 Eh/α   predicted    -0.3237209E-03 ( -28.98%)
   displ. norm   :     0.0453705 α      lambda       -0.2499913E-03
   maximum displ.:     0.0277691 α      in ANC's #14, #12, #8, ...

........................................................................
.............................. CYCLE    5 ..............................
........................................................................

 iter      E             dE          RMSdq      gap      omega  full diag
   1    -30.4711901 -0.304712E+02  0.575E-02    0.68       0.0  T
   2    -30.4711703  0.198184E-04  0.540E-02    0.70       1.0  T
   3    -30.4711996 -0.292728E-04  0.358E-02    0.70       1.0  T
   4    -30.4712102 -0.106232E-04  0.899E-03    0.70       3.0  T
   5    -30.4712109 -0.723679E-06  0.395E-03    0.70       6.8  T
   6    -30.4712111 -0.175829E-06  0.111E-03    0.70      24.1  T
   7    -30.4712111 -0.115583E-07  0.547E-04    0.70      48.8  T
   8    -30.4712111 -0.441641E-09  0.961E-05    0.70     278.0  T
     SCC iter.                  ...        0 min,  0.003 sec
     gradient                   ...        0 min,  0.002 sec
 * total energy  :   -30.1402525 Eh     change       -0.1372455E-03 Eh
   gradient norm :     0.0019720 Eh/α   predicted    -0.1252543E-03 (  -8.74%)
   displ. norm   :     0.0181180 α      lambda       -0.1273307E-04
   maximum displ.:     0.0111618 α      in ANC's #14, #15, #12, ...

........................................................................
.............................. CYCLE    6 ..............................
........................................................................

 iter      E             dE          RMSdq      gap      omega  full diag
   1    -30.4714859 -0.304715E+02  0.174E-02    0.70       0.0  T
   2    -30.4714853  0.618389E-06  0.123E-02    0.69       2.2  T
   3    -30.4714841  0.119712E-05  0.131E-02    0.70       2.0  T
   4    -30.4714863 -0.219681E-05  0.246E-03    0.69      10.8  T
   5    -30.4714863 -0.833177E-07  0.486E-04    0.69      55.0  T
   6    -30.4714863 -0.198785E-08  0.245E-04    0.69     109.0  T
     SCC iter.                  ...        0 min,  0.002 sec
     gradient                   ...        0 min,  0.002 sec
 * total energy  :   -30.1402622 Eh     change       -0.9660540E-05 Eh
   gradient norm :     0.0011726 Eh/α   predicted    -0.6367085E-05 ( -34.09%)
   displ. norm   :     0.0096345 α      lambda       -0.3407049E-05
   maximum displ.:     0.0050898 α      in ANC's #7, #10, #1, ...

........................................................................
.............................. CYCLE    7 ..............................
........................................................................

 iter      E             dE          RMSdq      gap      omega  full diag
   1    -30.4716954 -0.304717E+02  0.103E-02    0.70       0.0  T
   2    -30.4716955 -0.126161E-06  0.609E-03    0.70       4.4  T
   3    -30.4716954  0.829373E-07  0.286E-03    0.70       9.3  T
   4    -30.4716955 -0.112789E-06  0.732E-04    0.70      36.5  T
   5    -30.4716955 -0.355791E-08  0.311E-04    0.70      85.9  T
     SCC iter.                  ...        0 min,  0.002 sec
     gradient                   ...        0 min,  0.002 sec
 * total energy  :   -30.1402595 Eh     change        0.2710486E-05 Eh
   gradient norm :     0.0014869 Eh/α   predicted    -0.1703221E-05 (-162.84%)
   displ. norm   :     0.0076613 α      lambda       -0.5923303E-05
   maximum displ.:     0.0043512 α      in ANC's #7, #10, #1, ...

........................................................................
.............................. CYCLE    8 ..............................
........................................................................

 iter      E             dE          RMSdq      gap      omega  full diag
   1    -30.4717107 -0.304717E+02  0.845E-03    0.70       0.0  T
   2    -30.4717107 -0.607963E-08  0.502E-03    0.70       5.3  T
   3    -30.4717103  0.428726E-06  0.539E-03    0.70       5.0  T
   4    -30.4717107 -0.451596E-06  0.930E-04    0.70      28.7  T
   5    -30.4717107 -0.123534E-07  0.256E-04    0.70     104.4  T
     SCC iter.                  ...        0 min,  0.002 sec
     gradient                   ...        0 min,  0.002 sec
 * total energy  :   -30.1402634 Eh     change       -0.3928474E-05 Eh
   gradient norm :     0.0005544 Eh/α   predicted    -0.2962545E-05 ( -24.59%)
   displ. norm   :     0.0019249 α      lambda       -0.4368186E-06
   maximum displ.:     0.0009125 α      in ANC's #11, #12, #4, ...

   *** GEOMETRY OPTIMIZATION CONVERGED AFTER 8 ITERATIONS ***

------------------------------------------------------------------------
 total energy gain   :        -0.0195721 Eh      -12.2817 kcal/mol
 total RMSD          :         0.1260905 a0        0.0667 Å
 total power (kW/mol):        -6.4233168 (step)-1005.6070 (real)
------------------------------------------------------------------------

 ANCopt (total)                0 d,  0 h,  0 min,  0.051 sec
 optimizer setup                ...        0 min,  0.000 sec (  0.487%)
 model hessian                  ...        0 min,  0.001 sec (  2.704%)
 ANC generation                 ...        0 min,  0.000 sec (  0.415%)
 coordinate transformation      ...        0 min,  0.000 sec (  0.103%)
 single point calculation       ...        0 min,  0.047 sec ( 92.596%)
 optimization log               ...        0 min,  0.000 sec (  0.816%)
 hessian update                 ...        0 min,  0.000 sec (  0.131%)
 rational function              ...        0 min,  0.001 sec (  2.136%)

================
 final structure:
================
14
 xtb: 6.7.1 (edcfbbe)
C           -2.08430121872557       -2.83880108307753        1.55036069237842
C           -2.51516747580167       -2.18605549057774        0.41919405804255
C           -3.70623807488761       -2.52275908133828       -0.20035134828796
C           -4.46200957969987       -3.55722696027277        0.36771345664544
C           -4.05083433240867       -4.22921345120370        1.50471056199672
C           -2.82257010781290       -3.90590962352067        2.17159385269154
O           -2.42676779366990       -4.49625712678995        3.19989548178386
H           -1.14788912692650       -2.55403291346782        2.01396950424490
H           -1.91124503851786       -1.38832222869312       -0.00097254292777
H           -4.05627340439699       -2.01983983226713       -1.08727865378888
N           -5.68276410120181       -3.91670832913584       -0.25067828983254
H           -4.66558200578940       -5.02041478187092        1.90801745143014
O           -6.03866191151495       -3.31268356639340       -1.26035758214674
O           -6.35938482864630       -4.81860253139113        0.23017135777032
 
 Bond Distances (Angstroems)
 ---------------------------
C1-C2=1.3752         C1-C6=1.4386         C1-H8=1.0830         C2-C1=1.3752         C2-C3=1.3841         C2-H9=1.0852         
C3-C2=1.3841         C3-C4=1.4014         C3-H10=1.0780        C4-C3=1.4014         C4-C5=1.3833         C4-N11=1.4149        
C5-C4=1.3833         C5-C6=1.4345         C5-H12=1.0801        C6-C1=1.4386         C6-C5=1.4345         C6-O7=1.2500         
O7-C6=1.2500         H8-C1=1.0830         H9-C2=1.0852         H10-C3=1.0780        N11-C4=1.4149        N11-O13=1.2292       
N11-O14=1.2257       H12-C5=1.0801        O13-N11=1.2292       O14-N11=1.2257       
 C  H  Rav=1.0816 sigma=0.0027  Rmin=1.0780  Rmax=1.0852     4
 C  C  Rav=1.4029 sigma=0.0251  Rmin=1.3752  Rmax=1.4386     6
 N  C  Rav=1.4149 sigma=0.0000  Rmin=1.4149  Rmax=1.4149     1
 O  C  Rav=1.2500 sigma=0.0000  Rmin=1.2500  Rmax=1.2500     1
 O  N  Rav=1.2275 sigma=0.0017  Rmin=1.2257  Rmax=1.2292     2
 
 selected bond angles (degree)
 --------------------
C6-C1-C2=123.13                H8-C1-C2=119.88                H8-C1-C6=116.99                C3-C2-C1=121.49                
H9-C2-C1=119.54                H9-C2-C3=118.97                C4-C3-C2=117.53                H10-C3-C2=122.29               
H10-C3-C4=120.18               C5-C4-C3=122.11                N11-C4-C3=118.40               N11-C4-C5=119.49               
C6-C5-C4=121.81                H12-C5-C4=119.58               H12-C5-C6=118.61               C5-C6-C1=113.94                
O7-C6-C1=122.89                O7-C6-C5=123.17                
 
 selected dihedral angles (degree)
 ---------------------------------
C3-C2-C1-C6=  0.00            C3-C2-C1-H8=180.00            H9-C2-C1-C6=180.00            H9-C2-C1-H8=  0.00            
C4-C3-C2-C1=  0.00            C4-C3-C2-H9=180.00            H10-C3-C2-C1=180.00           H10-C3-C2-H9=  0.00           
C5-C4-C3-C2=  0.00            C5-C4-C3-H10=180.00           N11-C4-C3-C2=180.01           N11-C4-C3-H10=  0.00          
C6-C5-C4-C3=  0.00            C6-C5-C4-N11=179.99           H12-C5-C4-C3=180.00           H12-C5-C4-N11=  0.00          
C5-C6-C1-C2=  0.00            C5-C6-C1-H8=180.00            O7-C6-C1-C2=180.00            O7-C6-C1-H8=  0.00            
C1-C6-C5-C4=  0.00            C1-C6-C5-H12=180.00           O7-C6-C5-C4=180.00            O7-C6-C5-H12=  0.00           
           -------------------------------------------------
          |                Final Singlepoint                |
           -------------------------------------------------

          ...................................................
          :                      SETUP                      :
          :.................................................:
          :  # basis functions                  44          :
          :  # atomic orbitals                  44          :
          :  # shells                           24          :
          :  # electrons                        52          :
          :  max. iterations                   250          :
          :  Hamiltonian                  GFN2-xTB          :
          :  restarted?                      false          :
          :  GBSA solvation                  false          :
          :  PC potential                    false          :
          :  electronic temp.          300.0000000     K    :
          :  accuracy                    1.0000000          :
          :  -> integral cutoff          0.2500000E+02      :
          :  -> integral neglect         0.1000000E-07      :
          :  -> SCF convergence          0.1000000E-05 Eh   :
          :  -> wf. convergence          0.1000000E-03 e    :
          :  Broyden damping             0.4000000          :
          :  net charge                         -1          :
          :  unpaired electrons                  0          :
          ...................................................

 iter      E             dE          RMSdq      gap      omega  full diag
   1    -30.4717107 -0.304717E+02  0.135E-04    0.70       0.0  T
   2    -30.4717107 -0.165201E-11  0.875E-05    0.70     305.5  T
   3    -30.4717107  0.291855E-10  0.807E-05    0.70     331.3  T

   *** convergence criteria satisfied after 3 iterations ***

         #    Occupation            Energy/Eh            Energy/eV
      -------------------------------------------------------------
         1        2.0000           -0.6182916             -16.8246
       ...           ...                  ...                  ...
        20        2.0000           -0.3006480              -8.1810
        21        2.0000           -0.2988034              -8.1309
        22        2.0000           -0.2902650              -7.8985
        23        2.0000           -0.2877056              -7.8289
        24        2.0000           -0.2688051              -7.3146
        25        2.0000           -0.1982597              -5.3949
        26        2.0000           -0.1952044              -5.3118 (HOMO)
        27        0.0000           -0.1696066              -4.6152 (LUMO)
        28                         -0.0681883              -1.8555
        29                         -0.0425598              -1.1581
        30                          0.0655563               1.7839
        31                          0.1596272               4.3437
       ...                                ...                  ...
        44                          0.8360293              22.7495
      -------------------------------------------------------------
                  HL-Gap            0.0255977 Eh            0.6965 eV
             Fermi-level           -0.1823868 Eh           -4.9630 eV

 SCC (total)                   0 d,  0 h,  0 min,  0.005 sec
 SCC setup                      ...        0 min,  0.000 sec (  1.804%)
 Dispersion                     ...        0 min,  0.000 sec (  1.211%)
 classical contributions        ...        0 min,  0.000 sec (  0.274%)
 integral evaluation            ...        0 min,  0.001 sec ( 21.172%)
 iterations                     ...        0 min,  0.001 sec ( 25.418%)
 molecular gradient             ...        0 min,  0.002 sec ( 48.034%)
 printout                       ...        0 min,  0.000 sec (  1.556%)

         :::::::::::::::::::::::::::::::::::::::::::::::::::::
         ::                     SUMMARY                     ::
         :::::::::::::::::::::::::::::::::::::::::::::::::::::
         :: total energy             -30.140263412915 Eh    ::
         :: gradient norm              0.000553914796 Eh/a0 ::
         :: HOMO-LUMO gap              0.696549728406 eV    ::
         ::.................................................::
         :: SCC energy               -30.471688821578 Eh    ::
         :: -> isotropic ES            0.179914382790 Eh    ::
         :: -> anisotropic ES          0.015561251939 Eh    ::
         :: -> anisotropic XC         -0.000348255202 Eh    ::
         :: -> dispersion             -0.012877033348 Eh    ::
         :: repulsion energy           0.331425408663 Eh    ::
         :: add. restraining           0.000000000000 Eh    ::
         :: total charge              -0.999999999985 e     ::
         :::::::::::::::::::::::::::::::::::::::::::::::::::::

           ------------------------------------------------- 
          |                Numerical Hessian                |
           ------------------------------------------------- 
step length          :   0.00500
SCC accuracy         :   0.30000
Hessian scale factor :   1.00000
frozen atoms in %    :   0.00000    0
RMS gradient         :   0.00055
estimated CPU  time      0.02 min
estimated wall time      0.01 min

writing file <hessian>.

 projected vibrational frequencies (cm⁻¹)
eigval :       -0.00    -0.00    -0.00     0.00     0.00     0.00
eigval :       33.52   146.81   179.74   212.03   380.27   382.85
eigval :      430.18   487.98   497.02   557.68   624.34   659.60
eigval :      729.35   762.76   790.44   791.51   853.65   909.36
eigval :      945.32   974.61  1110.79  1119.01  1175.96  1226.48
eigval :     1278.32  1338.12  1375.73  1450.22  1502.37  1548.93
eigval :     1579.86  1624.95  3005.52  3048.44  3090.23  3102.26
           -------------------------------------------------
          |                Property Printout                |
           -------------------------------------------------

    * Orbital Energies and Occupations

         #    Occupation            Energy/Eh            Energy/eV
      -------------------------------------------------------------
         1        2.0000           -0.6182915             -16.8246
       ...           ...                  ...                  ...
        14        2.0000           -0.3570022              -9.7145
        15        2.0000           -0.3500331              -9.5249
        16        2.0000           -0.3415161              -9.2931
        17        2.0000           -0.3269433              -8.8966
        18        2.0000           -0.3229323              -8.7874
        19        2.0000           -0.3022751              -8.2253
        20        2.0000           -0.3006481              -8.1811
        21        2.0000           -0.2988033              -8.1309
        22        2.0000           -0.2902650              -7.8985
        23        2.0000           -0.2877055              -7.8289
        24        2.0000           -0.2688052              -7.3146
        25        2.0000           -0.1982594              -5.3949
        26        2.0000           -0.1952042              -5.3118 (HOMO)
        27        0.0000           -0.1696066              -4.6152 (LUMO)
        28                         -0.0681884              -1.8555
        29                         -0.0425599              -1.1581
        30                          0.0655564               1.7839
        31                          0.1596272               4.3437
        32                          0.2641200               7.1871
        33                          0.2758619               7.5066
        34                          0.3188794               8.6772
        35                          0.3338048               9.0833
        36                          0.3778983              10.2831
        37                          0.3904610              10.6250
       ...                                ...                  ...
        44                          0.8360294              22.7495
      -------------------------------------------------------------
                  HL-Gap            0.0255976 Eh            0.6965 eV
             Fermi-level           -0.1823867 Eh           -4.9630 eV

     #   Z          covCN         q      C6AA      α(0)
     1   6 C        2.916    -0.083    30.078     8.993
     2   6 C        2.913    -0.041    29.028     8.835
     3   6 C        2.916    -0.073    29.817     8.954
     4   6 C        2.907    -0.013    28.335     8.728
     5   6 C        2.916    -0.086    30.167     9.007
     6   6 C        2.827     0.192    23.897     8.010
     7   8 O        0.858    -0.569    25.380     6.754
     8   1 H        0.925     0.005     2.968     2.694
     9   1 H        0.925    -0.008     3.208     2.801
    10   1 H        0.926     0.019     2.745     2.591
    11   7 N        2.764     0.514    13.872     5.532
    12   1 H        0.926     0.036     2.500     2.473
    13   8 O        0.929    -0.452    22.715     6.392
    14   8 O        0.929    -0.440    22.467     6.357

 Mol. C6AA /au·bohr⁶  :       3235.222177
 Mol. C8AA /au·bohr⁸  :      77162.329484
 Mol. α(0) /au        :         88.120674


Wiberg/Mayer (AO) data.
largest (>0.10) Wiberg bond orders for each atom

 ---------------------------------------------------------------------------
     #   Z sym  total        # sym  WBO       # sym  WBO       # sym  WBO
 ---------------------------------------------------------------------------
     1   6 C    3.985 --     2 C    1.492     6 C    1.181     8 H    0.973
                             7 O    0.108
     2   6 C    3.991 --     1 C    1.492     3 C    1.418     9 H    0.970
     3   6 C    3.981 --     2 C    1.418     4 C    1.293    10 H    0.969
     4   6 C    3.943 --     5 C    1.402     3 C    1.293    11 N    1.022
     5   6 C    3.982 --     4 C    1.402     6 C    1.195    12 H    0.967
                             7 O    0.108
     6   6 C    3.972 --     7 O    1.510     5 C    1.195     1 C    1.181
     7   8 O    1.840 --     6 C    1.510     1 C    0.108     5 C    0.108
     8   1 H    1.000 --     1 C    0.973
     9   1 H    0.999 --     2 C    0.970
    10   1 H    1.000 --     3 C    0.969
    11   7 N    3.896 --    14 O    1.409    13 O    1.397     4 C    1.022
    12   1 H    0.999 --     5 C    0.967
    13   8 O    1.862 --    11 N    1.397    14 O    0.310
    14   8 O    1.876 --    11 N    1.409    13 O    0.310
 ---------------------------------------------------------------------------

Topologies differ in total number of bonds
Writing topology from bond orders to xtbtopo.mol

molecular dipole:
                 x           y           z       tot (Debye)
 q only:        7.875       7.776      -2.405
   full:        7.845       7.951      -2.635      29.170
molecular quadrupole (traceless):
                xx          xy          yy          xz          yz          zz
 q only:      -35.175     -92.558     -14.676       9.295      33.582      49.851
  q+dip:      -32.194     -92.483     -16.181      10.643      36.930      48.375
   full:      -32.721     -93.815     -15.704       9.518      38.313      48.424

           -------------------------------------------------
          |                Geometry Summary                 |
           -------------------------------------------------

      molecular mass/u    :      138.1010964
   center of mass at/Å    :       -4.0880643      -3.6136297       0.7522246
  moments of inertia/u·Å² :        0.1788704E+03   0.4981699E+03   0.6770403E+03
rotational constants/cm⁻¹ :        0.9424497E-01   0.3383912E-01   0.2489901E-01

 * 11 selected distances

     #   Z          #   Z                                           value/Å
     1   6 C        2   6 C                                       1.3752312
     2   6 C        3   6 C                                       1.3841443
     3   6 C        4   6 C                                       1.4014322
     4   6 C        5   6 C                                       1.3832547
     1   6 C        8   1 H                                       1.0830022
     2   6 C        9   1 H                                       1.0851916
     3   6 C       10   1 H                                       1.0780041 (min)
     4   6 C       11   7 N                                       1.4148771 (max)
     5   6 C       12   1 H                                       1.0800791
    11   7 N       13   8 O                                       1.2292118
    11   7 N       14   8 O                                       1.2257428

 * 4 distinct bonds (by element types)

   Z      Z             #   av. dist./Å        max./Å        min./Å
   1 H    6 C           4     1.0815693     1.0851916     1.0780041
   6 C    6 C           4     1.3860156     1.4014322     1.3752312
   6 C    7 N           1     1.4148771     1.4148771     1.4148771
   7 N    8 O           2     1.2274773     1.2292118     1.2257428

           -------------------------------------------------
          |               Frequency Printout                |
           -------------------------------------------------
 projected vibrational frequencies (cm⁻¹)
eigval :       -0.00    -0.00    -0.00     0.00     0.00     0.00
eigval :       33.52   146.81   179.74   212.03   380.27   382.85
eigval :      430.18   487.98   497.02   557.68   624.34   659.60
eigval :      729.35   762.76   790.44   791.51   853.65   909.36
eigval :      945.32   974.61  1110.79  1119.01  1175.96  1226.48
eigval :     1278.32  1338.12  1375.73  1450.22  1502.37  1548.93
eigval :     1579.86  1624.95  3005.52  3048.44  3090.23  3102.26
 reduced masses (amu)
   1: 13.75   2: 13.91   3: 12.22   4: 13.19   5: 14.37   6: 13.29   7: 15.23   8: 11.54
   9: 11.45  10: 14.38  11: 13.73  12:  9.67  13: 13.91  14: 11.13  15: 12.58  16: 12.88
  17:  8.57  18: 12.72  19:  9.56  20:  7.16  21:  6.98  22: 14.31  23:  3.36  24:  3.22
  25: 10.22  26: 11.21  27:  5.37  28:  6.65  29:  2.56  30:  6.21  31:  7.88  32: 14.51
  33:  8.38  34: 10.62  35: 11.26  36: 12.16  37: 14.51  38: 12.37  39:  1.78  40:  1.83
  41:  1.81  42:  1.83
 IR intensities (km·mol⁻¹)
   1:  2.76   2:  5.57   3:  2.87   4:  4.85   5:  7.39   6:  2.83   7:  1.53   8:  6.53
   9:  6.79  10:  4.45  11:  0.27  12:  1.53  13:  2.20  14: 11.51  15:  2.17  16:  0.60
  17:  0.10  18: 17.08  19: 81.91  20:  1.82  21: 16.02  22: 26.33  23:  0.18  24:  0.03
  25: 11.11  26:  3.90  27: 13.50  28:  8.96  29:  5.54  30:  0.14  31:  2.80  32:944.52
  33: 30.43  34: 41.56  35:  0.75  36: 17.74  37:383.50  38:693.93  39:109.51  40:117.06
  41: 16.63  42: 19.32
 Raman intensities (Ä⁴*amu⁻¹)
   1:  0.00   2:  0.00   3:  0.00   4:  0.00   5:  0.00   6:  0.00   7:  0.00   8:  0.00
   9:  0.00  10:  0.00  11:  0.00  12:  0.00  13:  0.00  14:  0.00  15:  0.00  16:  0.00
  17:  0.00  18:  0.00  19:  0.00  20:  0.00  21:  0.00  22:  0.00  23:  0.00  24:  0.00
  25:  0.00  26:  0.00  27:  0.00  28:  0.00  29:  0.00  30:  0.00  31:  0.00  32:  0.00
  33:  0.00  34:  0.00  35:  0.00  36:  0.00  37:  0.00  38:  0.00  39:  0.00  40:  0.00
  41:  0.00  42:  0.00
 output can be read by thermo (or use thermo option).
 writing <g98.out> molden fake output.
 recommended (thermochemical) frequency scaling factor: 1.0
           -------------------------------------------------
          |             Thermodynamic Functions             |
           -------------------------------------------------

Molecule has the following symmetry elements: (sigma) 
It seems to be the Cs point group
cs  symmetry found (for desy threshold:  0.10E+00) used in thermo

          ...................................................
          :                      SETUP                      :
          :.................................................:
          :  # frequencies                          36      :
          :  # imaginary freq.                       0      :
          :  linear?                             false      :
          :  only rotor calc.                    false      :
          :  symmetry                               cs      :
          :  rotational number                       1      :
          :  scaling factor                  1.0000000      :
          :  rotor cutoff                   50.0000000 cm⁻¹ :
          :  imag. cutoff                  -20.0000000 cm⁻¹ :
          :.................................................:

    mode    ω/cm⁻¹     T·S(HO)/kcal·mol⁻¹    T·S(FR)/kcal·mol⁻¹   T·S(vib)
   ------------------------------------------------------------------------
       1     33.52    -1.67237 ( 16.81%)    -1.17465 ( 83.19%)    -1.25832
       2    146.81    -0.80894 ( 98.67%)    -0.73739 (  1.33%)    -0.80799
       3    179.74    -0.69502 ( 99.40%)    -0.67745 (  0.60%)    -0.69491
       4    212.03    -0.60409 ( 99.69%)    -0.62852 (  0.31%)    -0.60417
   ------------------------------------------------------------------------

   temp. (K)  partition function   enthalpy   heat capacity  entropy
                                   cal/mol     cal/K/mol   cal/K/mol   J/K/mol
 298.15  VIB   97.4                 3262.964     23.106     18.652
         ROT  0.593E+06              888.752      2.981     29.399
         INT  0.578E+08             4151.716     26.086     48.051
         TR   0.157E+28             1481.254      4.968     40.662
         TOT                        5632.9701    31.0546    88.7127   371.1741

       T/K    H(0)-H(T)+PV         H(T)/Eh          T*S/Eh         G(T)/Eh
   ------------------------------------------------------------------------
    298.15    0.897671E-02    0.999353E-01    0.421503E-01    0.577850E-01
   ------------------------------------------------------------------------

         :::::::::::::::::::::::::::::::::::::::::::::::::::::
         ::                  THERMODYNAMIC                  ::
         :::::::::::::::::::::::::::::::::::::::::::::::::::::
         :: total free energy         -30.082478396268 Eh   ::
         ::.................................................::
         :: total energy              -30.140263412981 Eh   ::
         :: zero point energy           0.090958593501 Eh   ::
         :: G(RRHO) w/o ZPVE           -0.033173576788 Eh   ::
         :: G(RRHO) contrib.            0.057785016713 Eh   ::
         :::::::::::::::::::::::::::::::::::::::::::::::::::::

optimized geometry written to: xtbopt.xyz


           -------------------------------------------------
          | TOTAL ENERGY              -30.140263412981 Eh   |
          | TOTAL ENTHALPY            -30.040328110162 Eh   |
          | TOTAL FREE ENERGY         -30.082478396268 Eh   |
          | GRADIENT NORM               0.000553943530 Eh/α |
          | HOMO-LUMO GAP               0.696547502465 eV   |
           -------------------------------------------------

------------------------------------------------------------------------
 * finished run on 2025/10/18 at 04:37:08.798     
------------------------------------------------------------------------
 total:
 * wall-time:     0 d,  0 h,  0 min,  1.093 sec
 *  cpu-time:     0 d,  0 h,  0 min,  1.410 sec
 * ratio c/w:     1.291 speedup
 SCF:
 * wall-time:     0 d,  0 h,  0 min,  0.061 sec
 *  cpu-time:     0 d,  0 h,  0 min,  0.074 sec
 * ratio c/w:     1.201 speedup
 ANC optimizer:
 * wall-time:     0 d,  0 h,  0 min,  0.207 sec
 *  cpu-time:     0 d,  0 h,  0 min,  0.264 sec
 * ratio c/w:     1.273 speedup
 analytical hessian:
 * wall-time:     0 d,  0 h,  0 min,  0.481 sec
 *  cpu-time:     0 d,  0 h,  0 min,  0.851 sec
 * ratio c/w:     1.771 speedup

