14
 energy: -30.120691317448 gnorm: 0.152334433705 xtb: 6.7.1 (edcfbbe)
C           -2.07832800000000       -2.84107200000000        1.55808400000000
C           -2.48948100000000       -2.19460700000000        0.45105300000000
C           -3.74248300000000       -2.56420100000000       -0.18265700000000
C           -4.47839700000000       -3.55821000000000        0.35500900000000
C           -4.03107300000000       -4.25335300000000        1.54983300000000
C           -2.86880400000000       -3.92394300000000        2.15337200000000
O           -2.30741800000000       -4.38873200000000        3.17552300000000
H           -1.14014800000000       -2.56578100000000        2.03425900000000
H           -1.89660400000000       -1.39697800000000        0.02161200000000
H           -4.03155000000000       -2.01568900000000       -1.07105700000000
N           -5.73724000000000       -3.91038200000000       -0.30407500000000
H           -4.64028700000000       -5.04985100000000        1.96404300000000
O           -6.06838600000000       -3.27995100000000       -1.32422100000000
O           -6.41949000000000       -4.82407700000000        0.18521000000000
14
 energy: -30.135097934929 gnorm: 0.077904559792 xtb: 6.7.1 (edcfbbe)
C           -2.08565525981836       -2.83514195814647        1.54490548574598
C           -2.50123465055016       -2.18508174506413        0.42989236478278
C           -3.72399463986874       -2.54501229561681       -0.18939214511450
C           -4.46628702938215       -3.55800574562967        0.36507620448063
C           -4.04567164843120       -4.24615911918390        1.52898657981919
C           -2.85096357238346       -3.92161523560473        2.16583938322516
O           -2.35051996000831       -4.44205108003505        3.20127238015457
H           -1.15345501363343       -2.56882119836494        2.02649112574199
H           -1.91438109479719       -1.38592936766408       -0.00645876161382
H           -4.03354617276733       -2.01255614280702       -1.07642592873802
N           -5.70716423748974       -3.91465545342576       -0.27347814759765
H           -4.66684902093511       -5.03764770498679        1.92713757868538
O           -6.04297839415399       -3.29609958585562       -1.28367934494626
O           -6.38698830578083       -4.81805036761502        0.20582122537456
14
 energy: -30.139659484333 gnorm: 0.024230115059 xtb: 6.7.1 (edcfbbe)
C           -2.08969700352372       -2.83550097639470        1.54188609407519
C           -2.51444083908280       -2.18355942621339        0.41687125610511
C           -3.70800671814815       -2.52786461384157       -0.19586498614881
C           -4.45729680762049       -3.55828300405828        0.37306007917631
C           -4.05387599841094       -4.23385600529161        1.50759131849113
C           -2.83341283523232       -3.91197858712603        2.16948088281647
O           -2.39914985179678       -4.48031809607665        3.20469271175312
H           -1.15856068438165       -2.57077562834293        2.02443548252984
H           -1.92407750403326       -1.38415246780067       -0.01679549369516
H           -4.04627087247940       -2.01618003597713       -1.08301366004072
N           -5.68025689718218       -3.91699327222833       -0.24780316262427
H           -4.67953283023577       -5.02263081746904        1.89876320507670
O           -6.02690944950344       -3.30968996040548       -1.25410331160781
O           -6.35820070836911       -4.81504410877419        0.22678758409289
14
 energy: -30.140115288792 gnorm: 0.010400412625 xtb: 6.7.1 (edcfbbe)
C           -2.08732182341994       -2.83733385711903        1.54605309474459
C           -2.51476554884550       -2.18402422354345        0.41713940640727
C           -3.70638660367796       -2.52311993569704       -0.20004341768306
C           -4.45888256940591       -3.55738309554447        0.37063719529316
C           -4.05280565782514       -4.23158837264680        1.50584432565176
C           -2.82631848056048       -3.90828369240450        2.17120034684618
O           -2.41190231675631       -4.48782301209200        3.20263357400601
H           -1.15430425170044       -2.56662544147658        2.02320810856821
H           -1.91738900693076       -1.38506409909522       -0.01002798879460
H           -4.05371742218763       -2.01802939071708       -1.08719359823183
N           -5.68006592177131       -3.91692066744865       -0.24781623857025
H           -4.67556178035004       -5.02106046210642        1.90029504201437
O           -6.03346425428460       -3.31254097338229       -1.25629299346162
O           -6.35680336228399       -4.81702977672648        0.23035114320979
14
 energy: -30.140252534278 gnorm: 0.001971994087 xtb: 6.7.1 (edcfbbe)
C           -2.08495958237905       -2.83862651988174        1.54956603834900
C           -2.51478600543403       -2.18523241120709        0.41852839063729
C           -3.70591638527426       -2.52168433244530       -0.20131376583682
C           -4.46133491420074       -3.55719174944048        0.36840798512132
C           -4.05132882039667       -4.23017933286542        1.50547879679407
C           -2.82181142891199       -3.90560937660707        2.17190511321760
O           -2.42239689310877       -4.49335073741562        3.20013808779768
H           -1.14930877232818       -2.55856796013122        2.01797137700969
H           -1.91116271556187       -1.38709515072449       -0.00236789486484
H           -4.05801845599046       -2.02042038998316       -1.08802082024297
N           -5.68201434227094       -3.91638279081173       -0.24976533262212
H           -4.66940829855520       -5.02064543833806        1.90507691435712
O           -6.03846517940943       -3.31308610773390       -1.26011354673079
O           -6.35877720617842       -4.81875470241472        0.23049665701375
14
 energy: -30.140262194818 gnorm: 0.001172574585 xtb: 6.7.1 (edcfbbe)
C           -2.08425068554668       -2.83873514068509        1.55036208686664
C           -2.51506917976001       -2.18590244228752        0.41912106789491
C           -3.70604300348946       -2.52252592589454       -0.20049979959116
C           -4.46197945353100       -3.55745995893975        0.36779184932652
C           -4.05081945373863       -4.22954327104247        1.50502641227612
C           -2.82179500089762       -3.90543710983296        2.17169359799308
O           -2.42652573979598       -4.49589988496332        3.19977848607887
H           -1.14766806662563       -2.55402921153383        2.01429856424728
H           -1.91045321836346       -1.38819290582292       -0.00039856106106
H           -4.05763468189497       -2.02095556851479       -1.08722652120583
N           -5.68233042934906       -3.91680958015040       -0.25100714894836
H           -4.66630120388441       -5.02052602057588        1.90745102289999
O           -6.03893855406050       -3.31227730166482       -1.26056386122581
O           -6.35988032906261       -4.81853267809171        0.23016080444880
14
 energy: -30.140259484333 gnorm: 0.001486907156 xtb: 6.7.1 (edcfbbe)
C           -2.08411008262919       -2.83888168475963        1.55038494075076
C           -2.51513227906423       -2.18618945284352        0.41919954844184
C           -3.70627620339064       -2.52277702392686       -0.20014005610989
C           -4.46247233098634       -3.55682739170582        0.36810722170387
C           -4.05089615137804       -4.22903156283391        1.50492211555226
C           -2.82241228683560       -3.90571606176248        2.17161357850596
O           -2.42716626965439       -4.49679060085493        3.19962129936207
H           -1.14732151775400       -2.55359143196618        2.01312766038221
H           -1.91084712935511       -1.38857407712484       -0.00059121062515
H           -4.05678016550966       -2.02008120798582       -1.08690913725848
N           -5.68411207165040       -3.91480019019395       -0.24928558521314
H           -4.66543183104577       -5.02027037387053        1.90839181766280
O           -6.03786793786094       -3.31360687989364       -1.26152191988034
O           -6.35886274288569       -4.81968906027789        0.22906772672523
14
 energy: -30.140263412806 gnorm: 0.000554369207 xtb: 6.7.1 (edcfbbe)
C           -2.08430121872557       -2.83880108307753        1.55036069237842
C           -2.51516747580167       -2.18605549057774        0.41919405804255
C           -3.70623807488761       -2.52275908133828       -0.20035134828796
C           -4.46200957969987       -3.55722696027277        0.36771345664544
C           -4.05083433240867       -4.22921345120370        1.50471056199672
C           -2.82257010781290       -3.90590962352067        2.17159385269154
O           -2.42676779366990       -4.49625712678995        3.19989548178386
H           -1.14788912692650       -2.55403291346782        2.01396950424490
H           -1.91124503851786       -1.38832222869312       -0.00097254292777
H           -4.05627340439699       -2.01983983226713       -1.08727865378888
N           -5.68276410120181       -3.91670832913584       -0.25067828983254
H           -4.66558200578940       -5.02041478187092        1.90801745143014
O           -6.03866191151495       -3.31268356639340       -1.26035758214674
O           -6.35938482864630       -4.81860253139113        0.23017135777032
