
                                 *****************
                                 * O   R   C   A *
                                 *****************

                                            #,                                       
                                            ###                                      
                                            ####                                     
                                            #####                                    
                                            ######                                   
                                           ########,                                 
                                     ,,################,,,,,                         
                               ,,#################################,,                 
                          ,,##########################################,,             
                       ,#########################################, ''#####,          
                    ,#############################################,,   '####,        
                  ,##################################################,,,,####,       
                ,###########''''           ''''###############################       
              ,#####''   ,,,,##########,,,,          '''####'''          '####       
            ,##' ,,,,###########################,,,                        '##       
           ' ,,###''''                  '''############,,,                           
         ,,##''                                '''############,,,,        ,,,,,,###''
      ,#''                                            '''#######################'''  
     '                                                          ''''####''''         
             ,#######,   #######,   ,#######,      ##                                
            ,#'     '#,  ##    ##  ,#'     '#,    #''#        ######   ,####,        
            ##       ##  ##   ,#'  ##            #'  '#       #        #'  '#        
            ##       ##  #######   ##           ,######,      #####,   #    #        
            '#,     ,#'  ##    ##  '#,     ,#' ,#      #,         ##   #,  ,#        
             '#######'   ##     ##  '#######'  #'      '#     #####' # '####'        



                  #######################################################
                  #                        -***-                        #
                  #          Department of theory and spectroscopy      #
                  #    Directorship and core code : Frank Neese         #
                  #        Max Planck Institute fuer Kohlenforschung    #
                  #                Kaiser Wilhelm Platz 1               #
                  #                 D-45470 Muelheim/Ruhr               #
                  #                      Germany                        #
                  #                                                     #
                  #                  All rights reserved                #
                  #                        -***-                        #
                  #######################################################


                         Program Version 5.0.4 -  RELEASE  -


 With contributions from (in alphabetic order):
   Daniel Aravena         : Magnetic Suceptibility
   Michael Atanasov       : Ab Initio Ligand Field Theory (pilot matlab implementation)
   Alexander A. Auer      : GIAO ZORA, VPT2 properties, NMR spectrum
   Ute Becker             : Parallelization
   Giovanni Bistoni       : ED, misc. LED, open-shell LED, HFLD
   Martin Brehm           : Molecular dynamics
   Dmytro Bykov           : SCF Hessian
   Vijay G. Chilkuri      : MRCI spin determinant printing, contributions to CSF-ICE
   Dipayan Datta          : RHF DLPNO-CCSD density
   Achintya Kumar Dutta   : EOM-CC, STEOM-CC
   Dmitry Ganyushin       : Spin-Orbit,Spin-Spin,Magnetic field MRCI
   Miquel Garcia          : C-PCM and meta-GGA Hessian, CC/C-PCM, Gaussian charge scheme
   Yang Guo               : DLPNO-NEVPT2, F12-NEVPT2, CIM, IAO-localization
   Andreas Hansen         : Spin unrestricted coupled pair/coupled cluster methods
   Benjamin Helmich-Paris : MC-RPA, TRAH-SCF, COSX integrals
   Lee Huntington         : MR-EOM, pCC
   Robert Izsak           : Overlap fitted RIJCOSX, COSX-SCS-MP3, EOM
   Marcus Kettner         : VPT2
   Christian Kollmar      : KDIIS, OOCD, Brueckner-CCSD(T), CCSD density, CASPT2, CASPT2-K
   Simone Kossmann        : Meta GGA functionals, TD-DFT gradient, OOMP2, MP2 Hessian
   Martin Krupicka        : Initial AUTO-CI
   Lucas Lang             : DCDCAS
   Marvin Lechner         : AUTO-CI (C++ implementation), FIC-MRCC
   Dagmar Lenk            : GEPOL surface, SMD
   Dimitrios Liakos       : Extrapolation schemes; Compound Job, initial MDCI parallelization
   Dimitrios Manganas     : Further ROCIS development; embedding schemes
   Dimitrios Pantazis     : SARC Basis sets
   Anastasios Papadopoulos: AUTO-CI, single reference methods and gradients
   Taras Petrenko         : DFT Hessian,TD-DFT gradient, ASA, ECA, R-Raman, ABS, FL, XAS/XES, NRVS
   Peter Pinski           : DLPNO-MP2, DLPNO-MP2 Gradient
   Christoph Reimann      : Effective Core Potentials
   Marius Retegan         : Local ZFS, SOC
   Christoph Riplinger    : Optimizer, TS searches, QM/MM, DLPNO-CCSD(T), (RO)-DLPNO pert. Triples
   Tobias Risthaus        : Range-separated hybrids, TD-DFT gradient, RPA, STAB
   Michael Roemelt        : Original ROCIS implementation
   Masaaki Saitow         : Open-shell DLPNO-CCSD energy and density
   Barbara Sandhoefer     : DKH picture change effects
   Avijit Sen             : IP-ROCIS
   Kantharuban Sivalingam : CASSCF convergence, NEVPT2, FIC-MRCI
   Bernardo de Souza      : ESD, SOC TD-DFT
   Georgi Stoychev        : AutoAux, RI-MP2 NMR, DLPNO-MP2 response
   Willem Van den Heuvel  : Paramagnetic NMR
   Boris Wezisla          : Elementary symmetry handling
   Frank Wennmohs         : Technical directorship


 We gratefully acknowledge several colleagues who have allowed us to
 interface, adapt or use parts of their codes:
   Stefan Grimme, W. Hujo, H. Kruse, P. Pracht,  : VdW corrections, initial TS optimization,
                  C. Bannwarth, S. Ehlert          DFT functionals, gCP, sTDA/sTD-DF
   Ed Valeev, F. Pavosevic, A. Kumar             : LibInt (2-el integral package), F12 methods
   Garnet Chan, S. Sharma, J. Yang, R. Olivares  : DMRG
   Ulf Ekstrom                                   : XCFun DFT Library
   Mihaly Kallay                                 : mrcc  (arbitrary order and MRCC methods)
   Jiri Pittner, Ondrej Demel                    : Mk-CCSD
   Frank Weinhold                                : gennbo (NPA and NBO analysis)
   Christopher J. Cramer and Donald G. Truhlar   : smd solvation model
   Lars Goerigk                                  : TD-DFT with DH, B97 family of functionals
   V. Asgeirsson, H. Jonsson                     : NEB implementation
   FAccTs GmbH                                   : IRC, NEB, NEB-TS, DLPNO-Multilevel, CI-OPT
                                                   MM, QMMM, 2- and 3-layer-ONIOM, Crystal-QMMM,
                                                   LR-CPCM, SF, NACMEs, symmetry and pop. for TD-DFT,
                                                   nearIR, NL-DFT gradient (VV10), updates on ESD,
                                                   ML-optimized integration grids
   S Lehtola, MJT Oliveira, MAL Marques          : LibXC Library
   Liviu Ungur et al                             : ANISO software


 Your calculation uses the libint2 library for the computation of 2-el integrals
 For citations please refer to: http://libint.valeyev.net

 Your ORCA version has been built with support for libXC version: 5.1.0
 For citations please refer to: https://tddft.org/programs/libxc/

 This ORCA versions uses:
   CBLAS   interface :  Fast vector & matrix operations
   LAPACKE interface :  Fast linear algebra routines
   SCALAPACK package :  Parallel linear algebra routines
   Shared memory     :  Shared parallel matrices
   BLAS/LAPACK       :  OpenBLAS 0.3.15  USE64BITINT DYNAMIC_ARCH NO_AFFINITY Haswell SINGLE_THREADED
        Core in use  :  Haswell
   Copyright (c) 2011-2014, The OpenBLAS Project


Your calculation utilizes the atom-pairwise dispersion correction
with the Becke-Johnson damping scheme (D3BJ)
Cite in your paper:
S.Grimme, S.Ehrlich, L.Goerigk, J Comput Chem, (2011), 32, 1456–1465 
S.Grimme, J.Antony, S.Ehrlich and H.Krieg, J.Chem.Phys., 132, (2010), 154104 
   

================================================================================

----- Orbital basis set information -----
Your calculation utilizes the basis: def2-SVP
   F. Weigend and R. Ahlrichs, Phys. Chem. Chem. Phys. 7, 3297 (2005).

----- AuxJ basis set information -----
Your calculation utilizes the auxiliary basis: def2/J
   F. Weigend, Phys. Chem. Chem. Phys. 8, 1057 (2006).

================================================================================
                                        WARNINGS
                       Please study these warnings very carefully!
================================================================================


WARNING: Geometry Optimization
  ===> : Switching off AutoStart
         For restart on a previous wavefunction, please use MOREAD

INFO   : the flag for use of the SHARK integral package has been found!

================================================================================
                                       INPUT FILE
================================================================================
NAME = inp.inp
|  1> ! OPT PBE D3BJ CPCM(water)
|  2> 
|  3> *xyz -1 1
|  4> C     -3.801663   -0.652693   -0.684697
|  5> C     -2.550937    0.179427   -0.798703
|  6> N     -1.456920   -0.538684   -0.582685
|  7> O     -2.581913    1.366965   -1.099866
|  8> H     -4.626442   -0.013127   -0.354521
|  9> H     -4.047386   -1.080342   -1.661177
| 10> H     -3.690616   -1.456248    0.050869
| 11> H     -0.665373    0.104176   -0.694118
| 12> *
| 13> 
| 14>                          ****END OF INPUT****
================================================================================

                       *****************************
                       * Geometry Optimization Run *
                       *****************************

Geometry optimization settings:
Update method            Update   .... BFGS
Choice of coordinates    CoordSys .... Z-matrix Internals
Initial Hessian          InHess   .... Almoef's Model

Convergence Tolerances:
Energy Change            TolE     ....  5.0000e-06 Eh
Max. Gradient            TolMAXG  ....  3.0000e-04 Eh/bohr
RMS Gradient             TolRMSG  ....  1.0000e-04 Eh/bohr
Max. Displacement        TolMAXD  ....  4.0000e-03 bohr
RMS Displacement         TolRMSD  ....  2.0000e-03 bohr
Strict Convergence                ....  False
------------------------------------------------------------------------------
                        ORCA OPTIMIZATION COORDINATE SETUP
------------------------------------------------------------------------------

The optimization will be done in new redundant internal coordinates
Making redundant internal coordinates   ...  (new redundants) done
Evaluating the initial hessian          ...  (Almloef) done
Evaluating the coordinates              ...  done
Calculating the B-matrix                .... done
Calculating the G-matrix                .... done
Diagonalizing the G-matrix              .... done
The first mode is                       ....    7
The number of degrees of freedom        ....   18

    -----------------------------------------------------------------
                    Redundant Internal Coordinates


    -----------------------------------------------------------------
         Definition                    Initial Value    Approx d2E/dq
    -----------------------------------------------------------------
      1. B(C   1,C   0)                  1.5066         0.407162   
      2. B(N   2,C   1)                  1.3264         0.706993   
      3. B(O   3,C   1)                  1.2255         1.023974   
      4. B(H   4,C   0)                  1.0947         0.353964   
      5. B(H   5,C   0)                  1.0940         0.354883   
      6. B(H   6,C   0)                  1.0950         0.353508   
      7. B(H   7,N   2)                  1.0258         0.408331   
      8. A(H   5,C   0,H   6)          109.6033         0.289334   
      9. A(H   4,C   0,H   6)          107.6099         0.289217   
     10. A(C   1,C   0,H   4)          109.0033         0.328018   
     11. A(C   1,C   0,H   5)          109.5628         0.328158   
     12. A(H   4,C   0,H   5)          109.1706         0.289393   
     13. A(C   1,C   0,H   6)          111.8361         0.327948   
     14. A(N   2,C   1,O   3)          125.8388         0.480697   
     15. A(C   0,C   1,O   3)          122.1964         0.437576   
     16. A(C   0,C   1,N   2)          111.9252         0.409543   
     17. A(C   1,N   2,H   7)          106.2292         0.363181   
     18. D(N   2,C   1,C   0,H   4)    150.9912         0.012285   
     19. D(O   3,C   1,C   0,H   4)    -31.1750         0.012285   
     20. D(N   2,C   1,C   0,H   5)    -89.6047         0.012285   
     21. D(O   3,C   1,C   0,H   5)     88.2292         0.012285   
     22. D(O   3,C   1,C   0,H   6)   -150.0371         0.012285   
     23. D(N   2,C   1,C   0,H   6)     32.1290         0.012285   
     24. D(H   7,N   2,C   1,C   0)    179.2110         0.037503   
     25. D(H   7,N   2,C   1,O   3)      1.4722         0.037503   
    -----------------------------------------------------------------

Number of atoms                         .... 8
Number of degrees of freedom            .... 25

         *************************************************************
         *                GEOMETRY OPTIMIZATION CYCLE   1            *
         *************************************************************
---------------------------------
CARTESIAN COORDINATES (ANGSTROEM)
---------------------------------
  C     -3.801663   -0.652693   -0.684697
  C     -2.550937    0.179427   -0.798703
  N     -1.456920   -0.538684   -0.582685
  O     -2.581913    1.366965   -1.099866
  H     -4.626442   -0.013127   -0.354521
  H     -4.047386   -1.080342   -1.661177
  H     -3.690616   -1.456248    0.050869
  H     -0.665373    0.104176   -0.694118

----------------------------
CARTESIAN COORDINATES (A.U.)
----------------------------
  NO LB      ZA    FRAG     MASS         X           Y           Z
   0 C     6.0000    0    12.011   -7.184102   -1.233411   -1.293890
   1 C     6.0000    0    12.011   -4.820572    0.339068   -1.509330
   2 N     7.0000    0    14.007   -2.753180   -1.017965   -1.101115
   3 O     8.0000    0    15.999   -4.879108    2.583189   -2.078446
   4 H     1.0000    0     1.008   -8.742708   -0.024806   -0.669948
   5 H     1.0000    0     1.008   -7.648451   -2.041551   -3.139170
   6 H     1.0000    0     1.008   -6.974254   -2.751910    0.096128
   7 H     1.0000    0     1.008   -1.257373    0.196864   -1.311693

--------------------------------
INTERNAL COORDINATES (ANGSTROEM)
--------------------------------
 C      0   0   0     0.000000000000     0.00000000     0.00000000
 C      1   0   0     1.506564498955     0.00000000     0.00000000
 N      2   1   0     1.326356053605   111.92516282     0.00000000
 O      2   1   3     1.225522405584   122.19638191   177.83387790
 H      1   2   3     1.094678609535   109.00333061   150.99116383
 H      1   2   3     1.093972874586   109.56278738   270.39534749
 H      1   2   3     1.095029412660   111.83614521    32.12898671
 H      3   2   1     1.025784064167   106.22924294   179.21102604

---------------------------
INTERNAL COORDINATES (A.U.)
---------------------------
 C      0   0   0     0.000000000000     0.00000000     0.00000000
 C      1   0   0     2.846994306114     0.00000000     0.00000000
 N      2   1   0     2.506449697382   111.92516282     0.00000000
 O      2   1   3     2.315901717539   122.19638191   177.83387790
 H      1   2   3     2.068642776682   109.00333061   150.99116383
 H      1   2   3     2.067309130906   109.56278738   270.39534749
 H      1   2   3     2.069305698516   111.83614521    32.12898671
 H      3   2   1     1.938450953815   106.22924294   179.21102604

---------------------
BASIS SET INFORMATION
---------------------
There are 4 groups of distinct atoms

 Group   1 Type C   : 7s4p1d contracted to 3s2p1d pattern {511/31/1}
 Group   2 Type N   : 7s4p1d contracted to 3s2p1d pattern {511/31/1}
 Group   3 Type O   : 7s4p1d contracted to 3s2p1d pattern {511/31/1}
 Group   4 Type H   : 4s1p contracted to 2s1p pattern {31/1}

Atom   0C    basis set group =>   1
Atom   1C    basis set group =>   1
Atom   2N    basis set group =>   2
Atom   3O    basis set group =>   3
Atom   4H    basis set group =>   4
Atom   5H    basis set group =>   4
Atom   6H    basis set group =>   4
Atom   7H    basis set group =>   4
---------------------------------
AUXILIARY/J BASIS SET INFORMATION
---------------------------------
There are 4 groups of distinct atoms

 Group   1 Type C   : 12s5p4d2f1g contracted to 6s4p3d1f1g pattern {711111/2111/211/2/1}
 Group   2 Type N   : 12s5p4d2f1g contracted to 6s4p3d1f1g pattern {711111/2111/211/2/1}
 Group   3 Type O   : 12s5p4d2f1g contracted to 6s4p3d1f1g pattern {711111/2111/211/2/1}
 Group   4 Type H   : 5s2p1d contracted to 3s1p1d pattern {311/2/1}

Atom   0C    basis set group =>   1
Atom   1C    basis set group =>   1
Atom   2N    basis set group =>   2
Atom   3O    basis set group =>   3
Atom   4H    basis set group =>   4
Atom   5H    basis set group =>   4
Atom   6H    basis set group =>   4
Atom   7H    basis set group =>   4
------------------------------------------------------------------------------
                           ORCA GTO INTEGRAL CALCULATION
                           -- RI-GTO INTEGRALS CHOSEN --
------------------------------------------------------------------------------
------------------------------------------------------------------------------
                   ___                                                        
                  /   \      - P O W E R E D   B Y -                         
                 /     \                                                     
                 |  |  |   _    _      __       _____    __    __             
                 |  |  |  | |  | |    /  \     |  _  \  |  |  /  |          
                  \  \/   | |  | |   /    \    | | | |  |  | /  /          
                 / \  \   | |__| |  /  /\  \   | |_| |  |  |/  /          
                |  |  |   |  __  | /  /__\  \  |    /   |      \           
                |  |  |   | |  | | |   __   |  |    \   |  |\   \          
                \     /   | |  | | |  |  |  |  | |\  \  |  | \   \       
                 \___/    |_|  |_| |__|  |__|  |_| \__\ |__|  \__/        
                                                                              
                      - O R C A' S   B I G   F R I E N D -                    
                                      &                                       
                       - I N T E G R A L  F E E D E R -                       
                                                                              
 v1 FN, 2020, v2 2021                                                         
------------------------------------------------------------------------------


Reading SHARK input file inp.SHARKINP.tmp ... ok
----------------------
SHARK INTEGRAL PACKAGE
----------------------

Number of atoms                             ...      8
Number of basis functions                   ...     76
Number of shells                            ...     36
Maximum angular momentum                    ...      2
Integral batch strategy                     ... SHARK/LIBINT Hybrid
RI-J (if used) integral strategy            ... SPLIT-RIJ (Revised 2003 algorithm where possible)
Printlevel                                  ...      1
Contraction scheme used                     ... SEGMENTED contraction
Coulomb Range Separation                    ... NOT USED
Exchange Range Separation                   ... NOT USED
Finite Nucleus Model                        ... NOT USED
Auxiliary Coulomb fitting basis             ... AVAILABLE
   # of basis functions in Aux-J            ...    240
   # of shells in Aux-J                     ...     80
   Maximum angular momentum in Aux-J        ...      4
Auxiliary J/K fitting basis                 ... NOT available
Auxiliary Correlation fitting basis         ... NOT available
Auxiliary 'external' fitting basis          ... NOT available
Integral threshold                          ...     2.500000e-11
Primitive cut-off                           ...     2.500000e-12
Primitive pair pre-selection threshold      ...     2.500000e-12

Calculating pre-screening integrals         ... done (  0.0 sec) Dimension = 36
Organizing shell pair data                  ... done (  0.0 sec)
Shell pair information
Total number of shell pairs                 ...       666
Shell pairs after pre-screening             ...       663
Total number of primitive shell pairs       ...      2410
Primitive shell pairs kept                  ...      1993
          la=0 lb=0:    207 shell pairs
          la=1 lb=0:    240 shell pairs
          la=1 lb=1:     78 shell pairs
          la=2 lb=0:     80 shell pairs
          la=2 lb=1:     48 shell pairs
          la=2 lb=2:     10 shell pairs

Calculating one electron integrals          ... done (  0.0 sec)
Calculating RI/J V-Matrix + Cholesky decomp.... done (  0.2 sec)
Calculating Nuclear repulsion               ... done (  0.0 sec) ENN=    114.116639751679 Eh

SHARK setup successfully completed in   0.8 seconds

Maximum memory used throughout the entire GTOINT-calculation: 9.4 MB
-------------------------------------------------------------------------------
                                 ORCA SCF
-------------------------------------------------------------------------------

------------
SCF SETTINGS
------------
Hamiltonian:
 Density Functional     Method          .... DFT(GTOs)
 Exchange Functional    Exchange        .... PBE
   PBE kappa parameter   XKappa         ....  0.804000
   PBE mue parameter    XMuePBE         ....  0.219520
 Correlation Functional Correlation     .... PBE
   PBE beta parameter  CBetaPBE         ....  0.066725
 LDA part of GGA corr.  LDAOpt          .... PW91-LDA
 Gradients option       PostSCFGGA      .... off
   Density functional embedding theory  .... OFF
   NL short-range parameter             ....  6.400000
 RI-approximation to the Coulomb term is turned on
   Number of AuxJ basis functions       .... 240


General Settings:
 Integral files         IntName         .... inp
 Hartree-Fock type      HFTyp           .... RHF
 Total Charge           Charge          ....   -1
 Multiplicity           Mult            ....    1
 Number of Electrons    NEL             ....   32
 Basis Dimension        Dim             ....   76
 Nuclear Repulsion      ENuc            ....    114.1166397517 Eh

Convergence Acceleration:
 DIIS                   CNVDIIS         .... on
   Start iteration      DIISMaxIt       ....    12
   Startup error        DIISStart       ....  0.200000
   # of expansion vecs  DIISMaxEq       ....     5
   Bias factor          DIISBfac        ....   1.050
   Max. coefficient     DIISMaxC        ....  10.000
 Trust-Rad. Augm. Hess. CNVTRAH         .... auto
   Auto Start mean grad. ratio tolernc. ....  1.125000
   Auto Start start iteration           ....    20
   Auto Start num. interpolation iter.  ....    10
   Max. Number of Micro iterations      ....    16
   Max. Number of Macro iterations      .... Maxiter - #DIIS iter
   Number of Davidson start vectors     ....     2
   Converg. threshold I  (grad. norm)   ....   1.000e-05
   Converg. threshold II (energy diff.) ....   1.000e-08
   Grad. Scal. Fac. for Micro threshold ....   0.100
   Minimum threshold for Micro iter.    ....   0.010
   NR start threshold (gradient norm)   ....   0.001
   Initial trust radius                 ....   0.400
   Minimum AH scaling param. (alpha)    ....   1.000
   Maximum AH scaling param. (alpha)    .... 1000.000
   Orbital update algorithm             .... Taylor
   White noise on init. David. guess    .... on
   Maximum white noise                  ....   0.010
   Quad. conv. algorithm                .... NR
 SOSCF                  CNVSOSCF        .... on
   Start iteration      SOSCFMaxIt      ....   150
   Startup grad/error   SOSCFStart      ....  0.003300
 Level Shifting         CNVShift        .... on
   Level shift para.    LevelShift      ....    0.2500
   Turn off err/grad.   ShiftErr        ....    0.0010
 Zerner damping         CNVZerner       .... off
 Static damping         CNVDamp         .... on
   Fraction old density DampFac         ....    0.7000
   Max. Damping (<1)    DampMax         ....    0.9800
   Min. Damping (>=0)   DampMin         ....    0.0000
   Turn off err/grad.   DampErr         ....    0.1000
 Fernandez-Rico         CNVRico         .... off

SCF Procedure:
 Maximum # iterations   MaxIter         ....   125
 SCF integral mode      SCFMode         .... Direct
   Integral package                     .... SHARK and LIBINT hybrid scheme
 Reset frequency        DirectResetFreq ....    20
 Integral Threshold     Thresh          ....  2.500e-11 Eh
 Primitive CutOff       TCut            ....  2.500e-12 Eh

Convergence Tolerance:
 Convergence Check Mode ConvCheckMode   .... Total+1el-Energy
 Convergence forced     ConvForced      .... 0
 Energy Change          TolE            ....  1.000e-08 Eh
 1-El. energy change                    ....  1.000e-05 Eh
 Orbital Gradient       TolG            ....  1.000e-05
 Orbital Rotation angle TolX            ....  1.000e-05
 DIIS Error             TolErr          ....  5.000e-07


Diagonalization of the overlap matrix:
Smallest eigenvalue                        ... 3.681e-03
Time for diagonalization                   ...    0.002 sec
Threshold for overlap eigenvalues          ... 1.000e-08
Number of eigenvalues below threshold      ... 0
Time for construction of square roots      ...    0.107 sec
Total time needed                          ...    0.109 sec

Time for model grid setup =    0.268 sec

------------------------------
INITIAL GUESS: MODEL POTENTIAL
------------------------------
Loading Hartree-Fock densities                     ... done
Calculating cut-offs                               ... done
Initializing the effective Hamiltonian             ... done
Setting up the integral package (SHARK)            ... done
Starting the Coulomb interaction                   ... done (   0.1 sec)
Reading the grid                                   ... done
Mapping shells                                     ... done
Starting the XC term evaluation                    ... done (   0.1 sec)
  promolecular density results
     # of electrons  =     30.997222891
     EX              =    -26.041361645
     EC              =     -1.011772022
     EX+EC           =    -27.053133667
Transforming the Hamiltonian                       ... done (   0.0 sec)
Diagonalizing the Hamiltonian                      ... done (   0.0 sec)
Back transforming the eigenvectors                 ... done (   0.0 sec)
Now organizing SCF variables                       ... done
                      ------------------
                      INITIAL GUESS DONE (   0.5 sec)
                      ------------------
-------------------
DFT GRID GENERATION
-------------------

General Integration Accuracy     IntAcc      ... 4.388
Radial Grid Type                 RadialGrid  ... OptM3 with GC (2021)
Angular Grid (max. ang.)         AngularGrid ... 4 (Lebedev-302)
Angular grid pruning method      GridPruning ... 4 (adaptive)
Weight generation scheme         WeightScheme... Becke
Basis function cutoff            BFCut       ... 1.0000e-11
Integration weight cutoff        WCut        ... 1.0000e-14
Angular grids for H and He will be reduced by one unit
Partially contracted basis set               ... off
Rotationally invariant grid construction     ... off

Total number of grid points                  ...    37394
Total number of batches                      ...      589
Average number of points per batch           ...       63
Average number of grid points per atom       ...     4674
Time for grid setup =    0.393 sec


--------------------
CPCM SOLVATION MODEL
--------------------
CPCM parameters:
  Epsilon                                         ...      80.4000
  Refrac                                          ...       1.3300
  Rsolv                                           ...       1.3000
  Surface type                                    ... GAUSSIAN VDW
  Epsilon function type                           ...         CPCM
Radii:
 Radius for C  used is    3.8550 Bohr (=   2.0400 Ang.)
 Radius for N  used is    3.5149 Bohr (=   1.8600 Ang.)
 Radius for O  used is    3.4469 Bohr (=   1.8240 Ang.)
 Radius for H  used is    2.4944 Bohr (=   1.3200 Ang.)
Calculating surface                               ...        done! (  0.0s)
GEPOL surface points                              ...          522
GEPOL Volume                                      ...     531.9172
GEPOL Surface-area                                ...     350.0270
Calculating surface distance matrix               ...        done! (  0.0s)
Performing Cholesky decomposition & store         ...        done! (  0.2s)
Overall time for CPCM initialization              ...                 0.2s
--------------
SCF ITERATIONS
--------------
ITER       Energy         Delta-E        Max-DP      RMS-DP      [F,P]     Damp
               ***  Starting incremental Fock matrix formation  ***
  0   -208.0621665695   0.000000000000 0.15767924  0.00697710  0.2875169 0.7000
  1   -208.1840126839  -0.121846114354 0.10218569  0.00488133  0.1226895 0.7000
                               ***Turning on DIIS***
  2   -208.2243788173  -0.040366133490 0.13528927  0.00704191  0.0313355 0.0000
  3   -208.2873169570  -0.062938139698 0.07596254  0.00318208  0.0753395 0.0000
  4   -208.3042649119  -0.016947954831 0.02728481  0.00109076  0.0177544 0.0000
  5   -208.3054538811  -0.001188969208 0.01115705  0.00044478  0.0044093 0.0000
                      *** Initiating the SOSCF procedure ***
                           *** Shutting down DIIS ***
                      *** Re-Reading the Fockian *** 
                      *** Removing any level shift *** 
ITER      Energy       Delta-E        Grad      Rot      Max-DP    RMS-DP
  6   -208.30554767  -0.0000937924  0.000645  0.000645  0.007435  0.000286
               *** Restarting incremental Fock matrix formation ***
  7   -208.30555175  -0.0000040769  0.001052  0.005173  0.004975  0.000232
  8   -208.30549657   0.0000551824  0.003000  0.003840  0.003631  0.000175
  9   -208.30555967  -0.0000631000  0.000090  0.000195  0.000446  0.000019
 10   -208.30555948   0.0000001874  0.000137  0.000136  0.000251  0.000012
 11   -208.30555980  -0.0000003193  0.000011  0.000028  0.000048  0.000003
 12   -208.30555979   0.0000000057  0.000018  0.000018  0.000034  0.000002
                  ***Gradient check signals convergence***
              ***Rediagonalizing the Fockian in SOSCF/NRSCF***

               *****************************************************
               *                     SUCCESS                       *
               *           SCF CONVERGED AFTER  13 CYCLES          *
               *****************************************************


----------------
TOTAL SCF ENERGY
----------------

Total Energy       :         -208.30555980 Eh           -5668.28245 eV

Components:
Nuclear Repulsion  :          114.11663975 Eh            3105.27164 eV
Electronic Energy  :         -322.42219955 Eh           -8773.55409 eV
One Electron Energy:         -517.26145325 Eh          -14075.39972 eV
Two Electron Energy:          194.83925370 Eh            5301.84563 eV
CPCM Dielectric    :           -0.10874170 Eh              -2.95901 eV

Virial components:
Potential Energy   :         -415.01012775 Eh          -11292.99970 eV
Kinetic Energy     :          206.70456795 Eh            5624.71725 eV
Virial Ratio       :            2.00774531


DFT components:
N(Alpha)           :       16.000002632883 electrons
N(Beta)            :       16.000002632883 electrons
N(Total)           :       32.000005265766 electrons
E(X)               :      -26.820928341459 Eh       
E(C)               :       -1.068011012088 Eh       
E(XC)              :      -27.888939353547 Eh       
DFET-embed. en.    :        0.000000000000 Eh       
CPCM Solvation Model Properties:
Surface-charge          :            0.98165160
Charge-correction       :           -0.00329056 Eh              -0.08954 eV
Free-energy (cav+disp)  :  This term is not implemented in the current solvation scheme

---------------
SCF CONVERGENCE
---------------

  Last Energy change         ...   -7.0696e-09  Tolerance :   1.0000e-08
  Last MAX-Density change    ...    2.6798e-06  Tolerance :   1.0000e-07
  Last RMS-Density change    ...    1.3546e-07  Tolerance :   5.0000e-09
  Last Orbital Gradient      ...    4.2296e-07  Tolerance :   1.0000e-05
  Last Orbital Rotation      ...    7.8444e-07  Tolerance :   1.0000e-05

             **** THE GBW FILE WAS UPDATED (inp.gbw) ****
             **** DENSITY inp.scfp WAS UPDATED ****
             **** ENERGY FILE WAS UPDATED (inp.en.tmp) ****
             **** THE GBW FILE WAS UPDATED (inp.gbw) ****
             **** DENSITY inp.scfp WAS UPDATED ****
----------------
ORBITAL ENERGIES
----------------

  NO   OCC          E(Eh)            E(eV) 
   0   2.0000     -18.648624      -507.4549 
   1   2.0000     -13.877764      -377.6332 
   2   2.0000      -9.899526      -269.3798 
   3   2.0000      -9.856025      -268.1961 
   4   2.0000      -0.861126       -23.4324 
   5   2.0000      -0.692426       -18.8419 
   6   2.0000      -0.607315       -16.5259 
   7   2.0000      -0.419387       -11.4121 
   8   2.0000      -0.354360        -9.6426 
   9   2.0000      -0.352572        -9.5940 
  10   2.0000      -0.312207        -8.4956 
  11   2.0000      -0.291307        -7.9269 
  12   2.0000      -0.263886        -7.1807 
  13   2.0000      -0.184314        -5.0154 
  14   2.0000      -0.133234        -3.6255 
  15   2.0000      -0.128423        -3.4946 
  16   0.0000       0.070058         1.9064 
  17   0.0000       0.074972         2.0401 
  18   0.0000       0.116813         3.1786 
  19   0.0000       0.131509         3.5785 
  20   0.0000       0.151990         4.1359 
  21   0.0000       0.240249         6.5375 
  22   0.0000       0.277325         7.5464 
  23   0.0000       0.381123        10.3709 
  24   0.0000       0.453107        12.3297 
  25   0.0000       0.476124        12.9560 
  26   0.0000       0.511487        13.9183 
  27   0.0000       0.545001        14.8302 
  28   0.0000       0.548914        14.9367 
  29   0.0000       0.616902        16.7868 
  30   0.0000       0.641222        17.4485 
  31   0.0000       0.648712        17.6524 
  32   0.0000       0.654156        17.8005 
  33   0.0000       0.668147        18.1812 
  34   0.0000       0.689920        18.7737 
  35   0.0000       0.767306        20.8795 
  36   0.0000       0.811154        22.0726 
  37   0.0000       0.823854        22.4182 
  38   0.0000       0.876641        23.8546 
  39   0.0000       1.002476        27.2788 
  40   0.0000       1.040279        28.3074 
  41   0.0000       1.057995        28.7895 
  42   0.0000       1.178830        32.0776 
  43   0.0000       1.233462        33.5642 
  44   0.0000       1.314359        35.7655 
  45   0.0000       1.378366        37.5073 
  46   0.0000       1.478329        40.2274 
  47   0.0000       1.551377        42.2151 
  48   0.0000       1.568985        42.6943 
  49   0.0000       1.608016        43.7563 
  50   0.0000       1.673276        45.5321 
  51   0.0000       1.721114        46.8339 
  52   0.0000       1.751993        47.6741 
  53   0.0000       1.772209        48.2243 
  54   0.0000       1.848859        50.3100 
  55   0.0000       1.981510        53.9196 
  56   0.0000       2.013089        54.7789 
  57   0.0000       2.063454        56.1494 
  58   0.0000       2.093603        56.9698 
  59   0.0000       2.226462        60.5851 
  60   0.0000       2.342919        63.7541 
  61   0.0000       2.410850        65.6026 
  62   0.0000       2.428191        66.0744 
  63   0.0000       2.526118        68.7392 
  64   0.0000       2.539076        69.0918 
  65   0.0000       2.661854        72.4327 
  66   0.0000       2.701740        73.5181 
  67   0.0000       2.739193        74.5372 
  68   0.0000       2.809549        76.4517 
  69   0.0000       2.870754        78.1172 
  70   0.0000       2.911058        79.2139 
  71   0.0000       3.000485        81.6473 
  72   0.0000       3.158067        85.9354 
  73   0.0000       3.289711        89.5176 
  74   0.0000       3.464724        94.2799 
  75   0.0000       3.601124        97.9916 

                    ********************************
                    * MULLIKEN POPULATION ANALYSIS *
                    ********************************

-----------------------
MULLIKEN ATOMIC CHARGES
-----------------------
   0 C :    0.011275
   1 C :   -0.204891
   2 N :   -0.409139
   3 O :   -0.395226
   4 H :   -0.016744
   5 H :    0.022617
   6 H :   -0.009183
   7 H :    0.001291
Sum of atomic charges:   -1.0000000

--------------------------------
MULLIKEN REDUCED ORBITAL CHARGES
--------------------------------
  0 C s       :     2.957699  s :     2.957699
      pz      :     0.992760  p :     3.007567
      px      :     1.017699
      py      :     0.997108
      dz2     :     0.004091  d :     0.023459
      dxz     :     0.003315
      dyz     :     0.006169
      dx2y2   :     0.003344
      dxy     :     0.006540
  1 C s       :     3.104273  s :     3.104273
      pz      :     0.957998  p :     2.984924
      px      :     1.049730
      py      :     0.977195
      dz2     :     0.008721  d :     0.115694
      dxz     :     0.011674
      dyz     :     0.023594
      dx2y2   :     0.029551
      dxy     :     0.042154
  2 N s       :     3.521230  s :     3.521230
      pz      :     1.464087  p :     3.869529
      px      :     0.975369
      py      :     1.430072
      dz2     :     0.002412  d :     0.018380
      dxz     :     0.002007
      dyz     :     0.002562
      dx2y2   :     0.002260
      dxy     :     0.009140
  3 O s       :     3.700855  s :     3.700855
      pz      :     1.540492  p :     4.679642
      px      :     1.766748
      py      :     1.372401
      dz2     :     0.001896  d :     0.014729
      dxz     :     0.000224
      dyz     :     0.004548
      dx2y2   :     0.004978
      dxy     :     0.003083
  4 H s       :     0.993380  s :     0.993380
      pz      :     0.006192  p :     0.023364
      px      :     0.009162
      py      :     0.008010
  5 H s       :     0.952717  s :     0.952717
      pz      :     0.011632  p :     0.024665
      px      :     0.006070
      py      :     0.006963
  6 H s       :     0.985827  s :     0.985827
      pz      :     0.008900  p :     0.023356
      px      :     0.005055
      py      :     0.009401
  7 H s       :     0.956319  s :     0.956319
      pz      :     0.011401  p :     0.042390
      px      :     0.016147
      py      :     0.014842


                     *******************************
                     * LOEWDIN POPULATION ANALYSIS *
                     *******************************

----------------------
LOEWDIN ATOMIC CHARGES
----------------------
   0 C :   -0.113429
   1 C :   -0.114489
   2 N :   -0.424603
   3 O :   -0.383183
   4 H :    0.010576
   5 H :    0.028469
   6 H :    0.015050
   7 H :   -0.018391

-------------------------------
LOEWDIN REDUCED ORBITAL CHARGES
-------------------------------
  0 C s       :     2.857368  s :     2.857368
      pz      :     1.059887  p :     3.188777
      px      :     1.063826
      py      :     1.065064
      dz2     :     0.012250  d :     0.067284
      dxz     :     0.008087
      dyz     :     0.017895
      dx2y2   :     0.008984
      dxy     :     0.020067
  1 C s       :     2.844087  s :     2.844087
      pz      :     0.916078  p :     2.991045
      px      :     1.033512
      py      :     1.041455
      dz2     :     0.020012  d :     0.279357
      dxz     :     0.025078
      dyz     :     0.050877
      dx2y2   :     0.070748
      dxy     :     0.112642
  2 N s       :     3.298655  s :     3.298655
      pz      :     1.444972  p :     4.084440
      px      :     1.113252
      py      :     1.526216
      dz2     :     0.006083  d :     0.041507
      dxz     :     0.004436
      dyz     :     0.003023
      dx2y2   :     0.005674
      dxy     :     0.022291
  3 O s       :     3.544241  s :     3.544241
      pz      :     1.548029  p :     4.811373
      px      :     1.783274
      py      :     1.480070
      dz2     :     0.003574  d :     0.027569
      dxz     :     0.000400
      dyz     :     0.007386
      dx2y2   :     0.010352
      dxy     :     0.005857
  4 H s       :     0.921951  s :     0.921951
      pz      :     0.015227  p :     0.067472
      px      :     0.030104
      py      :     0.022141
  5 H s       :     0.903080  s :     0.903080
      pz      :     0.033730  p :     0.068451
      px      :     0.016816
      py      :     0.017905
  6 H s       :     0.917070  s :     0.917070
      pz      :     0.024733  p :     0.067880
      px      :     0.014372
      py      :     0.028775
  7 H s       :     0.890880  s :     0.890880
      pz      :     0.033869  p :     0.127511
      px      :     0.045066
      py      :     0.048576


                      *****************************
                      * MAYER POPULATION ANALYSIS *
                      *****************************

  NA   - Mulliken gross atomic population
  ZA   - Total nuclear charge
  QA   - Mulliken gross atomic charge
  VA   - Mayer's total valence
  BVA  - Mayer's bonded valence
  FA   - Mayer's free valence

  ATOM       NA         ZA         QA         VA         BVA        FA
  0 C      5.9887     6.0000     0.0113     3.7957     3.7957    -0.0000
  1 C      6.2049     6.0000    -0.2049     4.6013     4.6013    -0.0000
  2 N      7.4091     7.0000    -0.4091     2.7042     2.7042    -0.0000
  3 O      8.3952     8.0000    -0.3952     2.0998     2.0998     0.0000
  4 H      1.0167     1.0000    -0.0167     1.0150     1.0150     0.0000
  5 H      0.9774     1.0000     0.0226     0.9990     0.9990     0.0000
  6 H      1.0092     1.0000    -0.0092     1.0254     1.0254    -0.0000
  7 H      0.9987     1.0000     0.0013     1.0521     1.0521    -0.0000

  Mayer bond orders larger than 0.100000
B(  0-C ,  1-C ) :   0.9835 B(  0-C ,  4-H ) :   0.9504 B(  0-C ,  5-H ) :   0.9589 
B(  0-C ,  6-H ) :   0.9545 B(  1-C ,  2-N ) :   1.6346 B(  1-C ,  3-O ) :   1.8998 
B(  2-N ,  3-O ) :   0.1239 B(  2-N ,  7-H ) :   0.9437 

-------
TIMINGS
-------

Total SCF time: 0 days 0 hours 0 min 17 sec 

Total time                  ....      17.201 sec
Sum of individual times     ....      12.453 sec  ( 72.4%)

Fock matrix formation       ....      11.013 sec  ( 64.0%)
  Split-RI-J                ....       0.571 sec  (  5.2% of F)
  XC integration            ....       5.227 sec  ( 47.5% of F)
    Basis function eval.    ....       1.225 sec  ( 23.4% of XC)
    Density eval.           ....       0.550 sec  ( 10.5% of XC)
    XC-Functional eval.     ....       0.451 sec  (  8.6% of XC)
    XC-Potential eval.      ....       0.524 sec  ( 10.0% of XC)
Diagonalization             ....       0.007 sec  (  0.0%)
Density matrix formation    ....       0.001 sec  (  0.0%)
Population analysis         ....       0.275 sec  (  1.6%)
Initial guess               ....       0.190 sec  (  1.1%)
Orbital Transformation      ....       0.000 sec  (  0.0%)
Orbital Orthonormalization  ....       0.000 sec  (  0.0%)
DIIS solution               ....       0.116 sec  (  0.7%)
SOSCF solution              ....       0.190 sec  (  1.1%)
Grid generation             ....       0.662 sec  (  3.8%)

Maximum memory used throughout the entire SCF-calculation: 19.7 MB


-------------------------------------------------------------------------------
                          DFT DISPERSION CORRECTION                            
                                                                               
                              DFTD3 V3.1  Rev 1                                
                          USING Becke-Johnson damping                          
-------------------------------------------------------------------------------
The PBE functional is recognized
Active option DFTDOPT                   ...         4   

molecular C6(AA) [au] = 589.267982 


            DFT-D V3
 parameters
 s6 scaling factor         :     1.0000 
 a1 scaling factor         :     0.4289 
 s8 scaling factor         :     0.7875 
 a2 scaling factor         :     4.4407 
 ad hoc parameters k1-k3   :    16.0000     1.3333    -4.0000 

 Edisp/kcal,au: -2.878569481386  -0.004587291975 
 E6   /kcal   :  -2.061295062 
 E8   /kcal   :  -0.817274419 
 % E8         :  28.391686381 

-------------------------   ----------------
Dispersion correction           -0.004587292
-------------------------   ----------------


-------------------------   --------------------
FINAL SINGLE POINT ENERGY      -208.310147093091
-------------------------   --------------------

------------------------------------------------------------------------------
                         ORCA SCF GRADIENT CALCULATION
------------------------------------------------------------------------------

Gradient of the Kohn-Sham DFT energy:
Kohn-Sham wavefunction type      ... RKS
Hartree-Fock exchange scaling    ...    0.000
Number of operators              ...    1
Number of atoms                  ...    8
Basis set dimensions             ...   76
Integral neglect threshold       ... 2.5e-11
Integral primitive cutoff        ... 2.5e-12
SHARK Integral package           ... ON

Nuc. rep. gradient       (SHARK) ... done (  0.0 sec)
HCore & Overlap gradient (SHARK) ... done (  0.0 sec)
RI-J gradient            (SHARK) ... done (  0.2 sec)
Exchange-correlation gradient    ... done
Dispersion correction            ... done

------------------
CARTESIAN GRADIENT
------------------

   1   C   :    0.013032433   -0.003770925   -0.005416716
   2   C   :   -0.029621470    0.047661879   -0.012606660
   3   N   :   -0.007201725    0.023305256   -0.008471396
   4   O   :    0.017282899   -0.066835283    0.017206783
   5   H   :    0.010576693   -0.004869667    0.000222594
   6   H   :    0.005519678    0.005095299    0.008458828
   7   H   :   -0.002379769    0.007786638   -0.002329290
   8   H   :   -0.007208738   -0.008373196    0.002935856

Difference to translation invariance:
           :   -0.0000000000   -0.0000000000   -0.0000000000

Difference to rotation invariance:
           :   -0.0000005743   -0.0002974000   -0.0003653830

Norm of the cartesian gradient     ...    0.0985694527
RMS gradient                       ...    0.0201204053
MAX gradient                       ...    0.0668352834

-------
TIMINGS
-------

Total SCF gradient time            ...        1.637 sec

One electron gradient       ....       0.024 sec  (  1.4%)
RI-J Coulomb gradient       ....       0.190 sec  ( 11.6%)
XC gradient                 ....       1.063 sec  ( 64.9%)
CPCM gradient               ....       0.099 sec  (  6.0%)
   A-Matrix (El+Nuc)        ....       0.016 sec  (  1.0%)
   Potential                ....       0.083 sec  (  5.1%)

Maximum memory used throughout the entire SCFGRAD-calculation: 30.2 MB
------------------------------------------------------------------------------
                         ORCA GEOMETRY RELAXATION STEP
------------------------------------------------------------------------------

Reading the OPT-File                    .... done
Getting information on internals        .... done
Copying old internal coords+grads       .... done
Making the new internal coordinates     .... (new redundants).... done
Validating the new internal coordinates .... (new redundants).... done
Calculating the B-matrix                .... done
Calculating the G,G- and P matrices     .... done
Transforming gradient to internals      .... done
Projecting the internal gradient        .... done
Number of atoms                         ....   8
Number of internal coordinates          ....  25
Current Energy                          ....  -208.310147093 Eh
Current gradient norm                   ....     0.098569453 Eh/bohr
Maximum allowed component of the step   ....  0.300
Current trust radius                    ....  0.300
Evaluating the initial hessian          ....  (Almloef) done
Projecting the Hessian                  .... done
Forming the augmented Hessian           .... done
Diagonalizing the augmented Hessian     .... done
Last element of RFO vector              ....  0.990279986
Lowest eigenvalues of augmented Hessian:
 -0.009800431  0.012311821  0.019110915  0.037563069  0.133241666
Length of the computed step             ....  0.140453491
The final length of the internal step   ....  0.140453491
Converting the step to cartesian space:
 Initial RMS(Int)=    0.0280906981
Transforming coordinates:
 Iter   0:  RMS(Cart)=    0.0351409589 RMS(Int)=    0.0280931426
 Iter   1:  RMS(Cart)=    0.0006025280 RMS(Int)=    0.0004494975
 Iter   2:  RMS(Cart)=    0.0000190417 RMS(Int)=    0.0000175684
 Iter   3:  RMS(Cart)=    0.0000004022 RMS(Int)=    0.0000004056
 Iter   4:  RMS(Cart)=    0.0000000199 RMS(Int)=    0.0000000146
done
Storing new coordinates                 .... done

                                .--------------------.
          ----------------------|Geometry convergence|-------------------------
          Item                value                   Tolerance       Converged
          ---------------------------------------------------------------------
          RMS gradient        0.0168193038            0.0001000000      NO
          MAX gradient        0.0694243997            0.0003000000      NO
          RMS step            0.0280906981            0.0020000000      NO
          MAX step            0.0671562294            0.0040000000      NO
          ........................................................
          Max(Bonds)      0.0355      Max(Angles)    2.68
          Max(Dihed)        2.02      Max(Improp)    0.00
          ---------------------------------------------------------------------

The optimization has not yet converged - more geometry cycles are needed


    ---------------------------------------------------------------------------
                         Redundant Internal Coordinates
                            (Angstroem and degrees)

        Definition                    Value    dE/dq     Step     New-Value
    ----------------------------------------------------------------------------
     1. B(C   1,C   0)                1.5066 -0.024471  0.0311    1.5376   
     2. B(N   2,C   1)                1.3264 -0.020898  0.0154    1.3418   
     3. B(O   3,C   1)                1.2255 -0.069424  0.0355    1.2611   
     4. B(H   4,C   0)                1.0947 -0.010753  0.0156    1.1103   
     5. B(H   5,C   0)                1.0940 -0.010786  0.0157    1.1096   
     6. B(H   6,C   0)                1.0950 -0.007508  0.0109    1.1060   
     7. B(H   7,N   2)                1.0258 -0.011115  0.0141    1.0399   
     8. A(H   5,C   0,H   6)          109.60  0.002711   -0.79    108.81   
     9. A(H   4,C   0,H   6)          107.61 -0.001257    0.71    108.32   
    10. A(C   1,C   0,H   4)          109.00 -0.004039    0.85    109.85   
    11. A(C   1,C   0,H   5)          109.56 -0.003207    0.36    109.92   
    12. A(H   4,C   0,H   5)          109.17  0.004495   -0.98    108.19   
    13. A(C   1,C   0,H   6)          111.84  0.001428   -0.16    111.67   
    14. A(N   2,C   1,O   3)          125.84 -0.014633    1.75    127.59   
    15. A(C   0,C   1,O   3)          122.20  0.021310   -2.68    119.51   
    16. A(C   0,C   1,N   2)          111.93 -0.006687    0.96    112.89   
    17. A(C   1,N   2,H   7)          106.23  0.004347   -0.67    105.56   
    18. D(N   2,C   1,C   0,H   4)    150.99 -0.000812   -0.69    150.30   
    19. D(O   3,C   1,C   0,H   4)    -31.17 -0.001502    0.24    -30.94   
    20. D(N   2,C   1,C   0,H   5)    -89.60  0.000317   -1.16    -90.77   
    21. D(O   3,C   1,C   0,H   5)     88.23 -0.000373   -0.23     88.00   
    22. D(O   3,C   1,C   0,H   6)   -150.04  0.001795   -1.09   -151.13   
    23. D(N   2,C   1,C   0,H   6)     32.13  0.002485   -2.02     30.11   
    24. D(H   7,N   2,C   1,C   0)    179.21  0.001312   -1.03    178.18   
    25. D(H   7,N   2,C   1,O   3)      1.47  0.001085   -1.88     -0.41   
    ----------------------------------------------------------------------------

         *************************************************************
         *                GEOMETRY OPTIMIZATION CYCLE   2            *
         *************************************************************
---------------------------------
CARTESIAN COORDINATES (ANGSTROEM)
---------------------------------
  C     -3.815190   -0.655391   -0.681147
  C     -2.526263    0.174898   -0.797611
  N     -1.418755   -0.544907   -0.561618
  O     -2.598918    1.393849   -1.112494
  H     -4.653503   -0.005991   -0.352020
  H     -4.078106   -1.086094   -1.669396
  H     -3.706023   -1.478760    0.049130
  H     -0.624490    0.111869   -0.699742

----------------------------
CARTESIAN COORDINATES (A.U.)
----------------------------
  NO LB      ZA    FRAG     MASS         X           Y           Z
   0 C     6.0000    0    12.011   -7.209665   -1.238509   -1.287181
   1 C     6.0000    0    12.011   -4.773945    0.330509   -1.507266
   2 N     7.0000    0    14.007   -2.681059   -1.029725   -1.061305
   3 O     8.0000    0    15.999   -4.911244    2.633993   -2.102308
   4 H     1.0000    0     1.008   -8.793847   -0.011320   -0.665221
   5 H     1.0000    0     1.008   -7.706504   -2.052421   -3.154702
   6 H     1.0000    0     1.008   -7.003369   -2.794451    0.092842
   7 H     1.0000    0     1.008   -1.180116    0.211403   -1.322321

--------------------------------
INTERNAL COORDINATES (ANGSTROEM)
--------------------------------
 C      0   0   0     0.000000000000     0.00000000     0.00000000
 C      1   0   0     1.537620611780     0.00000000     0.00000000
 N      2   1   0     1.341783946648   112.88626118     0.00000000
 O      2   1   3     1.261059950103   119.50954226   178.74899481
 H      1   2   3     1.110321411856   109.84835099   150.30770467
 H      1   2   3     1.109624729818   109.92295831   269.24152878
 H      1   2   3     1.105964720103   111.67105775    30.11467061
 H      3   2   1     1.039850850810   105.56144221   178.20280120

---------------------------
INTERNAL COORDINATES (A.U.)
---------------------------
 C      0   0   0     0.000000000000     0.00000000     0.00000000
 C      1   0   0     2.905681854136     0.00000000     0.00000000
 N      2   1   0     2.535604190057   112.88626118     0.00000000
 O      2   1   3     2.383057944151   119.50954226   178.74899481
 H      1   2   3     2.098203389037   109.84835099   150.30770467
 H      1   2   3     2.096886850782   109.92295831   269.24152878
 H      1   2   3     2.089970434774   111.67105775    30.11467061
 H      3   2   1     1.965033328155   105.56144221   178.20280120

------------------------------------------------------------------------------
                   ___                                                        
                  /   \      - P O W E R E D   B Y -                         
                 /     \                                                     
                 |  |  |   _    _      __       _____    __    __             
                 |  |  |  | |  | |    /  \     |  _  \  |  |  /  |          
                  \  \/   | |  | |   /    \    | | | |  |  | /  /          
                 / \  \   | |__| |  /  /\  \   | |_| |  |  |/  /          
                |  |  |   |  __  | /  /__\  \  |    /   |      \           
                |  |  |   | |  | | |   __   |  |    \   |  |\   \          
                \     /   | |  | | |  |  |  |  | |\  \  |  | \   \       
                 \___/    |_|  |_| |__|  |__|  |_| \__\ |__|  \__/        
                                                                              
                      - O R C A' S   B I G   F R I E N D -                    
                                      &                                       
                       - I N T E G R A L  F E E D E R -                       
                                                                              
 v1 FN, 2020, v2 2021                                                         
------------------------------------------------------------------------------


Reading SHARK input file inp.SHARKINP.tmp ... ok
----------------------
SHARK INTEGRAL PACKAGE
----------------------

Number of atoms                             ...      8
Number of basis functions                   ...     76
Number of shells                            ...     36
Maximum angular momentum                    ...      2
Integral batch strategy                     ... SHARK/LIBINT Hybrid
RI-J (if used) integral strategy            ... SPLIT-RIJ (Revised 2003 algorithm where possible)
Printlevel                                  ...      1
Contraction scheme used                     ... SEGMENTED contraction
Coulomb Range Separation                    ... NOT USED
Exchange Range Separation                   ... NOT USED
Finite Nucleus Model                        ... NOT USED
Auxiliary Coulomb fitting basis             ... AVAILABLE
   # of basis functions in Aux-J            ...    240
   # of shells in Aux-J                     ...     80
   Maximum angular momentum in Aux-J        ...      4
Auxiliary J/K fitting basis                 ... NOT available
Auxiliary Correlation fitting basis         ... NOT available
Auxiliary 'external' fitting basis          ... NOT available
Integral threshold                          ...     2.500000e-11
Primitive cut-off                           ...     2.500000e-12
Primitive pair pre-selection threshold      ...     2.500000e-12

Calculating pre-screening integrals         ... done (  0.0 sec) Dimension = 36
Organizing shell pair data                  ... done (  0.1 sec)
Shell pair information
Total number of shell pairs                 ...       666
Shell pairs after pre-screening             ...       663
Total number of primitive shell pairs       ...      2410
Primitive shell pairs kept                  ...      1979
          la=0 lb=0:    207 shell pairs
          la=1 lb=0:    240 shell pairs
          la=1 lb=1:     78 shell pairs
          la=2 lb=0:     80 shell pairs
          la=2 lb=1:     48 shell pairs
          la=2 lb=2:     10 shell pairs

Calculating one electron integrals          ... done (  0.0 sec)
Calculating RI/J V-Matrix + Cholesky decomp.... done (  0.2 sec)
Calculating Nuclear repulsion               ... done (  0.0 sec) ENN=    111.942209947022 Eh

SHARK setup successfully completed in   0.8 seconds

Maximum memory used throughout the entire GTOINT-calculation: 9.4 MB

Diagonalization of the overlap matrix:
Smallest eigenvalue                        ... 4.235e-03
Time for diagonalization                   ...    0.002 sec
Threshold for overlap eigenvalues          ... 1.000e-08
Number of eigenvalues below threshold      ... 0
Time for construction of square roots      ...    0.082 sec
Total time needed                          ...    0.084 sec

-------------------
DFT GRID GENERATION
-------------------

General Integration Accuracy     IntAcc      ... 4.388
Radial Grid Type                 RadialGrid  ... OptM3 with GC (2021)
Angular Grid (max. ang.)         AngularGrid ... 4 (Lebedev-302)
Angular grid pruning method      GridPruning ... 4 (adaptive)
Weight generation scheme         WeightScheme... Becke
Basis function cutoff            BFCut       ... 1.0000e-11
Integration weight cutoff        WCut        ... 1.0000e-14
Angular grids for H and He will be reduced by one unit
Partially contracted basis set               ... off
Rotationally invariant grid construction     ... off

Total number of grid points                  ...    37418
Total number of batches                      ...      590
Average number of points per batch           ...       63
Average number of grid points per atom       ...     4677
Time for grid setup =    0.396 sec


--------------------
CPCM SOLVATION MODEL
--------------------
CPCM parameters:
  Epsilon                                         ...      80.4000
  Refrac                                          ...       1.3300
  Rsolv                                           ...       1.3000
  Surface type                                    ... GAUSSIAN VDW
  Epsilon function type                           ...         CPCM
Radii:
 Radius for C  used is    3.8550 Bohr (=   2.0400 Ang.)
 Radius for N  used is    3.5149 Bohr (=   1.8600 Ang.)
 Radius for O  used is    3.4469 Bohr (=   1.8240 Ang.)
 Radius for H  used is    2.4944 Bohr (=   1.3200 Ang.)
Calculating surface                               ...        done! (  0.0s)
GEPOL surface points                              ...          529
GEPOL Volume                                      ...     539.4281
GEPOL Surface-area                                ...     354.8855
Calculating surface distance matrix               ...        done! (  0.0s)
Performing Cholesky decomposition & store         ...        done! (  0.1s)
Overall time for CPCM initialization              ...                 0.1s
--------------
SCF ITERATIONS
--------------
ITER       Energy         Delta-E        Max-DP      RMS-DP      [F,P]     Damp
               ***  Starting incremental Fock matrix formation  ***
  0   -208.3096326255   0.000000000000 0.00573882  0.00037997  0.0152307 0.7000
                      *** Initiating the SOSCF procedure ***
                      *** Re-Reading the Fockian *** 
                      *** Removing any level shift *** 
ITER      Energy       Delta-E        Grad      Rot      Max-DP    RMS-DP
  1   -208.31018735  -0.0005547294  0.001248  0.001248  0.016350  0.001174
               *** Restarting incremental Fock matrix formation ***
  2   -208.31139718  -0.0012098220  0.001680  0.008465  0.008933  0.000525
  3   -208.31126707   0.0001301103  0.004785  0.007584  0.006465  0.000332
  4   -208.31144333  -0.0001762585  0.001094  0.002294  0.004548  0.000239
  5   -208.31141668   0.0000266485  0.001215  0.001119  0.003195  0.000149
  6   -208.31145889  -0.0000422166  0.000228  0.000615  0.001166  0.000058
  7   -208.31145735   0.0000015385  0.000419  0.000409  0.000822  0.000040
  8   -208.31145957  -0.0000022137  0.000015  0.000023  0.000062  0.000004
  9   -208.31145957   0.0000000005  0.000017  0.000016  0.000044  0.000002
                 **** Energy Check signals convergence ****
              ***Rediagonalizing the Fockian in SOSCF/NRSCF***

               *****************************************************
               *                     SUCCESS                       *
               *           SCF CONVERGED AFTER  10 CYCLES          *
               *****************************************************

Total Energy       :         -208.31145957 Eh           -5668.44299 eV
  Last Energy change         ...   -6.8300e-09  Tolerance :   1.0000e-08
  Last MAX-Density change    ...    1.3152e-05  Tolerance :   1.0000e-07
             **** THE GBW FILE WAS UPDATED (inp.gbw) ****
             **** DENSITY inp.scfp WAS UPDATED ****
             **** ENERGY FILE WAS UPDATED (inp.en.tmp) ****
             **** THE GBW FILE WAS UPDATED (inp.gbw) ****
             **** DENSITY inp.scfp WAS UPDATED ****
Total SCF time: 0 days 0 hours 0 min 12 sec 

Maximum memory used throughout the entire SCF-calculation: 19.6 MB


-------------------------------------------------------------------------------
                          DFT DISPERSION CORRECTION                            
                                                                               
                              DFTD3 V3.1  Rev 1                                
                          USING Becke-Johnson damping                          
-------------------------------------------------------------------------------
-------------------------   ----------------
Dispersion correction           -0.004541865
-------------------------   ----------------


-------------------------   --------------------
FINAL SINGLE POINT ENERGY      -208.316001440185
-------------------------   --------------------

------------------------------------------------------------------------------
                         ORCA SCF GRADIENT CALCULATION
------------------------------------------------------------------------------

Gradient of the Kohn-Sham DFT energy:
Kohn-Sham wavefunction type      ... RKS
Hartree-Fock exchange scaling    ...    0.000
Number of operators              ...    1
Number of atoms                  ...    8
Basis set dimensions             ...   76
Integral neglect threshold       ... 2.5e-11
Integral primitive cutoff        ... 2.5e-12
SHARK Integral package           ... ON

Nuc. rep. gradient       (SHARK) ... done (  0.0 sec)
HCore & Overlap gradient (SHARK) ... done (  0.0 sec)
RI-J gradient            (SHARK) ... done (  0.2 sec)
Exchange-correlation gradient    ... done
Dispersion correction            ... done

------------------
CARTESIAN GRADIENT
------------------

   1   C   :    0.005154812   -0.004723329   -0.002236278
   2   C   :   -0.018730436    0.016309879   -0.006222129
   3   N   :    0.004285668    0.000844867   -0.000413331
   4   O   :    0.007015221   -0.014046155    0.004819173
   5   H   :    0.000769214    0.000220815    0.001880744
   6   H   :    0.001854648    0.000823126    0.000304397
   7   H   :   -0.000958811    0.002390908    0.001175215
   8   H   :    0.000609684   -0.001820112    0.000692209

Difference to translation invariance:
           :   -0.0000000000    0.0000000000    0.0000000000

Difference to rotation invariance:
           :    0.0000344008   -0.0002925408   -0.0004547450

Norm of the cartesian gradient     ...    0.0319216394
RMS gradient                       ...    0.0065159774
MAX gradient                       ...    0.0187304355

-------
TIMINGS
-------

Total SCF gradient time            ...        1.591 sec

One electron gradient       ....       0.024 sec  (  1.5%)
RI-J Coulomb gradient       ....       0.189 sec  ( 11.9%)
XC gradient                 ....       1.058 sec  ( 66.5%)
CPCM gradient               ....       0.102 sec  (  6.4%)
   A-Matrix (El+Nuc)        ....       0.018 sec  (  1.1%)
   Potential                ....       0.084 sec  (  5.3%)

Maximum memory used throughout the entire SCFGRAD-calculation: 30.2 MB
------------------------------------------------------------------------------
                         ORCA GEOMETRY RELAXATION STEP
------------------------------------------------------------------------------

Reading the OPT-File                    .... done
Getting information on internals        .... done
Copying old internal coords+grads       .... done
Making the new internal coordinates     .... (new redundants).... done
Validating the new internal coordinates .... (new redundants).... done
Calculating the B-matrix                .... done
Calculating the G,G- and P matrices     .... done
Transforming gradient to internals      .... done
Projecting the internal gradient        .... done
Number of atoms                         ....   8
Number of internal coordinates          ....  25
Current Energy                          ....  -208.316001440 Eh
Current gradient norm                   ....     0.031921639 Eh/bohr
Maximum allowed component of the step   ....  0.300
Current trust radius                    ....  0.300
Updating the Hessian (BFGS)             .... done
Forming the augmented Hessian           .... done
Diagonalizing the augmented Hessian     .... done
Last element of RFO vector              ....  0.995041829
Lowest eigenvalues of augmented Hessian:
 -0.001129459  0.012306414  0.019204208  0.037588570  0.131386290
Length of the computed step             ....  0.099952903
The final length of the internal step   ....  0.099952903
Converting the step to cartesian space:
 Initial RMS(Int)=    0.0199905806
Transforming coordinates:
 Iter   0:  RMS(Cart)=    0.0191314365 RMS(Int)=    0.0198387165
 Iter   1:  RMS(Cart)=    0.0003732366 RMS(Int)=    0.0003798746
 Iter   2:  RMS(Cart)=    0.0000081056 RMS(Int)=    0.0000085042
 Iter   3:  RMS(Cart)=    0.0000002761 RMS(Int)=    0.0000002487
 Iter   4:  RMS(Cart)=    0.0000000084 RMS(Int)=    0.0000000090
done
Storing new coordinates                 .... done

                                .--------------------.
          ----------------------|Geometry convergence|-------------------------
          Item                value                   Tolerance       Converged
          ---------------------------------------------------------------------
          Energy change      -0.0058543471            0.0000050000      NO
          RMS gradient        0.0042068080            0.0001000000      NO
          MAX gradient        0.0151786466            0.0003000000      NO
          RMS step            0.0199905806            0.0020000000      NO
          MAX step            0.0525418635            0.0040000000      NO
          ........................................................
          Max(Bonds)      0.0118      Max(Angles)    1.70
          Max(Dihed)        3.01      Max(Improp)    0.00
          ---------------------------------------------------------------------

The optimization has not yet converged - more geometry cycles are needed


    ---------------------------------------------------------------------------
                         Redundant Internal Coordinates
                            (Angstroem and degrees)

        Definition                    Value    dE/dq     Step     New-Value
    ----------------------------------------------------------------------------
     1. B(C   1,C   0)                1.5376 -0.004927  0.0096    1.5472   
     2. B(N   2,C   1)                1.3418  0.004582 -0.0036    1.3382   
     3. B(O   3,C   1)                1.2611 -0.015179  0.0118    1.2729   
     4. B(H   4,C   0)                1.1103  0.000098  0.0005    1.1108   
     5. B(H   5,C   0)                1.1096 -0.001034  0.0027    1.1123   
     6. B(H   6,C   0)                1.1060 -0.001085  0.0026    1.1085   
     7. B(H   7,N   2)                1.0399 -0.000758  0.0019    1.0418   
     8. A(H   5,C   0,H   6)          108.81  0.001683   -0.66    108.16   
     9. A(H   4,C   0,H   6)          108.31 -0.001173    0.71    109.02   
    10. A(C   1,C   0,H   4)          109.85 -0.001034    0.38    110.23   
    11. A(C   1,C   0,H   5)          109.92 -0.001677    0.23    110.16   
    12. A(H   4,C   0,H   5)          108.19  0.002049   -0.70    107.49   
    13. A(C   1,C   0,H   6)          111.67  0.000251    0.01    111.68   
    14. A(N   2,C   1,O   3)          127.59 -0.005359    0.89    128.48   
    15. A(C   0,C   1,O   3)          119.51  0.009398   -1.70    117.81   
    16. A(C   0,C   1,N   2)          112.89 -0.004031    0.76    113.64   
    17. A(C   1,N   2,H   7)          105.56  0.003636   -0.76    104.80   
    18. D(N   2,C   1,C   0,H   4)    150.31 -0.000762   -0.51    149.80   
    19. D(O   3,C   1,C   0,H   4)    -30.94 -0.000461   -1.87    -32.82   
    20. D(N   2,C   1,C   0,H   5)    -90.76  0.000090   -0.98    -91.74   
    21. D(O   3,C   1,C   0,H   5)     87.99  0.000391   -2.35     85.64   
    22. D(O   3,C   1,C   0,H   6)   -151.14  0.001542   -3.01   -154.15   
    23. D(N   2,C   1,C   0,H   6)     30.11  0.001241   -1.65     28.47   
    24. D(H   7,N   2,C   1,C   0)    178.20  0.000439   -1.01    177.19   
    25. D(H   7,N   2,C   1,O   3)     -0.42 -0.000119    0.46      0.04   
    ----------------------------------------------------------------------------

         *************************************************************
         *                GEOMETRY OPTIMIZATION CYCLE   3            *
         *************************************************************
---------------------------------
CARTESIAN COORDINATES (ANGSTROEM)
---------------------------------
  C     -3.817626   -0.653855   -0.676480
  C     -2.512005    0.169029   -0.786515
  N     -1.406004   -0.544332   -0.544461
  O     -2.606832    1.389518   -1.135224
  H     -4.655014   -0.003128   -0.345846
  H     -4.091713   -1.072500   -1.669871
  H     -3.711846   -1.496321    0.036191
  H     -0.620210    0.121062   -0.702693

----------------------------
CARTESIAN COORDINATES (A.U.)
----------------------------
  NO LB      ZA    FRAG     MASS         X           Y           Z
   0 C     6.0000    0    12.011   -7.214268   -1.235607   -1.278361
   1 C     6.0000    0    12.011   -4.747002    0.319418   -1.486298
   2 N     7.0000    0    14.007   -2.656963   -1.028638   -1.028882
   3 O     8.0000    0    15.999   -4.926199    2.625808   -2.145262
   4 H     1.0000    0     1.008   -8.796701   -0.005911   -0.653555
   5 H     1.0000    0     1.008   -7.732217   -2.026731   -3.155599
   6 H     1.0000    0     1.008   -7.014372   -2.827636    0.068391
   7 H     1.0000    0     1.008   -1.172026    0.228775   -1.327897

--------------------------------
INTERNAL COORDINATES (ANGSTROEM)
--------------------------------
 C      0   0   0     0.000000000000     0.00000000     0.00000000
 C      1   0   0     1.547220596682     0.00000000     0.00000000
 N      2   1   0     1.338174443731   113.64434564     0.00000000
 O      2   1   3     1.272864770081   117.81248454   177.41098490
 H      1   2   3     1.110847555071   110.22650491   149.78946487
 H      1   2   3     1.112300878140   110.15714923   268.24315010
 H      1   2   3     1.108529241764   111.67821589    28.45234842
 H      3   2   1     1.041757768997   104.80077621   177.15080777

---------------------------
INTERNAL COORDINATES (A.U.)
---------------------------
 C      0   0   0     0.000000000000     0.00000000     0.00000000
 C      1   0   0     2.923823196490     0.00000000     0.00000000
 N      2   1   0     2.528783218065   113.64434564     0.00000000
 O      2   1   3     2.405365820969   117.81248454   177.41098490
 H      1   2   3     2.099197655620   110.22650491   149.78946487
 H      1   2   3     2.101944038205   110.15714923   268.24315010
 H      1   2   3     2.094816678377   111.67821589    28.45234842
 H      3   2   1     1.968636881288   104.80077621   177.15080777

------------------------------------------------------------------------------
                   ___                                                        
                  /   \      - P O W E R E D   B Y -                         
                 /     \                                                     
                 |  |  |   _    _      __       _____    __    __             
                 |  |  |  | |  | |    /  \     |  _  \  |  |  /  |          
                  \  \/   | |  | |   /    \    | | | |  |  | /  /          
                 / \  \   | |__| |  /  /\  \   | |_| |  |  |/  /          
                |  |  |   |  __  | /  /__\  \  |    /   |      \           
                |  |  |   | |  | | |   __   |  |    \   |  |\   \          
                \     /   | |  | | |  |  |  |  | |\  \  |  | \   \       
                 \___/    |_|  |_| |__|  |__|  |_| \__\ |__|  \__/        
                                                                              
                      - O R C A' S   B I G   F R I E N D -                    
                                      &                                       
                       - I N T E G R A L  F E E D E R -                       
                                                                              
 v1 FN, 2020, v2 2021                                                         
------------------------------------------------------------------------------


Reading SHARK input file inp.SHARKINP.tmp ... ok
----------------------
SHARK INTEGRAL PACKAGE
----------------------

Number of atoms                             ...      8
Number of basis functions                   ...     76
Number of shells                            ...     36
Maximum angular momentum                    ...      2
Integral batch strategy                     ... SHARK/LIBINT Hybrid
RI-J (if used) integral strategy            ... SPLIT-RIJ (Revised 2003 algorithm where possible)
Printlevel                                  ...      1
Contraction scheme used                     ... SEGMENTED contraction
Coulomb Range Separation                    ... NOT USED
Exchange Range Separation                   ... NOT USED
Finite Nucleus Model                        ... NOT USED
Auxiliary Coulomb fitting basis             ... AVAILABLE
   # of basis functions in Aux-J            ...    240
   # of shells in Aux-J                     ...     80
   Maximum angular momentum in Aux-J        ...      4
Auxiliary J/K fitting basis                 ... NOT available
Auxiliary Correlation fitting basis         ... NOT available
Auxiliary 'external' fitting basis          ... NOT available
Integral threshold                          ...     2.500000e-11
Primitive cut-off                           ...     2.500000e-12
Primitive pair pre-selection threshold      ...     2.500000e-12

Calculating pre-screening integrals         ... done (  0.0 sec) Dimension = 36
Organizing shell pair data                  ... done (  0.0 sec)
Shell pair information
Total number of shell pairs                 ...       666
Shell pairs after pre-screening             ...       662
Total number of primitive shell pairs       ...      2410
Primitive shell pairs kept                  ...      1974
          la=0 lb=0:    207 shell pairs
          la=1 lb=0:    239 shell pairs
          la=1 lb=1:     78 shell pairs
          la=2 lb=0:     80 shell pairs
          la=2 lb=1:     48 shell pairs
          la=2 lb=2:     10 shell pairs

Calculating one electron integrals          ... done (  0.0 sec)
Calculating RI/J V-Matrix + Cholesky decomp.... done (  0.1 sec)
Calculating Nuclear repulsion               ... done (  0.1 sec) ENN=    111.518378379358 Eh

SHARK setup successfully completed in   0.4 seconds

Maximum memory used throughout the entire GTOINT-calculation: 9.4 MB

Diagonalization of the overlap matrix:
Smallest eigenvalue                        ... 4.400e-03
Time for diagonalization                   ...    0.001 sec
Threshold for overlap eigenvalues          ... 1.000e-08
Number of eigenvalues below threshold      ... 0
Time for construction of square roots      ...    0.115 sec
Total time needed                          ...    0.116 sec

-------------------
DFT GRID GENERATION
-------------------

[...]
Radial Grid Type                 RadialGrid  ... OptM3 with GC (2021)
Angular Grid (max. ang.)         AngularGrid ... 4 (Lebedev-302)
Angular grid pruning method      GridPruning ... 4 (adaptive)
Weight generation scheme         WeightScheme... Becke
Basis function cutoff            BFCut       ... 1.0000e-11
Integration weight cutoff        WCut        ... 1.0000e-14
Angular grids for H and He will be reduced by one unit
Partially contracted basis set               ... off
Rotationally invariant grid construction     ... off

Total number of grid points                  ...    37424
Total number of batches                      ...      589
Average number of points per batch           ...       63
Average number of grid points per atom       ...     4678
Time for grid setup =    0.278 sec


--------------------
CPCM SOLVATION MODEL
--------------------
CPCM parameters:
  Epsilon                                         ...      80.4000
  Refrac                                          ...       1.3300
  Rsolv                                           ...       1.3000
  Surface type                                    ... GAUSSIAN VDW
  Epsilon function type                           ...         CPCM
Radii:
 Radius for C  used is    3.8550 Bohr (=   2.0400 Ang.)
 Radius for N  used is    3.5149 Bohr (=   1.8600 Ang.)
 Radius for O  used is    3.4469 Bohr (=   1.8240 Ang.)
 Radius for H  used is    2.4944 Bohr (=   1.3200 Ang.)
Calculating surface                               ...        done! (  0.0s)
GEPOL surface points                              ...          525
GEPOL Volume                                      ...     539.1720
GEPOL Surface-area                                ...     356.4716
Calculating surface distance matrix               ...        done! (  0.0s)
Performing Cholesky decomposition & store         ...        done! (  0.1s)
Overall time for CPCM initialization              ...                 0.1s
--------------
SCF ITERATIONS
--------------
ITER       Energy         Delta-E        Max-DP      RMS-DP      [F,P]     Damp
               ***  Starting incremental Fock matrix formation  ***
                      *** Initiating the SOSCF procedure ***
                      *** Re-Reading the Fockian *** 
                      *** Removing any level shift *** 
ITER      Energy       Delta-E        Grad      Rot      Max-DP    RMS-DP
  0   -208.31294176 -208.3129417571  0.000032  0.000032  0.000132  0.000008
               *** Restarting incremental Fock matrix formation ***
  1   -208.31294181  -0.0000000556  0.000009  0.000016  0.000056  0.000004
  2   -208.31294181  -0.0000000012  0.000012  0.000025  0.000032  0.000002
  3   -208.31294182  -0.0000000017  0.000010  0.000024  0.000031  0.000002
  4   -208.31294182  -0.0000000012  0.000007  0.000012  0.000017  0.000001
  5   -208.31294182  -0.0000000003  0.000005  0.000007  0.000015  0.000001
  6   -208.31294182  -0.0000000004  0.000003  0.000002  0.000008  0.000000
                  ***Gradient check signals convergence***
              ***Rediagonalizing the Fockian in SOSCF/NRSCF***

               *****************************************************
               *                     SUCCESS                       *
               *           SCF CONVERGED AFTER   7 CYCLES          *
               *****************************************************


----------------
TOTAL SCF ENERGY
----------------

Total Energy       :         -208.31294182 Eh           -5668.48333 eV

Components:
Nuclear Repulsion  :          111.63282513 Eh            3037.68360 eV
Electronic Energy  :         -319.94576695 Eh           -8706.16693 eV
One Electron Energy:         -512.33405929 Eh          -13941.31852 eV
Two Electron Energy:          192.38829234 Eh            5235.15158 eV
CPCM Dielectric    :           -0.10797161 Eh              -2.93806 eV

Virial components:
Potential Energy   :         -414.70635450 Eh          -11284.73361 eV
Kinetic Energy     :          206.39341268 Eh            5616.25028 eV
Virial Ratio       :            2.00930034


DFT components:
N(Alpha)           :       15.999998650759 electrons
N(Beta)            :       15.999998650759 electrons
N(Total)           :       31.999997301518 electrons
E(X)               :      -26.745530976342 Eh       
E(C)               :       -1.062733724439 Eh       
E(XC)              :      -27.808264700780 Eh       
DFET-embed. en.    :        0.000000000000 Eh       
CPCM Solvation Model Properties:
Surface-charge          :            0.98133249
Charge-correction       :           -0.00334027 Eh              -0.09089 eV
Free-energy (cav+disp)  :  This term is not implemented in the current solvation scheme

---------------
SCF CONVERGENCE
---------------

  Last Energy change         ...   -1.4231e-10  Tolerance :   1.0000e-08
  Last MAX-Density change    ...    2.7017e-06  Tolerance :   1.0000e-07
  Last RMS-Density change    ...    1.9473e-07  Tolerance :   5.0000e-09
  Last Orbital Gradient      ...    1.0133e-06  Tolerance :   1.0000e-05
  Last Orbital Rotation      ...    1.2905e-06  Tolerance :   1.0000e-05

             **** THE GBW FILE WAS UPDATED (inp.gbw) ****
             **** DENSITY inp.scfp WAS UPDATED ****
             **** ENERGY FILE WAS UPDATED (inp.en.tmp) ****
             **** THE GBW FILE WAS UPDATED (inp.gbw) ****
             **** DENSITY inp.scfp WAS UPDATED ****
----------------
ORBITAL ENERGIES
----------------

  NO   OCC          E(Eh)            E(eV) 
   0   2.0000     -18.649638      -507.4825 
   1   2.0000     -13.894129      -378.0785 
   2   2.0000      -9.909851      -269.6607 
   3   2.0000      -9.863817      -268.4081 
   4   2.0000      -0.838264       -22.8103 
   5   2.0000      -0.696099       -18.9418 
   6   2.0000      -0.601423       -16.3656 
   7   2.0000      -0.420052       -11.4302 
   8   2.0000      -0.349875        -9.5206 
   9   2.0000      -0.343694        -9.3524 
  10   2.0000      -0.305945        -8.3252 
  11   2.0000      -0.295577        -8.0430 
  12   2.0000      -0.255017        -6.9394 
  13   2.0000      -0.187630        -5.1057 
  14   2.0000      -0.140140        -3.8134 
  15   2.0000      -0.133482        -3.6322 
  16   0.0000       0.061613         1.6766 
  17   0.0000       0.071654         1.9498 
  18   0.0000       0.112801         3.0695 
  19   0.0000       0.127423         3.4674 
  20   0.0000       0.143505         3.9050 
  21   0.0000       0.226349         6.1593 
  22   0.0000       0.267771         7.2864 
  23   0.0000       0.380848        10.3634 
  24   0.0000       0.445056        12.1106 
  25   0.0000       0.464320        12.6348 
  26   0.0000       0.525162        14.2904 
  27   0.0000       0.544118        14.8062 
  28   0.0000       0.546669        14.8756 
  29   0.0000       0.590924        16.0799 
  30   0.0000       0.622086        16.9278 
  31   0.0000       0.639991        17.4151 
  32   0.0000       0.641794        17.4641 
  33   0.0000       0.646208        17.5842 
  34   0.0000       0.676858        18.4183 
  35   0.0000       0.773567        21.0498 
  36   0.0000       0.792986        21.5783 
  37   0.0000       0.807150        21.9637 
  38   0.0000       0.886124        24.1127 
  39   0.0000       0.997232        27.1361 
  40   0.0000       1.031458        28.0674 
  41   0.0000       1.062187        28.9036 
  42   0.0000       1.177707        32.0470 
  43   0.0000       1.200513        32.6676 
  44   0.0000       1.279430        34.8151 
  45   0.0000       1.368114        37.2283 
  46   0.0000       1.481497        40.3136 
  47   0.0000       1.539268        41.8856 
  48   0.0000       1.549886        42.1745 
  49   0.0000       1.590628        43.2832 
  50   0.0000       1.663069        45.2544 
  51   0.0000       1.678223        45.6668 
  52   0.0000       1.747590        47.5543 
  53   0.0000       1.769743        48.1571 
  54   0.0000       1.818247        49.4770 
  55   0.0000       1.979065        53.8531 
  56   0.0000       2.001317        54.4586 
  57   0.0000       2.007833        54.6359 
  58   0.0000       2.087426        56.8017 
  59   0.0000       2.168613        59.0110 
  60   0.0000       2.320258        63.1374 
  61   0.0000       2.363220        64.3065 
  62   0.0000       2.404084        65.4185 
  63   0.0000       2.509782        68.2946 
  64   0.0000       2.537916        69.0602 
  65   0.0000       2.633965        71.6738 
  66   0.0000       2.678875        72.8959 
  67   0.0000       2.737128        74.4810 
  68   0.0000       2.780558        75.6628 
  69   0.0000       2.839632        77.2703 
  70   0.0000       2.868309        78.0507 
  71   0.0000       2.972396        80.8830 
  72   0.0000       3.095041        84.2203 
  73   0.0000       3.201893        87.1279 
  74   0.0000       3.402252        92.5800 
  75   0.0000       3.554643        96.7267 

                    ********************************
                    * MULLIKEN POPULATION ANALYSIS *
                    ********************************

-----------------------
MULLIKEN ATOMIC CHARGES
-----------------------
   0 C :   -0.019944
   1 C :   -0.168909
   2 N :   -0.376981
   3 O :   -0.460981
   4 H :    0.011446
   5 H :    0.013387
   6 H :   -0.016172
   7 H :    0.018154
Sum of atomic charges:   -1.0000000

--------------------------------
MULLIKEN REDUCED ORBITAL CHARGES
--------------------------------
  0 C s       :     3.010971  s :     3.010971
      pz      :     0.993473  p :     2.986825
      px      :     1.020910
      py      :     0.972442
      dz2     :     0.003303  d :     0.022149
      dxz     :     0.005253
      dyz     :     0.004433
      dx2y2   :     0.004095
      dxy     :     0.005065
  1 C s       :     3.120634  s :     3.120634
      pz      :     0.957145  p :     2.942094
      px      :     1.027011
      py      :     0.957938
      dz2     :     0.015539  d :     0.106181
      dxz     :     0.015125
      dyz     :     0.017329
      dx2y2   :     0.024573
      dxy     :     0.033615
  2 N s       :     3.523287  s :     3.523287
      pz      :     1.435066  p :     3.835201
      px      :     0.990140
      py      :     1.409996
      dz2     :     0.002857  d :     0.018493
      dxz     :     0.003174
      dyz     :     0.002593
      dx2y2   :     0.002076
      dxy     :     0.007793
  3 O s       :     3.746835  s :     3.746835
      pz      :     1.527789  p :     4.701516
      px      :     1.777330
      py      :     1.396396
      dz2     :     0.002045  d :     0.012630
      dxz     :     0.000611
      dyz     :     0.004218
      dx2y2   :     0.003493
      dxy     :     0.002263
  4 H s       :     0.965472  s :     0.965472
      pz      :     0.007487  p :     0.023082
      px      :     0.008135
      py      :     0.007459
  5 H s       :     0.963454  s :     0.963454
      pz      :     0.011366  p :     0.023160
      px      :     0.006218
      py      :     0.005576
  6 H s       :     0.993988  s :     0.993988
      pz      :     0.006914  p :     0.022184
      px      :     0.004637
      py      :     0.010633
  7 H s       :     0.940365  s :     0.940365
      pz      :     0.011011  p :     0.041481
      px      :     0.015829
      py      :     0.014641


                     *******************************
                     * LOEWDIN POPULATION ANALYSIS *
                     *******************************

----------------------
LOEWDIN ATOMIC CHARGES
----------------------
   0 C :   -0.123167
   1 C :   -0.084229
   2 N :   -0.405964
   3 O :   -0.437383
   4 H :    0.022524
   5 H :    0.023438
   6 H :    0.009295
   7 H :   -0.004513

-------------------------------
LOEWDIN REDUCED ORBITAL CHARGES
-------------------------------
  0 C s       :     2.878392  s :     2.878392
      pz      :     1.062192  p :     3.181761
      px      :     1.064610
      py      :     1.054959
      dz2     :     0.009990  d :     0.063014
      dxz     :     0.013739
      dyz     :     0.012792
      dx2y2   :     0.011064
      dxy     :     0.015429
  1 C s       :     2.866756  s :     2.866756
      pz      :     0.941988  p :     2.965960
      px      :     1.024576
      py      :     0.999395
      dz2     :     0.032775  d :     0.251514
      dxz     :     0.034894
      dyz     :     0.040550
      dx2y2   :     0.057353
      dxy     :     0.085942
  2 N s       :     3.315183  s :     3.315183
      pz      :     1.438892  p :     4.049927
      px      :     1.124105
      py      :     1.486931
      dz2     :     0.005537  d :     0.040854
      dxz     :     0.007699
      dyz     :     0.003839
      dx2y2   :     0.005193
      dxy     :     0.018586
  3 O s       :     3.583235  s :     3.583235
      pz      :     1.554046  p :     4.830578
      px      :     1.792686
      py      :     1.483845
      dz2     :     0.003072  d :     0.023571
      dxz     :     0.001064
      dyz     :     0.008321
      dx2y2   :     0.007121
      dxy     :     0.003993
  4 H s       :     0.912555  s :     0.912555
      pz      :     0.018510  p :     0.064921
      px      :     0.025969
      py      :     0.020442
  5 H s       :     0.911617  s :     0.911617
      pz      :     0.033175  p :     0.064945
      px      :     0.018831
      py      :     0.012939
  6 H s       :     0.924758  s :     0.924758
      pz      :     0.018759  p :     0.065947
      px      :     0.013456
      py      :     0.033732
  7 H s       :     0.882134  s :     0.882134
      pz      :     0.032293  p :     0.122379
      px      :     0.042952
      py      :     0.047134


                      *****************************
                      * MAYER POPULATION ANALYSIS *
                      *****************************

  NA   - Mulliken gross atomic population
  ZA   - Total nuclear charge
  QA   - Mulliken gross atomic charge
  VA   - Mayer's total valence
  BVA  - Mayer's bonded valence
  FA   - Mayer's free valence

  ATOM       NA         ZA         QA         VA         BVA        FA
  0 C      6.0199     6.0000    -0.0199     3.8171     3.8171    -0.0000
  1 C      6.1689     6.0000    -0.1689     4.5390     4.5390     0.0000
  2 N      7.3770     7.0000    -0.3770     2.7748     2.7748     0.0000
  3 O      8.4610     8.0000    -0.4610     2.0173     2.0173    -0.0000
  4 H      0.9886     1.0000     0.0114     1.0017     1.0017    -0.0000
  5 H      0.9866     1.0000     0.0134     1.0005     1.0005     0.0000
  6 H      1.0162     1.0000    -0.0162     1.0178     1.0178     0.0000
  7 H      0.9818     1.0000     0.0182     1.0462     1.0462    -0.0000

  Mayer bond orders larger than 0.100000
B(  0-C ,  1-C ) :   0.9829 B(  0-C ,  4-H ) :   0.9588 B(  0-C ,  5-H ) :   0.9591 
B(  0-C ,  6-H ) :   0.9500 B(  1-C ,  2-N ) :   1.6831 B(  1-C ,  3-O ) :   1.8028 
B(  2-N ,  3-O ) :   0.1379 B(  2-N ,  7-H ) :   0.9396 

-------
TIMINGS
-------

Total SCF time: 0 days 0 hours 0 min 7 sec 

Total time                  ....       7.341 sec
Sum of individual times     ....       5.979 sec  ( 81.5%)

Fock matrix formation       ....       5.440 sec  ( 74.1%)
  Split-RI-J                ....       0.310 sec  (  5.7% of F)
  XC integration            ....       2.721 sec  ( 50.0% of F)
    Basis function eval.    ....       0.684 sec  ( 25.1% of XC)
    Density eval.           ....       0.300 sec  ( 11.0% of XC)
    XC-Functional eval.     ....       0.258 sec  (  9.5% of XC)
    XC-Potential eval.      ....       0.216 sec  (  8.0% of XC)
Diagonalization             ....       0.001 sec  (  0.0%)
Density matrix formation    ....       0.000 sec  (  0.0%)
Population analysis         ....       0.116 sec  (  1.6%)
Initial guess               ....       0.002 sec  (  0.0%)
Orbital Transformation      ....       0.000 sec  (  0.0%)
Orbital Orthonormalization  ....       0.001 sec  (  0.0%)
DIIS solution               ....       0.000 sec  (  0.0%)
SOSCF solution              ....       0.141 sec  (  1.9%)
Grid generation             ....       0.278 sec  (  3.8%)

Maximum memory used throughout the entire SCF-calculation: 19.6 MB


-------------------------------------------------------------------------------
                          DFT DISPERSION CORRECTION                            
                                                                               
                              DFTD3 V3.1  Rev 1                                
                          USING Becke-Johnson damping                          
-------------------------------------------------------------------------------
The PBE functional is recognized
Active option DFTDOPT                   ...         4   

molecular C6(AA) [au] = 589.845892 


            DFT-D V3
 parameters
 s6 scaling factor         :     1.0000 
 a1 scaling factor         :     0.4289 
 s8 scaling factor         :     0.7875 
 a2 scaling factor         :     4.4407 
 ad hoc parameters k1-k3   :    16.0000     1.3333    -4.0000 

 Edisp/kcal,au: -2.843670361848  -0.004531676693 
 E6   /kcal   :  -2.035425291 
 E8   /kcal   :  -0.808245071 
 % E8         :  28.422600668 

-------------------------   ----------------
Dispersion correction           -0.004531677
-------------------------   ----------------


-------------------------   --------------------
FINAL SINGLE POINT ENERGY      -208.317473494317
-------------------------   --------------------

                                *** OPTIMIZATION RUN DONE ***

                            ***************************************
                            *     ORCA property calculations      *
                            ***************************************

                                    ---------------------
                                    Active property flags
                                    ---------------------
   (+) Dipole Moment


------------------------------------------------------------------------------
                       ORCA ELECTRIC PROPERTIES CALCULATION
------------------------------------------------------------------------------

Dipole Moment Calculation                       ... on
Quadrupole Moment Calculation                   ... off
Polarizability Calculation                      ... off
GBWName                                         ... inp.gbw
Electron density                                ... inp.scfp
The origin for moment calculation is the CENTER OF MASS  = (-4.887111,  0.156123 -1.592607)

-------------
DIPOLE MOMENT
-------------
                                X             Y             Z
Electronic contribution:      1.67293       2.12457      -0.78633
Nuclear contribution   :     -2.59193      -2.49750       0.81303
                        -----------------------------------------
Total Dipole Moment    :     -0.91900      -0.37293       0.02670
                        -----------------------------------------
Magnitude (a.u.)       :      0.99214
Magnitude (Debye)      :      2.52183



--------------------
Rotational spectrum 
--------------------
 
Rotational constants in cm-1:     0.369733     0.317002     0.176353 
Rotational constants in MHz : 11084.328836  9503.487178  5286.942443 

 Dipole components along the rotational axes: 
x,y,z [a.u.] :    -0.989111     0.077374    -0.004684 
x,y,z [Debye]:    -2.514121     0.196670    -0.011905 

 

Timings for individual modules:

Sum of individual times         ...      179.148 sec (=   2.986 min)
GTO integral calculation        ...       11.226 sec (=   0.187 min)   6.3 %
SCF iterations                  ...      144.442 sec (=   2.407 min)  80.6 %
SCF Gradient evaluation         ...       21.238 sec (=   0.354 min)  11.9 %
Geometry relaxation             ...        2.243 sec (=   0.037 min)   1.3 %
                             ****ORCA TERMINATED NORMALLY****
TOTAL RUN TIME: 0 days 0 hours 3 minutes 9 seconds 451 msec
